nqpoint: 303    
npath: 3      
segment_nqpoint:
- 101
- 101
- 101
reciprocal_lattice:
- [   0.30469226,  -0.17602659,   0.00000000 ] # a*
- [   0.00000000,   0.35205317,   0.00000000 ] # b*
- [   0.00000000,   0.00000000,   0.05000000 ] # c*
natom: 3      
lattice:
- [     3.282000000000000,     0.000000000000000,     0.000000000000000 ] # a
- [     1.641000000000000,     2.840480000000000,     0.000000000000000 ] # b
- [     0.000000000000000,     0.000000000000000,    20.000000000000000 ] # c
points:
- symbol: W  # 1
  coordinates: [  0.999900000000000,  0.000200000000000,  0.000000000000000 ]
  mass: 183.840000
- symbol: Se # 2
  coordinates: [  0.333277000000000,  0.333446000000000,  0.915459000000000 ]
  mass: 78.960000
- symbol: Se # 3
  coordinates: [  0.333277000000000,  0.333446000000000,  0.084541000000000 ]
  mass: 78.960000
supercell_matrix:
- [    9,    0,    0 ]
- [    0,    9,    0 ]
- [    0,    0,    1 ]

phonon:
- q-position: [    0.0000000,    0.0000000,    0.0000000 ]
  distance:    0.0000000
  band:
  - # 1
    frequency:   -0.0022569553
  - # 2
    frequency:    0.0010741580
  - # 3
    frequency:    0.0011135956
  - # 4
    frequency:    5.1052745876
  - # 5
    frequency:    5.1068217485
  - # 6
    frequency:    7.2673260435
  - # 7
    frequency:    7.2701692158
  - # 8
    frequency:    7.3462872317
  - # 9
    frequency:    9.0816514164

- q-position: [    0.0050000,    0.0050000,    0.0000000 ]
  distance:    0.0017594
  band:
  - # 1
    frequency:    0.0212259482
  - # 2
    frequency:    0.0461361947
  - # 3
    frequency:    0.0769644757
  - # 4
    frequency:    5.1057819891
  - # 5
    frequency:    5.1071384253
  - # 6
    frequency:    7.2643523076
  - # 7
    frequency:    7.2697625882
  - # 8
    frequency:    7.3494663158
  - # 9
    frequency:    9.0812756784

- q-position: [    0.0100000,    0.0100000,    0.0000000 ]
  distance:    0.0035188
  band:
  - # 1
    frequency:    0.0427431791
  - # 2
    frequency:    0.0922471852
  - # 3
    frequency:    0.1538872009
  - # 4
    frequency:    5.1067641754
  - # 5
    frequency:    5.1086261619
  - # 6
    frequency:    7.2557087164
  - # 7
    frequency:    7.2695123895
  - # 8
    frequency:    7.3577566577
  - # 9
    frequency:    9.0801487204

- q-position: [    0.0150000,    0.0150000,    0.0000000 ]
  distance:    0.0052783
  band:
  - # 1
    frequency:    0.0644415540
  - # 2
    frequency:    0.1383459634
  - # 3
    frequency:    0.2307553595
  - # 4
    frequency:    5.1076832680
  - # 5
    frequency:    5.1118159204
  - # 6
    frequency:    7.2436173675
  - # 7
    frequency:    7.2693395005
  - # 8
    frequency:    7.3690164496
  - # 9
    frequency:    9.0782713111

- q-position: [    0.0200000,    0.0200000,    0.0000000 ]
  distance:    0.0070377
  band:
  - # 1
    frequency:    0.0864573032
  - # 2
    frequency:    0.1844216368
  - # 3
    frequency:    0.3075380328
  - # 4
    frequency:    5.1087833011
  - # 5
    frequency:    5.1164522055
  - # 6
    frequency:    7.2296335959
  - # 7
    frequency:    7.2691456482
  - # 8
    frequency:    7.3817905818
  - # 9
    frequency:    9.0756447318

- q-position: [    0.0250000,    0.0250000,    0.0000000 ]
  distance:    0.0087971
  band:
  - # 1
    frequency:    0.1088973921
  - # 2
    frequency:    0.2304655901
  - # 3
    frequency:    0.3842060172
  - # 4
    frequency:    5.1101508966
  - # 5
    frequency:    5.1224324865
  - # 6
    frequency:    7.2145481856
  - # 7
    frequency:    7.2689107858
  - # 8
    frequency:    7.3953110514
  - # 9
    frequency:    9.0722707775

- q-position: [    0.0300000,    0.0300000,    0.0000000 ]
  distance:    0.0105565
  band:
  - # 1
    frequency:    0.1318582564
  - # 2
    frequency:    0.2764695710
  - # 3
    frequency:    0.4607303701
  - # 4
    frequency:    5.1118037292
  - # 5
    frequency:    5.1297188664
  - # 6
    frequency:    7.1987673305
  - # 7
    frequency:    7.2686291895
  - # 8
    frequency:    7.4091809064
  - # 9
    frequency:    9.0681517574

- q-position: [    0.0350000,    0.0350000,    0.0000000 ]
  distance:    0.0123160
  band:
  - # 1
    frequency:    0.1554275310
  - # 2
    frequency:    0.3224254128
  - # 3
    frequency:    0.5370821959
  - # 4
    frequency:    5.1137457781
  - # 5
    frequency:    5.1382829954
  - # 6
    frequency:    7.1825136519
  - # 7
    frequency:    7.2682986598
  - # 8
    frequency:    7.4231840292
  - # 9
    frequency:    9.0632904966

- q-position: [    0.0400000,    0.0400000,    0.0000000 ]
  distance:    0.0140754
  band:
  - # 1
    frequency:    0.1796839134
  - # 2
    frequency:    0.3683249613
  - # 3
    frequency:    0.6132325877
  - # 4
    frequency:    5.1159770906
  - # 5
    frequency:    5.1480965042
  - # 6
    frequency:    7.1659191304
  - # 7
    frequency:    7.2679181113
  - # 8
    frequency:    7.4371946165
  - # 9
    frequency:    9.0576903373

- q-position: [    0.0450000,    0.0450000,    0.0000000 ]
  distance:    0.0158348
  band:
  - # 1
    frequency:    0.2046968306
  - # 2
    frequency:    0.4141600482
  - # 3
    frequency:    0.6891526031
  - # 4
    frequency:    5.1184961346
  - # 5
    frequency:    5.1591288721
  - # 6
    frequency:    7.1490684269
  - # 7
    frequency:    7.2674868716
  - # 8
    frequency:    7.4511345624
  - # 9
    frequency:    9.0513551410

- q-position: [    0.0500000,    0.0500000,    0.0000000 ]
  distance:    0.0175942
  band:
  - # 1
    frequency:    0.2305262333
  - # 2
    frequency:    0.4599224771
  - # 3
    frequency:    0.7648132503
  - # 4
    frequency:    5.1213005357
  - # 5
    frequency:    5.1713469322
  - # 6
    frequency:    7.1320200962
  - # 7
    frequency:    7.2670044371
  - # 8
    frequency:    7.4649524918
  - # 9
    frequency:    9.0442892902

- q-position: [    0.0550000,    0.0550000,    0.0000000 ]
  distance:    0.0193536
  band:
  - # 1
    frequency:    0.2572225808
  - # 2
    frequency:    0.5056040154
  - # 3
    frequency:    0.8401854786
  - # 4
    frequency:    5.1243873562
  - # 5
    frequency:    5.1847148514
  - # 6
    frequency:    7.1148175848
  - # 7
    frequency:    7.2664703748
  - # 8
    frequency:    7.4786128638
  - # 9
    frequency:    9.0364976916

- q-position: [    0.0600000,    0.0600000,    0.0000000 ]
  distance:    0.0211131
  band:
  - # 1
    frequency:    0.2848270158
  - # 2
    frequency:    0.5511963879
  - # 3
    frequency:    0.9152401701
  - # 4
    frequency:    5.1277532172
  - # 5
    frequency:    5.1991942782
  - # 6
    frequency:    7.0974952506
  - # 7
    frequency:    7.2658842806
  - # 8
    frequency:    7.4920899967
  - # 9
    frequency:    9.0279857785

- q-position: [    0.0650000,    0.0650000,    0.0000000 ]
  distance:    0.0228725
  band:
  - # 1
    frequency:    0.3133717012
  - # 2
    frequency:    0.5966912725
  - # 3
    frequency:    0.9899481329
  - # 4
    frequency:    5.1313943592
  - # 5
    frequency:    5.2147445601
  - # 6
    frequency:    7.0800818232
  - # 7
    frequency:    7.2652457606
  - # 8
    frequency:    7.5053646298
  - # 9
    frequency:    9.0187595145

- q-position: [    0.0700000,    0.0700000,    0.0000000 ]
  distance:    0.0246319
  band:
  - # 1
    frequency:    0.3428802868
  - # 2
    frequency:    0.6420802947
  - # 3
    frequency:    1.0642800947
  - # 4
    frequency:    5.1353066765
  - # 5
    frequency:    5.2313229890
  - # 6
    frequency:    7.0626024801
  - # 7
    frequency:    7.2645544227
  - # 8
    frequency:    7.5184218588
  - # 9
    frequency:    9.0088253972

- q-position: [    0.0750000,    0.0750000,    0.0000000 ]
  distance:    0.0263913
  band:
  - # 1
    frequency:    0.3733684705
  - # 2
    frequency:    0.6873550245
  - # 3
    frequency:    1.1382066968
  - # 4
    frequency:    5.1394857390
  - # 5
    frequency:    5.2488850592
  - # 6
    frequency:    7.0450801410
  - # 7
    frequency:    7.2638098741
  - # 8
    frequency:    7.5312498471
  - # 9
    frequency:    8.9981904626

- q-position: [    0.0800000,    0.0800000,    0.0000000 ]
  distance:    0.0281508
  band:
  - # 1
    frequency:    0.4048446209
  - # 2
    frequency:    0.7325069725
  - # 3
    frequency:    1.2116984891
  - # 4
    frequency:    5.1439268085
  - # 5
    frequency:    5.2673847250
  - # 6
    frequency:    7.0275363007
  - # 7
    frequency:    7.2630117215
  - # 8
    frequency:    7.5438389950
  - # 9
    frequency:    8.9868622898

- q-position: [    0.0850000,    0.0850000,    0.0000000 ]
  distance:    0.0299102
  band:
  - # 1
    frequency:    0.4373104356
  - # 2
    frequency:    0.7775275865
  - # 3
    frequency:    1.2847259256
  - # 4
    frequency:    5.1486248510
  - # 5
    frequency:    5.2867746542
  - # 6
    frequency:    7.0099915825
  - # 7
    frequency:    7.2621595728
  - # 8
    frequency:    7.5561813877
  - # 9
    frequency:    8.9748490067

- q-position: [    0.0900000,    0.0900000,    0.0000000 ]
  distance:    0.0316696
  band:
  - # 1
    frequency:    0.4707616083
  - # 2
    frequency:    0.8224082484
  - # 3
    frequency:    1.3572593604
  - # 4
    frequency:    5.1535745482
  - # 5
    frequency:    5.3070064722
  - # 6
    frequency:    6.9924661136
  - # 7
    frequency:    7.2612530404
  - # 8
    frequency:    7.5682704174
  - # 9
    frequency:    8.9621592958

- q-position: [    0.0950000,    0.0950000,    0.0000000 ]
  distance:    0.0334290
  band:
  - # 1
    frequency:    0.5051884892
  - # 2
    frequency:    0.8671402712
  - # 3
    frequency:    1.4292690449
  - # 4
    frequency:    5.1587703081
  - # 5
    frequency:    5.3280309930
  - # 6
    frequency:    6.9749797868
  - # 7
    frequency:    7.2602917444
  - # 8
    frequency:    7.5801005204
  - # 9
    frequency:    8.9488024010

- q-position: [    0.1000000,    0.1000000,    0.0000000 ]
  distance:    0.0351885
  band:
  - # 1
    frequency:    0.5405767226
  - # 2
    frequency:    0.9117148971
  - # 3
    frequency:    1.5007251263
  - # 4
    frequency:    5.1642062751
  - # 5
    frequency:    5.3497984360
  - # 6
    frequency:    6.9575524448
  - # 7
    frequency:    7.2592753167
  - # 8
    frequency:    7.5916669877
  - # 9
    frequency:    8.9347881351

- q-position: [    0.1050000,    0.1050000,    0.0000000 ]
  distance:    0.0369479
  band:
  - # 1
    frequency:    0.5769078515
  - # 2
    frequency:    0.9561232940
  - # 3
    frequency:    1.5715976467
  - # 4
    frequency:    5.1698763399
  - # 5
    frequency:    5.3722586269
  - # 6
    frequency:    6.9402040127
  - # 7
    frequency:    7.2582034056
  - # 8
    frequency:    7.6029658274
  - # 9
    frequency:    8.9201268883

- q-position: [    0.1100000,    0.1100000,    0.0000000 ]
  distance:    0.0387073
  band:
  - # 1
    frequency:    0.6141598844
  - # 2
    frequency:    1.0003565547
  - # 3
    frequency:    1.6418565442
  - # 4
    frequency:    5.1757741493
  - # 5
    frequency:    5.3953611808
  - # 6
    frequency:    6.9229545934
  - # 7
    frequency:    7.2570756803
  - # 8
    frequency:    7.6139936614
  - # 9
    frequency:    8.9048296368

- q-position: [    0.1150000,    0.1150000,    0.0000000 ]
  distance:    0.0404667
  band:
  - # 1
    frequency:    0.6523078170
  - # 2
    frequency:    1.0444056938
  - # 3
    frequency:    1.7114716556
  - # 4
    frequency:    5.1818931171
  - # 5
    frequency:    5.4190556673
  - # 6
    frequency:    6.9058245366
  - # 7
    frequency:    7.2558918356
  - # 8
    frequency:    7.6247476480
  - # 9
    frequency:    8.8889079537

- q-position: [    0.1200000,    0.1200000,    0.0000000 ]
  distance:    0.0422261
  band:
  - # 1
    frequency:    0.6913241103
  - # 2
    frequency:    1.0882616470
  - # 3
    frequency:    1.7804127210
  - # 4
    frequency:    5.1882264334
  - # 5
    frequency:    5.4432917585
  - # 6
    frequency:    6.8888344871
  - # 7
    frequency:    7.2546515970
  - # 8
    frequency:    7.6352254212
  - # 9
    frequency:    8.8723740193

- q-position: [    0.1250000,    0.1250000,    0.0000000 ]
  distance:    0.0439856
  band:
  - # 1
    frequency:    0.7311791218
  - # 2
    frequency:    1.1319152696
  - # 3
    frequency:    1.8486493912
  - # 4
    frequency:    5.1947670756
  - # 5
    frequency:    5.4680193581
  - # 6
    frequency:    6.8720054188
  - # 7
    frequency:    7.2533547257
  - # 8
    frequency:    7.6454250430
  - # 9
    frequency:    8.8552406340

- q-position: [    0.1300000,    0.1300000,    0.0000000 ]
  distance:    0.0457450
  band:
  - # 1
    frequency:    0.7718414935
  - # 2
    frequency:    1.1753573348
  - # 3
    frequency:    1.9161512372
  - # 4
    frequency:    5.2015078185
  - # 5
    frequency:    5.4931887134
  - # 6
    frequency:    6.8553586551
  - # 7
    frequency:    7.2520010237
  - # 8
    frequency:    7.6553449661
  - # 9
    frequency:    8.8375212312

- q-position: [    0.1350000,    0.1350000,    0.0000000 ]
  distance:    0.0475044
  band:
  - # 1
    frequency:    0.8132784962
  - # 2
    frequency:    1.2185785337
  - # 3
    frequency:    1.9828877631
  - # 4
    frequency:    5.2084412451
  - # 5
    frequency:    5.5187505100
  - # 6
    frequency:    6.8389158797
  - # 7
    frequency:    7.2505903392
  - # 8
    frequency:    7.6649840022
  - # 9
    frequency:    8.8192298926

- q-position: [    0.1400000,    0.1400000,    0.0000000 ]
  distance:    0.0492638
  band:
  - # 1
    frequency:    0.8554563340
  - # 2
    frequency:    1.2615694744
  - # 3
    frequency:    2.0488284230
  - # 4
    frequency:    5.2155597572
  - # 5
    frequency:    5.5446559506
  - # 6
    frequency:    6.8226991379
  - # 7
    frequency:    7.2491225714
  - # 8
    frequency:    7.6743412971
  - # 9
    frequency:    8.8003813637

- q-position: [    0.1450000,    0.1450000,    0.0000000 ]
  distance:    0.0510233
  band:
  - # 1
    frequency:    0.8983404108
  - # 2
    frequency:    1.3043206813
  - # 3
    frequency:    2.1139426410
  - # 4
    frequency:    5.2228555861
  - # 5
    frequency:    5.5708568182
  - # 6
    frequency:    6.8067308295
  - # 7
    frequency:    7.2475976760
  - # 8
    frequency:    7.6834163093
  - # 9
    frequency:    8.7809910719

- q-position: [    0.1500000,    0.1500000,    0.0000000 ]
  distance:    0.0527827
  band:
  - # 1
    frequency:    0.9418955630
  - # 2
    frequency:    1.3468225959
  - # 3
    frequency:    2.1781998365
  - # 4
    frequency:    5.2303208035
  - # 5
    frequency:    5.5973055245
  - # 6
    frequency:    6.7910336939
  - # 7
    frequency:    7.2460156704
  - # 8
    frequency:    7.6922087913
  - # 9
    frequency:    8.7610751452

- q-position: [    0.1550000,    0.1550000,    0.0000000 ]
  distance:    0.0545421
  band:
  - # 1
    frequency:    0.9860862590
  - # 2
    frequency:    1.3890655763
  - # 3
    frequency:    2.2415694543
  - # 4
    frequency:    5.2379473324
  - # 5
    frequency:    5.6239551453
  - # 6
    frequency:    6.7756307872
  - # 7
    frequency:    7.2443766387
  - # 8
    frequency:    7.7007187745
  - # 9
    frequency:    8.7406504332

- q-position: [    0.1600000,    0.1600000,    0.0000000 ]
  distance:    0.0563015
  band:
  - # 1
    frequency:    1.0308767717
  - # 2
    frequency:    1.4310398978
  - # 3
    frequency:    2.3040210004
  - # 4
    frequency:    5.2457269580
  - # 5
    frequency:    5.6507594425
  - # 6
    frequency:    6.7605454514
  - # 7
    frequency:    7.2426807367
  - # 8
    frequency:    7.7089465552
  - # 9
    frequency:    8.7197345300

- q-position: [    0.1650000,    0.1650000,    0.0000000 ]
  distance:    0.0580609
  band:
  - # 1
    frequency:    1.0762313230
  - # 2
    frequency:    1.4727357542
  - # 3
    frequency:    2.3655240838
  - # 4
    frequency:    5.2536513385
  - # 5
    frequency:    5.6776728760
  - # 6
    frequency:    6.7458012758
  - # 7
    frequency:    7.2409281970
  - # 8
    frequency:    7.7168926827
  - # 9
    frequency:    8.6983457980

- q-position: [    0.1700000,    0.1700000,    0.0000000 ]
  distance:    0.0598204
  band:
  - # 1
    frequency:    1.1221142068
  - # 2
    frequency:    1.5141432581
  - # 3
    frequency:    2.4260484657
  - # 4
    frequency:    5.2617120159
  - # 5
    frequency:    5.7046506033
  - # 6
    frequency:    6.7314220494
  - # 7
    frequency:    7.2391193340
  - # 8
    frequency:    7.7245579484
  - # 9
    frequency:    8.6765033948

- q-position: [    0.1750000,    0.1750000,    0.0000000 ]
  distance:    0.0615798
  band:
  - # 1
    frequency:    1.1684898891
  - # 2
    frequency:    1.5552524424
  - # 3
    frequency:    2.4855641159
  - # 4
    frequency:    5.2699004272
  - # 5
    frequency:    5.7316484704
  - # 6
    frequency:    6.7174317045
  - # 7
    frequency:    7.2372545485
  - # 8
    frequency:    7.7319433759
  - # 9
    frequency:    8.6542273015

- q-position: [    0.1800000,    0.1800000,    0.0000000 ]
  distance:    0.0633392
  band:
  - # 1
    frequency:    1.2153230911
  - # 2
    frequency:    1.5960532620
  - # 3
    frequency:    2.5440412768
  - # 4
    frequency:    5.2782079148
  - # 5
    frequency:    5.7586229945
  - # 6
    frequency:    6.7038542518
  - # 7
    frequency:    7.2353343322
  - # 8
    frequency:    7.7390502129
  - # 9
    frequency:    8.6315383530

- q-position: [    0.1850000,    0.1850000,    0.0000000 ]
  distance:    0.0650986
  band:
  - # 1
    frequency:    1.2625788546
  - # 2
    frequency:    1.6365355956
  - # 3
    frequency:    2.6014505372
  - # 4
    frequency:    5.2866257375
  - # 5
    frequency:    5.7855313375
  - # 6
    frequency:    6.6907137046
  - # 7
    frequency:    7.2333592723
  - # 8
    frequency:    7.7458799224
  - # 9
    frequency:    8.6084582708

- q-position: [    0.1900000,    0.1900000,    0.0000000 ]
  distance:    0.0668581
  band:
  - # 1
    frequency:    1.3102225927
  - # 2
    frequency:    1.6766892471
  - # 3
    frequency:    2.6577629138
  - # 4
    frequency:    5.2951450809
  - # 5
    frequency:    5.8123312741
  - # 6
    frequency:    6.6780339937
  - # 7
    frequency:    7.2313300558
  - # 8
    frequency:    7.7524341761
  - # 9
    frequency:    8.5850096974

- q-position: [    0.1950000,    0.1950000,    0.0000000 ]
  distance:    0.0686175
  band:
  - # 1
    frequency:    1.3582201280
  - # 2
    frequency:    1.7165039488
  - # 3
    frequency:    2.7129499438
  - # 4
    frequency:    5.3037570680
  - # 5
    frequency:    5.8389811529
  - # 6
    frequency:    6.6658388714
  - # 7
    frequency:    7.2292474734
  - # 8
    frequency:    7.7587148472
  - # 9
    frequency:    8.5612162330

- q-position: [    0.2000000,    0.2000000,    0.0000000 ]
  distance:    0.0703769
  band:
  - # 1
    frequency:    1.4065377184
  - # 2
    frequency:    1.7559693633
  - # 3
    frequency:    2.7669837867
  - # 4
    frequency:    5.3124527697
  - # 5
    frequency:    5.8654398527
  - # 6
    frequency:    6.6541518044
  - # 7
    frequency:    7.2271124236
  - # 8
    frequency:    7.7647240044
  - # 9
    frequency:    8.5371024745

- q-position: [    0.2050000,    0.2050000,    0.0000000 ]
  distance:    0.0721363
  band:
  - # 1
    frequency:    1.4551420733
  - # 2
    frequency:    1.7950750863
  - # 3
    frequency:    2.8198373357
  - # 4
    frequency:    5.3212232150
  - # 5
    frequency:    5.8916667342
  - # 6
    frequency:    6.6429958564
  - # 7
    frequency:    7.2249259159
  - # 8
    frequency:    7.7704639064
  - # 9
    frequency:    8.5126940551

- q-position: [    0.2100000,    0.2100000,    0.0000000 ]
  distance:    0.0738958
  band:
  - # 1
    frequency:    1.5040003599
  - # 2
    frequency:    1.8338106499
  - # 3
    frequency:    2.8714843411
  - # 4
    frequency:    5.3300594008
  - # 5
    frequency:    5.9176215894
  - # 6
    frequency:    6.6323935588
  - # 7
    frequency:    7.2226890746
  - # 8
    frequency:    7.7759369968
  - # 9
    frequency:    8.4880176870

- q-position: [    0.2150000,    0.2150000,    0.0000000 ]
  distance:    0.0756552
  band:
  - # 1
    frequency:    1.5530802020
  - # 2
    frequency:    1.8721655256
  - # 3
    frequency:    2.9218995416
  - # 4
    frequency:    5.3389523025
  - # 5
    frequency:    5.9432645867
  - # 6
    frequency:    6.6223667711
  - # 7
    frequency:    7.2204031416
  - # 8
    frequency:    7.7811458989
  - # 9
    frequency:    8.4631012038

- q-position: [    0.2200000,    0.2200000,    0.0000000 ]
  distance:    0.0774146
  band:
  - # 1
    frequency:    1.6023496710
  - # 2
    frequency:    1.9101291281
  - # 3
    frequency:    2.9710588069
  - # 4
    frequency:    5.3478928832
  - # 5
    frequency:    5.9685562167
  - # 6
    frequency:    6.6129365311
  - # 7
    frequency:    7.2180694792
  - # 8
    frequency:    7.7860934122
  - # 9
    frequency:    8.4379736043

- q-position: [    0.2250000,    0.2250000,    0.0000000 ]
  distance:    0.0791740
  band:
  - # 1
    frequency:    1.6517772714
  - # 2
    frequency:    1.9476908186
  - # 3
    frequency:    3.0189392880
  - # 4
    frequency:    5.3568721035
  - # 5
    frequency:    5.9934572363
  - # 6
    frequency:    6.6041228942
  - # 7
    frequency:    7.2156895728
  - # 8
    frequency:    7.7907825082
  - # 9
    frequency:    8.4126650960

- q-position: [    0.2300000,    0.2300000,    0.0000000 ]
  distance:    0.0809334
  band:
  - # 1
    frequency:    1.7013319190
  - # 2
    frequency:    1.9848399091
  - # 3
    frequency:    3.0655195767
  - # 4
    frequency:    5.3658809311
  - # 5
    frequency:    6.0179286147
  - # 6
    frequency:    6.5959447659
  - # 7
    frequency:    7.2132650328
  - # 8
    frequency:    7.7952163270
  - # 9
    frequency:    8.3872071377

- q-position: [    0.2350000,    0.2350000,    0.0000000 ]
  distance:    0.0826929
  band:
  - # 1
    frequency:    1.7509829150
  - # 2
    frequency:    2.0215656667
  - # 3
    frequency:    3.1107798699
  - # 4
    frequency:    5.3749103497
  - # 5
    frequency:    6.0419314821
  - # 6
    frequency:    6.5884197250
  - # 7
    frequency:    7.2107975968
  - # 8
    frequency:    7.7993981748
  - # 9
    frequency:    8.3616324801

- q-position: [    0.2400000,    0.2400000,    0.0000000 ]
  distance:    0.0844523
  band:
  - # 1
    frequency:    1.8006999145
  - # 2
    frequency:    2.0578573178
  - # 3
    frequency:    3.1547021405
  - # 4
    frequency:    5.3839513682
  - # 5
    frequency:    6.0654270821
  - # 6
    frequency:    6.5815638425
  - # 7
    frequency:    7.2082891307
  - # 8
    frequency:    7.8033315211
  - # 9
    frequency:    8.3359752030

- q-position: [    0.2450000,    0.2450000,    0.0000000 ]
  distance:    0.0862117
  band:
  - # 1
    frequency:    1.8504528913
  - # 2
    frequency:    2.0937040530
  - # 3
    frequency:    3.1972703098
  - # 4
    frequency:    5.3929950295
  - # 5
    frequency:    6.0883767320
  - # 6
    frequency:    6.5753914966
  - # 7
    frequency:    7.2057416300
  - # 8
    frequency:    7.8070199974
  - # 9
    frequency:    8.3102707472

- q-position: [    0.2500000,    0.2500000,    0.0000000 ]
  distance:    0.0879711
  band:
  - # 1
    frequency:    1.9002120975
  - # 2
    frequency:    2.1290950321
  - # 3
    frequency:    3.2384704204
  - # 4
    frequency:    5.4020324190
  - # 5
    frequency:    6.1107417903
  - # 6
    frequency:    6.5699151862
  - # 7
    frequency:    7.2031572206
  - # 8
    frequency:    7.8104673950
  - # 9
    frequency:    8.2845559397

- q-position: [    0.2550000,    0.2550000,    0.0000000 ]
  distance:    0.0897306
  band:
  - # 1
    frequency:    1.9499480202
  - # 2
    frequency:    2.1640193892
  - # 3
    frequency:    3.2782908067
  - # 4
    frequency:    5.4110546731
  - # 5
    frequency:    6.1324836373
  - # 6
    frequency:    6.5651453470
  - # 7
    frequency:    7.2005381590
  - # 8
    frequency:    7.8136776648
  - # 9
    frequency:    8.2588690087

- q-position: [    0.2600000,    0.2600000,    0.0000000 ]
  distance:    0.0914900
  band:
  - # 1
    frequency:    1.9996313335
  - # 2
    frequency:    2.1984662383
  - # 3
    frequency:    3.3167222598
  - # 4
    frequency:    5.4200529872
  - # 5
    frequency:    6.1535636700
  - # 6
    frequency:    6.5610901714
  - # 7
    frequency:    7.1978868324
  - # 8
    frequency:    7.8166549167
  - # 9
    frequency:    8.2332495863

- q-position: [    0.2650000,    0.2650000,    0.0000000 ]
  distance:    0.0932494
  band:
  - # 1
    frequency:    2.0492328479
  - # 2
    frequency:    2.2324246789
  - # 3
    frequency:    3.3537581825
  - # 4
    frequency:    5.4290186237
  - # 5
    frequency:    6.1739433154
  - # 6
    frequency:    6.5577554373
  - # 7
    frequency:    7.1952057579
  - # 8
    frequency:    7.8194034197
  - # 9
    frequency:    8.2077386954

- q-position: [    0.2700000,    0.2700000,    0.0000000 ]
  distance:    0.0950088
  band:
  - # 1
    frequency:    2.0987234553
  - # 2
    frequency:    2.2658838021
  - # 3
    frequency:    3.3893947333
  - # 4
    frequency:    5.4379429198
  - # 5
    frequency:    6.1935840669
  - # 6
    frequency:    6.5551443485
  - # 7
    frequency:    7.1924975821
  - # 8
    frequency:    7.8219276026
  - # 9
    frequency:    8.1823787161

- q-position: [    0.2750000,    0.2750000,    0.0000000 ]
  distance:    0.0967682
  band:
  - # 1
    frequency:    2.1480740706
  - # 2
    frequency:    2.2988326970
  - # 3
    frequency:    3.4236309526
  - # 4
    frequency:    5.4468172948
  - # 5
    frequency:    6.2124475484
  - # 6
    frequency:    6.5532573901
  - # 7
    frequency:    7.1897650790
  - # 8
    frequency:    7.8242320557
  - # 9
    frequency:    8.1572133287

- q-position: [    0.2800000,    0.2800000,    0.0000000 ]
  distance:    0.0985277
  band:
  - # 1
    frequency:    2.1972555708
  - # 2
    frequency:    2.3312604568
  - # 3
    frequency:    3.4564688699
  - # 4
    frequency:    5.4556332576
  - # 5
    frequency:    6.2304956098
  - # 6
    frequency:    6.5520922025
  - # 7
    frequency:    7.1870111490
  - # 8
    frequency:    7.8263215323
  - # 9
    frequency:    8.1322874267

- q-position: [    0.2850000,    0.2850000,    0.0000000 ]
  distance:    0.1002871
  band:
  - # 1
    frequency:    2.2462387291
  - # 2
    frequency:    2.3631561864
  - # 3
    frequency:    3.4879135885
  - # 4
    frequency:    5.4643824133
  - # 5
    frequency:    6.2476904619
  - # 6
    frequency:    6.5516434783
  - # 7
    frequency:    7.1842388159
  - # 8
    frequency:    7.8282009514
  - # 9
    frequency:    8.1076469956

- q-position: [    0.2900000,    0.2900000,    0.0000000 ]
  distance:    0.1020465
  band:
  - # 1
    frequency:    2.2949941473
  - # 2
    frequency:    2.3945090086
  - # 3
    frequency:    3.5179733435
  - # 4
    frequency:    5.4730564704
  - # 5
    frequency:    6.2639948532
  - # 6
    frequency:    6.5519028836
  - # 7
    frequency:    7.1814512241
  - # 8
    frequency:    7.8298754007
  - # 9
    frequency:    8.0833389525

- q-position: [    0.2950000,    0.2950000,    0.0000000 ]
  distance:    0.1038059
  band:
  - # 1
    frequency:    2.3434921830
  - # 2
    frequency:    2.4253080723
  - # 3
    frequency:    3.5466595309
  - # 4
    frequency:    5.4816472473
  - # 5
    frequency:    6.2793722974
  - # 6
    frequency:    6.5528590072
  - # 7
    frequency:    7.1786516360
  - # 8
    frequency:    7.8313501400
  - # 9
    frequency:    8.0594109394

- q-position: [    0.3000000,    0.3000000,    0.0000000 ]
  distance:    0.1055654
  band:
  - # 1
    frequency:    2.3917028749
  - # 2
    frequency:    2.4555425596
  - # 3
    frequency:    3.5739867072
  - # 4
    frequency:    5.4901466785
  - # 5
    frequency:    6.2937873540
  - # 6
    frequency:    6.5544973400
  - # 7
    frequency:    7.1758434275
  - # 8
    frequency:    7.8326306060
  - # 9
    frequency:    8.0359110670

- q-position: [    0.3050000,    0.3050000,    0.0000000 ]
  distance:    0.1073248
  band:
  - # 1
    frequency:    2.4395958634
  - # 2
    frequency:    2.4852016943
  - # 3
    frequency:    3.5999725557
  - # 4
    frequency:    5.4985468207
  - # 5
    frequency:    6.3072059678
  - # 6
    frequency:    6.5568002853
  - # 7
    frequency:    7.1730300837
  - # 8
    frequency:    7.8337224162
  - # 9
    frequency:    8.0128876040

- q-position: [    0.3100000,    0.3100000,    0.0000000 ]
  distance:    0.1090842
  band:
  - # 1
    frequency:    2.4871403086
  - # 2
    frequency:    2.5142747499
  - # 3
    frequency:    3.6246378214
  - # 4
    frequency:    5.5068398591
  - # 5
    frequency:    6.3195958710
  - # 6
    frequency:    6.5597472008
  - # 7
    frequency:    7.1702151945
  - # 8
    frequency:    7.8346313747
  - # 9
    frequency:    7.9903886076

- q-position: [    0.3150000,    0.3150000,    0.0000000 ]
  distance:    0.1108436
  band:
  - # 1
    frequency:    2.5343048046
  - # 2
    frequency:    2.5427510585
  - # 3
    frequency:    3.6480062122
  - # 4
    frequency:    5.5150181124
  - # 5
    frequency:    6.3309270475
  - # 6
    frequency:    6.5633144728
  - # 7
    frequency:    7.1674024490
  - # 8
    frequency:    7.8353634776
  - # 9
    frequency:    7.9684614966

- q-position: [    0.3200000,    0.3200000,    0.0000000 ]
  distance:    0.1126031
  band:
  - # 1
    frequency:    2.5706200195
  - # 2
    frequency:    2.5810572903
  - # 3
    frequency:    3.6701042701
  - # 4
    frequency:    5.5230740392
  - # 5
    frequency:    6.3411722592
  - # 6
    frequency:    6.5674756206
  - # 7
    frequency:    7.1645956295
  - # 8
    frequency:    7.8359249190
  - # 9
    frequency:    7.9471525654

- q-position: [    0.3250000,    0.3250000,    0.0000000 ]
  distance:    0.1143625
  band:
  - # 1
    frequency:    2.5978711090
  - # 2
    frequency:    2.6273649578
  - # 3