    2    2    1    1
  0.5238761E+02  0.2459512E-09  0.2459512E-09  0.2000000E-08  0.5000000E-15
  1.000000000000000E-004
  CAR 
 C:graphene                              
      8     48      8
 
  0.3742002E-15  0.3742002E-15  0.1262379E-14  0.2267574E-02
    1      -22.299131   1.000000
    2      -10.393048   1.000000
    3       -5.752579   1.000000
    4       -5.752521   1.000000
    5        0.523290   0.000000
    6        1.324485   0.000000
    7        1.692247   0.000000
    8        2.600150   0.000000
 
  0.4761905E-01  0.3771171E-15  0.1262379E-14  0.1360544E-01
    1      -22.245297   1.000000
    2      -10.328632   1.000000
    3       -5.973417   1.000000
    4       -5.869406   1.000000
    5        0.596367   0.000000
    6        1.398545   0.000000
    7        1.767191   0.000000
    8        2.674446   0.000000
 
  0.9523810E-01  0.3768972E-15  0.1262379E-14  0.1360544E-01
    1      -22.083973   1.000000
    2      -10.135869   1.000000
    3       -6.593258   1.000000
    4       -6.189175   1.000000
    5        0.815646   0.000000
    6        1.620610   0.000000
    7        1.992032   0.000000
    8        2.897243   0.000000
 
  0.1428571E+00  0.3593300E-15  0.1262379E-14  0.1360544E-01
    1      -21.815727   1.000000
    2       -9.816484   1.000000
    3       -7.512602   1.000000
    4       -6.640782   1.000000
    5        1.181105   0.000000
    6        1.990257   0.000000
    7        2.366778   0.000000
    8        3.268193   0.000000
 
  0.1904762E+00  0.3695184E-15  0.1262379E-14  0.1360544E-01
    1      -21.441561   1.000000
    2       -9.373614   1.000000
    3       -8.625182   1.000000
    4       -7.149512   1.000000
    5        1.692426   0.000000
    6        2.506320   0.000000
    7        2.891393   0.000000
    8        3.786081   0.000000
 
  0.2380952E+00  0.1267399E-14  0.1262379E-14  0.1360544E-01
    1      -20.962979   1.000000
    2       -9.844777   1.000000
    3       -8.812606   1.000000
    4       -7.656488   1.000000
    5        2.348851   0.000000
    6        3.163350   0.000000
    7        3.565736   0.000000
    8        4.433206   0.000000
 
  0.2857143E+00  0.3625559E-15  0.1262379E-14  0.1360544E-01
    1      -20.382240   1.000000
    2      -11.108675   1.000000
    3       -8.142618   1.000000
    4       -8.120835   1.000000
    5        3.148722   0.000000
    6        3.501107   0.000000
    7        4.048689   0.000000
    8        4.389036   0.000000
 
  0.3333333E+00  0.3588666E-15  0.1262379E-14  0.1360544E-01
    1      -19.702816   1.000000
    2      -12.372254   1.000000
    3       -8.515721   1.000000
    4       -7.380245   1.000000
    5        2.212090   0.000000
    6        4.085857   0.000000
    7        4.958515   0.000000
    8        5.063176   0.000000
 
  0.3809524E+00  0.3551772E-15  0.1262379E-14  0.1360544E-01
    1      -18.930833   1.000000
    2      -13.602050   1.000000
    3       -8.823871   1.000000
    4       -6.559331   1.000000
    5        0.930229   0.000000
    6        4.857397   0.000000
    7        5.234679   0.000000
    8        6.052276   0.000000
 
  0.4285714E+00  0.3810475E-15  0.1262379E-14  0.1360544E-01
    1      -18.081409   1.000000
    2      -14.765332   1.000000
    3       -9.034487   1.000000
    4       -5.759946   1.000000
    5       -0.193957   0.000000
    6        4.787819   0.000000
    7        6.421689   0.000000
    8        7.285735   0.000000
 
  0.4761905E+00  0.3496025E-15  0.1262379E-14  0.1360544E-01
    1      -17.236623   1.000000
    2      -15.769485   1.000000
    3       -9.141235   1.000000
    4       -5.187296   1.000000
    5       -0.933842   0.000000
    6        4.736323   0.000000
    7        7.768892   0.000000
    8        8.642642   0.000000
 
  0.9523810E-01  0.4761905E-01  0.1262379E-14  0.1360544E-01
    1      -22.137717   1.000000
    2      -10.200040   1.000000
    3       -6.378379   1.000000
    4       -6.103209   1.000000
    5        0.742558   0.000000
    6        1.546610   0.000000
    7        1.917085   0.000000
    8        2.822995   0.000000
 
  0.1428571E+00  0.4761905E-01  0.1262379E-14  0.2721088E-01
    1      -21.922936   1.000000
    2       -9.943932   1.000000
    3       -7.115177   1.000000
    4       -6.522250   1.000000
    5        1.034999   0.000000
    6        1.842497   0.000000
    7        2.216891   0.000000
    8        3.119906   0.000000
 
  0.1904762E+00  0.4761905E-01  0.1262379E-14  0.2721088E-01
    1      -21.601733   1.000000
    2       -9.562683   1.000000
    3       -8.101211   1.000000
    4       -7.033151   1.000000
    5        1.473535   0.000000
    6        2.285540   0.000000
    7        2.666602   0.000000
    8        3.564595   0.000000
 
  0.2380952E+00  0.4761905E-01  0.1262379E-14  0.2721088E-01
    1      -21.175361   1.000000
    2       -9.245976   1.000000
    3       -9.060390   1.000000
    4       -7.562979   1.000000
    5        2.057647   0.000000
    6        2.873603   0.000000
    7        3.266149   0.000000
    8        4.154049   0.000000
 
  0.2857143E+00  0.4761905E-01  0.1262379E-14  0.2721088E-01
    1      -20.645690   1.000000
    2      -10.473896   1.000000
    3       -8.444011   1.000000
    4       -8.062824   1.000000
    5        2.786293   0.000000
    6        3.580900   0.000000
    7        4.015305   0.000000
    8        4.199154   0.000000
 
  0.3333333E+00  0.4761905E-01  0.1262379E-14  0.2721088E-01
    1      -20.015534   1.000000
    2      -11.729059   1.000000
    3       -8.501140   1.000000
    4       -7.725629   1.000000
    5        2.835642   0.000000
    6        3.657078   0.000000
    7        4.518760   0.000000
    8        4.912062   0.000000
 
  0.3809524E+00  0.4761905E-01  0.1262379E-14  0.2721088E-01
    1      -19.289430   1.000000
    2      -12.970858   1.000000
    3       -8.857793   1.000000
    4       -6.928334   1.000000
    5        1.535500   0.000000
    6        4.655834   0.000000
    7        5.240551   0.000000
    8        5.536993   0.000000
 
  0.4285714E+00  0.4761905E-01  0.1262379E-14  0.2721088E-01
    1      -18.476517   1.000000
    2      -14.166493   1.000000
    3       -9.120069   1.000000
    4       -6.102726   1.000000
    5        0.322661   0.000000
    6        5.068826   0.000000
    7        5.855842   0.000000
    8        6.699625   0.000000
 
  0.4761905E+00  0.4761905E-01  0.1262379E-14  0.2721088E-01
    1      -17.607441   1.000000
    2      -15.270560   1.000000
    3       -9.280214   1.000000
    4       -5.376873   1.000000
    5       -0.645479   0.000000
    6        4.998991   0.000000
    7        7.132021   0.000000
    8        7.991755   0.000000
 
 -0.4761905E+00  0.4761905E-01  0.1262379E-14  0.1360544E-01
    1      -16.988527   1.000000
    2      -15.968662   1.000000
    3       -9.334030   1.000000
    4       -5.050797   1.000000
    5       -1.053920   0.000000
    6        4.972751   0.000000
    7        8.464168   0.000000
    8        8.620081   0.000000
 
  0.1904762E+00  0.9523810E-01  0.1262379E-14  0.1360544E-01
    1      -21.655197   1.000000
    2       -9.625887   1.000000
    3       -7.857311   1.000000
    4       -7.062681   1.000000
    5        1.400640   0.000000
    6        2.211888   0.000000
    7        2.591684   0.000000
    8        3.490695   0.000000
 
  0.2380952E+00  0.9523810E-01  0.1262379E-14  0.2721088E-01
    1      -21.281801   1.000000
    2       -9.184884   1.000000
    3       -8.800101   1.000000
    4       -7.671336   1.000000
    5        1.912221   0.000000
    6        2.727802   0.000000
    7        3.116383   0.000000
    8        4.008721   0.000000
 
  0.2857143E+00  0.9523810E-01  0.1262379E-14  0.2721088E-01
    1      -20.804340   1.000000
    2       -9.899893   1.000000
    3       -8.626220   1.000000
    4       -8.248341   1.000000
    5        2.568979   0.000000
    6        3.385587   0.000000
    7        3.790896   0.000000
    8        4.572502   0.000000
 
  0.3333333E+00  0.9523810E-01  0.1262379E-14  0.2721088E-01
    1      -20.225190   1.000000
    2      -11.087617   1.000000
    3       -8.754104   1.000000
    4       -7.958796   1.000000
    5        3.342472   0.000000
    6        3.369594   0.000000
    7        4.218180   0.000000
    8        4.614972   0.000000
 
  0.3809524E+00  0.9523810E-01  0.1262379E-14  0.2721088E-01
    1      -19.548004   1.000000
    2      -12.303366   1.000000
    3       -9.172236   1.000000
    4       -7.198711   1.000000
    5        2.080072   0.000000
    6        4.311235   0.000000
    7        5.159474   0.000000
    8        5.586166   0.000000
 
  0.4285714E+00  0.9523810E-01  0.1262379E-14  0.2721088E-01
    1      -18.779154   1.000000
    2      -13.502607   1.000000
    3       -9.493021   1.000000
    4       -6.378424   1.000000
    5        0.843792   0.000000
    6        5.376289   0.000000
    7        5.859203   0.000000
    8        6.246619   0.000000
 
  0.4761905E+00  0.9523810E-01  0.1262379E-14  0.2721088E-01
    1      -17.934221   1.000000
    2      -14.645883   1.000000
    3       -9.710121   1.000000
    4       -5.575128   1.000000
    5       -0.253360   0.000000
    6        5.714079   0.000000
    7        6.637001   0.000000
    8        7.460691   0.000000
 
 -0.4761905E+00  0.9523810E-01  0.1262379E-14  0.2721088E-01
    1      -17.095918   1.000000
    2      -15.636560   1.000000
    3       -9.819616   1.000000
    4       -4.992931   1.000000
    5       -0.987376   0.000000
    6        5.666292   0.000000
    7        7.971485   0.000000
    8        8.757515   0.000000
 
  0.2857143E+00  0.1428571E+00  0.1262379E-14  0.1360544E-01
    1      -20.857315   1.000000
    2       -9.615212   1.000000
    3       -8.687158   1.000000
    4       -8.410259   1.000000
    5        2.496537   0.000000
    6        3.315844   0.000000
    7        3.716066   0.000000
    8        4.599805   0.000000
 
  0.3333333E+00  0.1428571E+00  0.1262379E-14  0.2721088E-01
    1      -20.330358   1.000000
    2      -10.581640   1.000000
    3       -9.086922   1.000000
    4       -8.076238   1.000000
    5        3.225375   0.000000
    6        3.648406   0.000000
    7        4.053096   0.000000
    8        4.465528   0.000000
 
  0.3809524E+00  0.1428571E+00  0.1262379E-14  0.2721088E-01
    1      -19.704034   1.000000
    2      -11.673267   1.000000
    3       -9.629790   1.000000
    4       -7.363497   1.000000
    5        2.476664   0.000000
    6        4.096994   0.000000
    7        4.924679   0.000000
    8        5.364520   0.000000
 
  0.4285714E+00  0.1428571E+00  0.1262379E-14  0.2721088E-01
    1      -18.983314   1.000000
    2      -12.818650   1.000000
    3      -10.040904   1.000000
    4       -6.570206   1.000000
    5        1.286384   0.000000
    6        5.108062   0.000000
    7        5.933636   0.000000
    8        6.411493   0.000000
 
  0.4761905E+00  0.1428571E+00  0.1262379E-14  0.2721088E-01
    1      -18.178046   1.000000
    2      -13.955952   1.000000
    3      -10.330652   1.000000
    4       -5.742449   1.000000
    5        0.152723   0.000000
    6        6.244932   0.000000
    7        6.820216   0.000000
    8        7.061354   0.000000
 
 -0.4761905E+00  0.1428571E+00  0.1262379E-14  0.2721088E-01
    1      -17.319853   1.000000
    2      -15.023389   1.000000
    3      -10.503604   1.000000
    4       -5.000921   1.000000
    5       -0.781782   0.000000
    6        6.709483   0.000000
    7        7.550935   0.000000
    8        8.251217   0.000000
 
 -0.4285714E+00  0.1428571E+00  0.1262379E-14  0.1360544E-01
    1      -16.712325   1.000000
    2      -15.702219   1.000000
    3      -10.561196   1.000000
    4       -4.657985   1.000000
    5       -1.190694   0.000000
    6        6.687178   0.000000
    7        8.835447   0.000000
    8        9.067433   0.000000
 
  0.3809524E+00  0.1904762E+00  0.1262379E-14  0.1360544E-01
    1      -19.756179   1.000000
    2      -11.343851   1.000000
    3       -9.909058   1.000000
    4       -7.418833   1.000000
    5        2.625477   0.000000
    6        4.025135   0.000000
    7        4.843588   0.000000
    8        5.289853   0.000000
 
  0.4285714E+00  0.1904762E+00  0.1262379E-14  0.2721088E-01
    1      -19.086033   1.000000
    2      -12.253607   1.000000
    3      -10.557045   1.000000
    4       -6.668327   1.000000
    5        1.548428   0.000000
    6        4.965649   0.000000
    7        5.771075   0.000000
    8        6.263576   0.000000
 
  0.4761905E+00  0.1904762E+00  0.1262379E-14  0.2721088E-01
    1      -18.327208   1.000000
    2      -13.279340   1.000000
    3      -10.996835   1.000000
    4       -5.852370   1.000000
    5        0.466403   0.000000
    6        6.042000   0.000000
    7        6.806671   0.000000
    8        7.385611   0.000000
 
 -0.4761905E+00  0.1904762E+00  0.1262379E-14  0.2721088E-01
    1      -17.496444   1.000000
    2      -14.327623   1.000000
    3      -11.268084   1.000000
    4       -5.036593   1.000000
    5       -0.538655   0.000000
    6        7.240233   0.000000
    7        7.865463   0.000000
    8        8.010411   0.000000
 
 -0.4285714E+00  0.1904762E+00  0.1262379E-14  0.2721088E-01
    1      -16.676540   1.000000
    2      -15.266385   1.000000
    3      -11.398590   1.000000
    4       -4.416201   1.000000
    5       -1.257768   0.000000
    6        7.927024   0.000000
    7        8.573116   0.000000
    8        8.615213   0.000000
 
  0.4761905E+00  0.2380952E+00  0.1262379E-14  0.1360544E-01
    1      -18.377315   1.000000
    2      -12.908543   1.000000
    3      -11.369480   1.000000
    4       -5.890511   1.000000
    5        0.586056   0.000000
    6        5.971001   0.000000
    7        6.717600   0.000000
    8        7.311650   0.000000
 
 -0.4761905E+00  0.2380952E+00  0.1262379E-14  0.2721088E-01
    1      -17.589262   1.000000
    2      -13.722725   1.000000
    3      -11.917259   1.000000
    4       -5.064103   1.000000
    5       -0.375565   0.000000
    6        7.103687   0.000000
    7        7.646432   0.000000
    8        8.507356   0.000000
 
 -0.4285714E+00  0.2380952E+00  0.1262379E-14  0.2721088E-01
    1      -16.754340   1.000000
    2      -14.628576   1.000000
    3      -12.202387   1.000000
    4       -4.281786   1.000000
    5       -1.241455   0.000000
    6        8.198135   0.000000
    7        8.337159   0.000000
    8        9.270236   0.000000
 
 -0.3809524E+00  0.2380952E+00  0.1262379E-14  0.1360544E-01
    1      -16.161102   1.000000
    2      -15.255152   1.000000
    3      -12.289613   1.000000
    4       -3.878266   1.000000
    5       -1.673400   0.000000
    6        8.302447   0.000000
    7        9.190217   0.000000
    8        9.513062   0.000000
 
 -0.4285714E+00  0.2857143E+00  0.1262379E-14  0.1360544E-01
    1      -16.788953   1.000000
    2      -14.249232   1.000000
    3      -12.632314   1.000000
    4       -4.240567   1.000000
    5       -1.222661   0.000000
    6        8.039297   0.000000
    7        8.270198   0.000000
    8        9.773107   0.000000
 
 -0.3809524E+00  0.2857143E+00  0.1262379E-14  0.2721088E-01
    1      -15.997454   1.000000
    2      -14.913153   1.000000
    3      -12.987173   1.000000
    4       -3.502752   1.000000
    5       -1.968494   0.000000
    6        8.019632   0.000000
    7        9.458311   0.000000
    8       10.205867   0.000000
 
 -0.3333333E+00  0.3333333E+00  0.1262379E-14  0.4535147E-02
    1      -15.337880   1.000000
    2      -15.337847   1.000000
    3      -13.328852   1.000000
    4       -2.725034   0.500750
    5       -2.725008   0.499250
    6        7.908552   0.000000
    7       10.217964   0.000000
    8       10.217975   0.000000
