<?xml version="1.0" encoding="ISO-8859-1"?>
<modeling>
 <generator>
  <i name="program" type="string">vasp </i>
  <i name="version" type="string">5.4.4.18Apr17-6-g9f103f2a35  </i>
  <i name="subversion" type="string">(build May 31 2018 21:15:54) complex            parallel </i>
  <i name="platform" type="string">c7_intel_O1 </i>
  <i name="date" type="string">2020 07 21 </i>
  <i name="time" type="string">23:44:11 </i>
 </generator>
 <incar>
  <i type="string" name="SYSTEM"> C:graphene</i>
  <i type="int" name="ISTART">     0</i>
  <i type="string" name="PREC">accurate</i>
  <i type="string" name="ALGO"> N</i>
  <i type="logical" name="ADDGRID"> T  </i>
  <i name="AMIN">      0.01000000</i>
  <i type="int" name="NELMIN">     5</i>
  <i type="int" name="IBRION">    -1</i>
  <i name="EDIFF">      0.00000001</i>
  <i type="int" name="NSW">     1</i>
  <i name="SYMPREC">      0.00010000</i>
  <i name="ENCUT">    800.00000000</i>
  <i type="logical" name="LREAL"> F  </i>
  <i type="int" name="ISMEAR">     0</i>
  <i name="SIGMA">      0.01000000</i>
  <i type="logical" name="LWAVE"> F  </i>
  <v type="int" name="KPOINT_BSE">    -1     0     0     0</v>
 </incar>
 <structure name="primitive_cell" >
  <crystal>
   <varray name="basis" >
    <v>       2.13000000      -1.22975600       0.00000000 </v>
    <v>       2.13000000       1.22975600       0.00000000 </v>
    <v>       0.00000000       0.00000000      20.00000000 </v>
   </varray>
   <i name="volume">    104.77521120 </i>
   <varray name="rec_basis" >
    <v>       0.23474178      -0.40658472       0.00000000 </v>
    <v>       0.23474178       0.40658472       0.00000000 </v>
    <v>       0.00000000       0.00000000       0.05000000 </v>
   </varray>
  </crystal>
  <varray name="positions" >
   <v>       0.00000000       0.00000000       0.00000000 </v>
   <v>       0.33333300       0.33333300       0.00000000 </v>
  </varray>
 </structure>
 <varray name="primitive_index" >
  <v type="int" >        1 </v>
  <v type="int" >        2 </v>
 </varray>
 <kpoints>
  <generation param="Gamma">
   <v type="int" name="divisions">      21       21        1 </v>
   <v name="usershift">      0.00000000       0.00000000       0.00000000 </v>
   <v name="genvec1">      0.04761905       0.00000000       0.00000000 </v>
   <v name="genvec2">      0.00000000       0.04761905       0.00000000 </v>
   <v name="genvec3">      0.00000000       0.00000000       1.00000000 </v>
   <v name="shift">      0.00000000       0.00000000       0.00000000 </v>
  </generation>
  <varray name="kpointlist" >
   <v>       0.00000000       0.00000000       0.00000000 </v>
   <v>       0.04761905       0.00000000       0.00000000 </v>
   <v>       0.09523810       0.00000000       0.00000000 </v>
   <v>       0.14285714       0.00000000       0.00000000 </v>
   <v>       0.19047619       0.00000000       0.00000000 </v>
   <v>       0.23809524       0.00000000       0.00000000 </v>
   <v>       0.28571429       0.00000000       0.00000000 </v>
   <v>       0.33333333       0.00000000       0.00000000 </v>
   <v>       0.38095238       0.00000000       0.00000000 </v>
   <v>       0.42857143       0.00000000       0.00000000 </v>
   <v>       0.47619048       0.00000000       0.00000000 </v>
   <v>       0.09523810       0.04761905       0.00000000 </v>
   <v>       0.14285714       0.04761905       0.00000000 </v>
   <v>       0.19047619       0.04761905       0.00000000 </v>
   <v>       0.23809524       0.04761905       0.00000000 </v>
   <v>       0.28571429       0.04761905       0.00000000 </v>
   <v>       0.33333333       0.04761905       0.00000000 </v>
   <v>       0.38095238       0.04761905       0.00000000 </v>
   <v>       0.42857143       0.04761905       0.00000000 </v>
   <v>       0.47619048       0.04761905       0.00000000 </v>
   <v>      -0.47619048       0.04761905       0.00000000 </v>
   <v>       0.19047619       0.09523810       0.00000000 </v>
   <v>       0.23809524       0.09523810       0.00000000 </v>
   <v>       0.28571429       0.09523810       0.00000000 </v>
   <v>       0.33333333       0.09523810       0.00000000 </v>
   <v>       0.38095238       0.09523810       0.00000000 </v>
   <v>       0.42857143       0.09523810       0.00000000 </v>
   <v>       0.47619048       0.09523810       0.00000000 </v>
   <v>      -0.47619048       0.09523810       0.00000000 </v>
   <v>       0.28571429       0.14285714       0.00000000 </v>
   <v>       0.33333333       0.14285714       0.00000000 </v>
   <v>       0.38095238       0.14285714       0.00000000 </v>
   <v>       0.42857143       0.14285714       0.00000000 </v>
   <v>       0.47619048       0.14285714       0.00000000 </v>
   <v>      -0.47619048       0.14285714       0.00000000 </v>
   <v>      -0.42857143       0.14285714       0.00000000 </v>
   <v>       0.38095238       0.19047619       0.00000000 </v>
   <v>       0.42857143       0.19047619       0.00000000 </v>
   <v>       0.47619048       0.19047619       0.00000000 </v>
   <v>      -0.47619048       0.19047619       0.00000000 </v>
   <v>      -0.42857143       0.19047619       0.00000000 </v>
   <v>       0.47619048       0.23809524       0.00000000 </v>
   <v>      -0.47619048       0.23809524       0.00000000 </v>
   <v>      -0.42857143       0.23809524       0.00000000 </v>
   <v>      -0.38095238       0.23809524       0.00000000 </v>
   <v>      -0.42857143       0.28571429       0.00000000 </v>
   <v>      -0.38095238       0.28571429       0.00000000 </v>
   <v>      -0.33333333       0.33333333       0.00000000 </v>
  </varray>
  <varray name="weights" >
   <v>       0.00226757 </v>
   <v>       0.01360544 </v>
   <v>       0.01360544 </v>
   <v>       0.01360544 </v>
   <v>       0.01360544 </v>
   <v>       0.01360544 </v>
   <v>       0.01360544 </v>
   <v>       0.01360544 </v>
   <v>       0.01360544 </v>
   <v>       0.01360544 </v>
   <v>       0.01360544 </v>
   <v>       0.01360544 </v>
   <v>       0.02721088 </v>
   <v>       0.02721088 </v>
   <v>       0.02721088 </v>
   <v>       0.02721088 </v>
   <v>       0.02721088 </v>
   <v>       0.02721088 </v>
   <v>       0.02721088 </v>
   <v>       0.02721088 </v>
   <v>       0.01360544 </v>
   <v>       0.01360544 </v>
   <v>       0.02721088 </v>
   <v>       0.02721088 </v>
   <v>       0.02721088 </v>
   <v>       0.02721088 </v>
   <v>       0.02721088 </v>
   <v>       0.02721088 </v>
   <v>       0.02721088 </v>
   <v>       0.01360544 </v>
   <v>       0.02721088 </v>
   <v>       0.02721088 </v>
   <v>       0.02721088 </v>
   <v>       0.02721088 </v>
   <v>       0.02721088 </v>
   <v>       0.01360544 </v>
   <v>       0.01360544 </v>
   <v>       0.02721088 </v>
   <v>       0.02721088 </v>
   <v>       0.02721088 </v>
   <v>       0.02721088 </v>
   <v>       0.01360544 </v>
   <v>       0.02721088 </v>
   <v>       0.02721088 </v>
   <v>       0.01360544 </v>
   <v>       0.01360544 </v>
   <v>       0.02721088 </v>
   <v>       0.00453515 </v>
  </varray>
 </kpoints>
 <parameters>
  <separator name="general" >
   <i type="string" name="SYSTEM">C:graphene</i>
   <i type="logical" name="LCOMPAT"> F  </i>
  </separator>
  <separator name="electronic" >
   <i type="string" name="PREC">accura</i>
   <i name="ENMAX">    800.00000000</i>
   <i name="ENAUG">    644.87300000</i>
   <i name="EDIFF">      0.00000001</i>
   <i type="int" name="IALGO">    38</i>
   <i type="int" name="IWAVPR">    10</i>
   <i type="int" name="NBANDS">     8</i>
   <i name="NELECT">      8.00000000</i>
   <i type="int" name="TURBO">     0</i>
   <i type="int" name="IRESTART">     0</i>
   <i type="int" name="NREBOOT">     0</i>
   <i type="int" name="NMIN">     0</i>
   <i name="EREF">      0.00000000</i>
   <separator name="electronic smearing" >
    <i type="int" name="ISMEAR">     0</i>
    <i name="SIGMA">      0.01000000</i>
    <i name="KSPACING">      0.50000000</i>
    <i type="logical" name="KGAMMA"> T  </i>
   </separator>
   <separator name="electronic projectors" >
    <i type="logical" name="LREAL"> F  </i>
    <v name="ROPT">      0.00000000</v>
    <i type="int" name="LMAXPAW">  -100</i>
    <i type="int" name="LMAXMIX">     2</i>
    <i type="logical" name="NLSPLINE"> F  </i>
   </separator>
   <separator name="electronic startup" >
    <i type="int" name="ISTART">     0</i>
    <i type="int" name="ICHARG">     2</i>
    <i type="int" name="INIWAV">     1</i>
   </separator>
   <separator name="electronic spin" >
    <i type="int" name="ISPIN">     1</i>
    <i type="logical" name="LNONCOLLINEAR"> F  </i>
    <v name="MAGMOM">      1.00000000      1.00000000</v>
    <i name="NUPDOWN">     -1.00000000</i>
    <i type="logical" name="LSORBIT"> F  </i>
    <v name="SAXIS">      0.00000000      0.00000000      1.00000000</v>
    <i type="logical" name="LSPIRAL"> F  </i>
    <v name="QSPIRAL">      0.00000000      0.00000000      0.00000000</v>
    <i type="logical" name="LZEROZ"> F  </i>
   </separator>
   <separator name="electronic exchange-correlation" >
    <i type="logical" name="LASPH"> F  </i>
    <i type="logical" name="LMETAGGA"> F  </i>
   </separator>
   <separator name="electronic convergence" >
    <i type="int" name="NELM">    60</i>
    <i type="int" name="NELMDL">    -5</i>
    <i type="int" name="NELMIN">     5</i>
    <i name="ENINI">    800.00000000</i>
    <separator name="electronic convergence detail" >
     <i type="logical" name="LDIAG"> T  </i>
     <i type="logical" name="LSUBROT"> F  </i>
     <i name="WEIMIN">      0.00000000</i>
     <i name="EBREAK">      0.00000000</i>
     <i name="DEPER">      0.30000000</i>
     <i type="int" name="NRMM">     4</i>
     <i name="TIME">      0.40000000</i>
    </separator>
   </separator>
   <separator name="electronic mixer" >
    <i name="AMIX">      0.40000000</i>
    <i name="BMIX">      1.00000000</i>
    <i name="AMIN">      0.01000000</i>
    <i name="AMIX_MAG">      1.60000000</i>
    <i name="BMIX_MAG">      1.00000000</i>
    <separator name="electronic mixer details" >
     <i type="int" name="IMIX">     4</i>
     <i type="logical" name="MIXFIRST"> F  </i>
     <i type="int" name="MAXMIX">   -45</i>
     <i name="WC">    100.00000000</i>
     <i type="int" name="INIMIX">     1</i>
     <i type="int" name="MIXPRE">     1</i>
     <i type="int" name="MREMOVE">     5</i>
    </separator>
   </separator>
   <separator name="electronic dipolcorrection" >
    <i type="logical" name="LDIPOL"> F  </i>
    <i type="logical" name="LMONO"> F  </i>
    <i type="int" name="IDIPOL">     0</i>
    <i name="EPSILON">      1.00000000</i>
    <v name="DIPOL">   -100.00000000   -100.00000000   -100.00000000</v>
    <i name="EFIELD">      0.00000000</i>
   </separator>
  </separator>
  <separator name="grids" >
   <i type="int" name="NGX">    24</i>
   <i type="int" name="NGY">    24</i>
   <i type="int" name="NGZ">   192</i>
   <i type="int" name="NGXF">    48</i>
   <i type="int" name="NGYF">    48</i>
   <i type="int" name="NGZF">   384</i>
   <i type="logical" name="ADDGRID"> T  </i>
  </separator>
  <separator name="ionic" >
   <i type="int" name="NSW">     1</i>
   <i type="int" name="IBRION">    -1</i>
   <i type="int" name="MDALGO">     0</i>
   <i type="int" name="ISIF">     2</i>
   <i name="PSTRESS">      0.00000000</i>
   <i name="EDIFFG">      0.00000010</i>
   <i type="int" name="NFREE">     0</i>
   <i name="POTIM">      0.50000000</i>
   <i name="SMASS">     -3.00000000</i>
   <i name="SCALEE">      1.00000000</i>
  </separator>
  <separator name="ionic md" >
   <i name="TEBEG">      0.00010000</i>
   <i name="TEEND">      0.00010000</i>
   <i type="int" name="NBLOCK">     1</i>
   <i type="int" name="KBLOCK">     1</i>
   <i type="int" name="NPACO">   256</i>
   <i name="APACO">     16.00000000</i>
  </separator>
  <separator name="symmetry" >
   <i type="int" name="ISYM">     2</i>
   <i name="SYMPREC">      0.00010000</i>
  </separator>
  <separator name="dos" >
   <i type="int" name="LORBIT">     0</i>
   <v name="RWIGS">     -1.00000000</v>
   <i type="int" name="NEDOS">   301</i>
   <i name="EMIN">     10.00000000</i>
   <i name="EMAX">    -10.00000000</i>
   <i name="EFERMI">      0.00000000</i>
  </separator>
  <separator name="writing" >
   <i type="int" name="NWRITE">     2</i>
   <i type="logical" name="LWAVE"> F  </i>
   <i type="logical" name="LDOWNSAMPLE"> F  </i>
   <i type="logical" name="LCHARG"> T  </i>
   <i type="logical" name="LPARD"> F  </i>
   <i type="logical" name="LVTOT"> F  </i>
   <i type="logical" name="LVHAR"> F  </i>
   <i type="logical" name="LELF"> F  </i>
   <i type="logical" name="LOPTICS"> F  </i>
   <v name="STM">      0.00000000      0.00000000      0.00000000      0.00000000      0.00000000      0.00000000      0.00000000</v>
  </separator>
  <separator name="performance" >
   <i type="int" name="NPAR">     4</i>
   <i type="int" name="NSIM">     4</i>
   <i type="int" name="NBLK">    -1</i>
   <i type="logical" name="LPLANE"> T  </i>
   <i type="logical" name="LSCALAPACK"> T  </i>
   <i type="logical" name="LSCAAWARE"> F  </i>
   <i type="logical" name="LSCALU"> F  </i>
   <i type="logical" name="LASYNC"> F  </i>
   <i type="logical" name="LORBITALREAL"> F  </i>
  </separator>
  <separator name="miscellaneous" >
   <i type="int" name="IDIOT">     3</i>
   <i type="int" name="ISPECIAL">     0</i>
   <i type="logical" name="LMUSIC"> F  </i>
   <v name="POMASS">     12.01100000</v>
   <v name="DARWINR">      0.00000000</v>
   <v name="DARWINV">      1.00000000</v>
   <i type="logical" name="LCORR"> T  </i>
  </separator>
  <i type="logical" name="GGA_COMPAT"> T  </i>
  <i type="logical" name="LBERRY"> F  </i>
  <i type="int" name="ICORELEVEL">     0</i>
  <i type="logical" name="LDAU"> F  </i>
  <i type="int" name="I_CONSTRAINED_M">     0</i>
  <separator name="electronic exchange-correlation" >
   <i type="string" name="GGA">--</i>
   <i type="int" name="VOSKOWN">     0</i>
   <i type="logical" name="LHFCALC"> F  </i>
   <i type="string" name="PRECFOCK"></i>
   <i type="logical" name="LSYMGRAD"> F  </i>
   <i type="logical" name="LHFONE"> F  </i>
   <i type="logical" name="LRHFCALC"> F  </i>
   <i type="logical" name="LTHOMAS"> F  </i>
   <i type="logical" name="LMODELHF"> F  </i>
   <i name="ENCUT4O">     -1.00000000</i>
   <i type="int" name="EXXOEP">     0</i>
   <i type="int" name="FOURORBIT">     0</i>
   <i name="AEXX">      0.00000000</i>
   <i name="HFALPHA">      0.00000000</i>
   <i name="MCALPHA">      0.00000000</i>
   <i name="ALDAX">      1.00000000</i>
   <i name="AGGAX">      1.00000000</i>
   <i name="ALDAC">      1.00000000</i>
   <i name="AGGAC">      1.00000000</i>
   <i type="int" name="NKREDX">     1</i>
   <i type="int" name="NKREDY">     1</i>
   <i type="int" name="NKREDZ">     1</i>
   <i type="logical" name="SHIFTRED"> F  </i>
   <i type="logical" name="ODDONLY"> F  </i>
   <i type="logical" name="EVENONLY"> F  </i>
   <i type="int" name="LMAXFOCK">     0</i>
   <i type="int" name="NMAXFOCKAE">     0</i>
   <i type="logical" name="LFOCKAEDFT"> F  </i>
   <i name="HFSCREEN">      0.00000000</i>
   <i name="HFSCREENC">      0.00000000</i>
   <i type="int" name="NBANDSGWLOW">     0</i>
  </separator>
  <separator name="vdW DFT" >
   <i type="logical" name="LUSE_VDW"> F  </i>
   <i name="Zab_VDW">     -0.84910000</i>
   <i name="PARAM1">      0.12340000</i>
   <i name="PARAM2">      1.00000000</i>
   <i name="PARAM3">      0.00000000</i>
  </separator>
  <separator name="model GW" >
   <i type="int" name="MODEL_GW">     0</i>
   <i name="MODEL_EPS0">     31.43256336</i>
   <i name="MODEL_ALPHA">      1.00000000</i>
  </separator>
  <separator name="linear response parameters" >
   <i type="logical" name="LEPSILON"> F  </i>
   <i type="logical" name="LRPA"> F  </i>
   <i type="logical" name="LNABLA"> F  </i>
   <i type="logical" name="LVEL"> F  </i>
   <i type="int" name="KINTER">     0</i>
   <i name="CSHIFT">      0.10000000</i>
   <i name="OMEGAMAX">     -1.00000000</i>
   <i name="DEG_THRESHOLD">      0.00200000</i>
   <i name="RTIME">     -0.10000000</i>
   <i name="WPLASMAI">      0.00000000</i>
   <v name="DFIELD">      0.00000000      0.00000000      0.00000000</v>
   <v name="WPLASMA">      0.00000000      0.00000000      0.00000000      0.00000000      0.00000000      0.00000000      0.00000000      0.00000000      0.00000000</v>
  </separator>
  <separator name="orbital magnetization" >
   <i type="logical" name="NUCIND"> F  </i>
   <v name="MAGPOS">      0.00000000      0.00000000      0.00000000</v>
   <i type="logical" name="LNICSALL"> T  </i>
   <i type="logical" name="ORBITALMAG"> F  </i>
   <i type="logical" name="LMAGBLOCH"> F  </i>
   <i type="logical" name="LCHIMAG"> F  </i>
   <i type="logical" name="LGAUGE"> T  </i>
   <i type="int" name="MAGATOM">     0</i>
   <v name="MAGDIPOL">      0.00000000      0.00000000      0.00000000</v>
   <v name="AVECCONST">      0.00000000      0.00000000      0.00000000</v>
  </separator>
  <separator name="response functions" >
   <i type="logical" name="LADDER"> F  </i>
   <i type="logical" name="LRPAFORCE"> F  </i>
   <i type="logical" name="LFXC"> F  </i>
   <i type="logical" name="LHARTREE"> T  </i>
   <i type="int" name="IBSE">     0</i>
   <v type="int" name="KPOINT">    -1     0     0     0</v>
   <i type="logical" name="LTCTE"> F  </i>
   <i type="logical" name="LTETE"> F  </i>
   <i type="logical" name="LTRIPLET"> F  </i>
   <i type="logical" name="LFXCEPS"> F  </i>
   <i type="logical" name="LFXHEG"> F  </i>
   <i type="int" name="NATURALO">     2</i>
   <i type="logical" name="L2ORDER"> F  </i>
   <i type="logical" name="LMP2LT"> F  </i>
   <i type="logical" name="LUSEW"> F  </i>
   <i name="ENCUTGW">     -2.00000000</i>
   <i name="ENCUTGWSOFT">     -2.00000000</i>
   <i name="ENCUTLF">     -1.00000000</i>
   <i type="int" name="LMAXMP2">    -1</i>
   <i name="SCISSOR">      0.00000000</i>
   <i type="int" name="NOMEGA">     0</i>
   <i type="int" name="NOMEGAR">     0</i>
   <i type="int" name="NBANDSGW">    -1</i>
   <i type="int" name="NBANDSO">    -1</i>
   <i type="int" name="NBANDSV">    -1</i>
   <i type="int" name="NELM">     1</i>
   <i type="int" name="NELMHF">     1</i>
   <i type="int" name="DIM">     3</i>
   <i type="int" name="ANTIRES">     0</i>
   <i name="OMEGAMAX">    -30.00000000</i>
   <i name="OMEGAMIN">    -30.00000000</i>
   <i name="OMEGATL">   -200.00000000</i>
   <i type="int" name="OMEGAGRID">   140</i>
   <i name="CSHIFT">     -0.10000000</i>
   <i type="logical" name="SELFENERGY"> F  </i>
   <i type="logical" name="LSPECTRAL"> F  </i>
   <i type="logical" name="LSPECTRALGW"> F  </i>
   <i type="logical" name="LSINGLES"> F  </i>
   <i type="logical" name="LFERMIGW"> F  </i>
   <i type="logical" name="ODDONLYGW"> F  </i>
   <i type="logical" name="EVENONLYGW"> F  </i>
   <i type="int" name="NKREDLFX">     1</i>
   <i type="int" name="NKREDLFY">     1</i>
   <i type="int" name="NKREDLFZ">     1</i>
   <i type="int" name="MAXMEM">  2800</i>
   <i type="int" name="TELESCOPE">     0</i>
   <i type="int" name="TAUPAR">     1</i>
   <i type="int" name="OMEGAPAR">    -1</i>
   <i name="LAMBDA">      1.00000000</i>
  </separator>
  <separator name="External order field" >
   <i name="OFIELD_KAPPA">      0.00000000</i>
   <v name="OFIELD_K">      0.00000000      0.00000000      0.00000000</v>
   <i name="OFIELD_Q6_NEAR">      0.00000000</i>
   <i name="OFIELD_Q6_FAR">      0.00000000</i>
   <i name="OFIELD_A">      0.00000000</i>
  </separator>
 </parameters>
 <atominfo>
  <atoms>       2 </atoms>
  <types>       1 </types>
  <array name="atoms" >
   <dimension dim="1">ion</dimension>
   <field type="string">element</field>
   <field type="int">atomtype</field>
   <set>
    <rc><c>C </c><c>   1</c></rc>
    <rc><c>C </c><c>   1</c></rc>
   </set>
  </array>
  <array name="atomtypes" >
   <dimension dim="1">type</dimension>
   <field type="int">atomspertype</field>
   <field type="string">element</field>
   <field>mass</field>
   <field>valence</field>
   <field type="string">pseudopotential</field>
   <set>
    <rc><c>   2</c><c>C </c><c>     12.01100000</c><c>      4.00000000</c><c>  PAW_PBE C 08Apr2002                   </c></rc>
   </set>
  </array>
 </atominfo>
 <structure name="initialpos" >
  <crystal>
   <varray name="basis" >
    <v>       2.13000000      -1.22975600       0.00000000 </v>
    <v>       2.13000000       1.22975600       0.00000000 </v>
    <v>       0.00000000       0.00000000      20.00000000 </v>
   </varray>
   <i name="volume">    104.77521120 </i>
   <varray name="rec_basis" >
    <v>       0.23474178      -0.40658472       0.00000000 </v>
    <v>       0.23474178       0.40658472       0.00000000 </v>
    <v>       0.00000000       0.00000000       0.05000000 </v>
   </varray>
  </crystal>
  <varray name="positions" >
   <v>       0.00000000       0.00000000       0.00000000 </v>
   <v>       0.33333300       0.33333300       0.00000000 </v>
  </varray>
  <varray name="velocities" >
   <v>       0.00000000       0.00000000       0.00000000 </v>
   <v>       0.00000000       0.00000000       0.00000000 </v>
  </varray>
 </structure>
 <calculation>
  <scstep>
   <time name="dav">    0.81    0.84</time>
   <time name="total">    0.94    0.98</time>
   <energy>
    <i name="alphaZ">      3.13611264 </i>
    <i name="ewald">   1303.03316907 </i>
    <i name="hartreedc">  -1515.21333446 </i>
    <i name="XCdc">     26.39530837 </i>
    <i name="pawpsdc">    217.04409276 </i>
    <i name="pawaedc">   -218.18290438 </i>
    <i name="eentropy">     -0.00019948 </i>
    <i name="bandstr">    -54.08880943 </i>
    <i name="atom">    294.30884690 </i>
    <i name="e_fr_energy">     56.43228200 </i>
    <i name="e_wo_entrp">     56.43248148 </i>
    <i name="e_0_energy">     56.43238174 </i>
   </energy>
  </scstep>
  <scstep>
   <time name="dav">    1.06    1.07</time>
   <time name="total">    1.06    1.07</time>
   <energy>
    <i name="e_fr_energy">    -14.59663578 </i>
    <i name="e_wo_entrp">    -14.59663578 </i>
    <i name="e_0_energy">    -14.59663578 </i>
   </energy>
  </scstep>
  <scstep>
   <time name="dav">    0.98    0.99</time>
   <time name="total">    0.99    0.99</time>
   <energy>
    <i name="e_fr_energy">    -19.73174927 </i>
    <i name="e_wo_entrp">    -19.73169902 </i>
    <i name="e_0_energy">    -19.73172414 </i>
   </energy>
  </scstep>
  <scstep>
   <time name="dav">    1.19    1.19</time>
   <time name="total">    1.19    1.19</time>
   <energy>
    <i name="e_fr_energy">    -19.76844254 </i>
    <i name="e_wo_entrp">    -19.76839137 </i>
    <i name="e_0_energy">    -19.76841696 </i>
   </energy>
  </scstep>
  <scstep>
   <time name="dav">    1.08    1.08</time>
   <time name="total">    1.18    1.19</time>
   <energy>
    <i name="e_fr_energy">    -19.76851203 </i>
    <i name="e_wo_entrp">    -19.76846085 </i>
    <i name="e_0_energy">    -19.76848644 </i>
   </energy>
  </scstep>
  <scstep>
   <time name="dav">    1.04    1.04</time>
   <time name="total">    1.25    1.25</time>
   <energy>
    <i name="e_fr_energy">    -18.83916450 </i>
    <i name="e_wo_entrp">    -18.83911333 </i>
    <i name="e_0_energy">    -18.83913892 </i>
   </energy>
  </scstep>
  <scstep>
   <time name="dav">    1.11    1.11</time>
   <time name="total">    1.31    1.32</time>
   <energy>
    <i name="e_fr_energy">    -18.47922232 </i>
    <i name="e_wo_entrp">    -18.47917115 </i>
    <i name="e_0_energy">    -18.47919674 </i>
   </energy>
  </scstep>
  <scstep>
   <time name="dav">    1.16    1.16</time>
   <time name="total">    1.36    1.37</time>
   <energy>
    <i name="e_fr_energy">    -18.47031986 </i>
    <i name="e_wo_entrp">    -18.47026869 </i>
    <i name="e_0_energy">    -18.47029428 </i>
   </energy>
  </scstep>
  <scstep>
   <time name="dav">    1.06    1.06</time>
   <time name="total">    1.26    1.27</time>
   <energy>
    <i name="e_fr_energy">    -18.46894432 </i>
    <i name="e_wo_entrp">    -18.46889315 </i>
    <i name="e_0_energy">    -18.46891873 </i>
   </energy>
  </scstep>
  <scstep>
   <time name="dav">    1.00    1.01</time>
   <time name="total">    1.21    1.21</time>
   <energy>
    <i name="e_fr_energy">    -18.46346130 </i>
    <i name="e_wo_entrp">    -18.46341012 </i>
    <i name="e_0_energy">    -18.46343571 </i>
   </energy>
  </scstep>
  <scstep>
   <time name="dav">    0.94    0.95</time>
   <time name="total">    1.15    1.15</time>
   <energy>
    <i name="e_fr_energy">    -18.46269985 </i>
    <i name="e_wo_entrp">    -18.46264868 </i>
    <i name="e_0_energy">    -18.46267427 </i>
   </energy>
  </scstep>
  <scstep>
   <time name="dav">    0.90    0.90</time>
   <time name="total">    1.10    1.10</time>
   <energy>
    <i name="e_fr_energy">    -18.46279954 </i>
    <i name="e_wo_entrp">    -18.46274836 </i>
    <i name="e_0_energy">    -18.46277395 </i>
   </energy>
  </scstep>
  <scstep>
   <time name="dav">    1.02    1.02</time>
   <time name="total">    1.22    1.22</time>
   <energy>
    <i name="e_fr_energy">    -18.46363043 </i>
    <i name="e_wo_entrp">    -18.46357926 </i>
    <i name="e_0_energy">    -18.46360485 </i>
   </energy>
  </scstep>
  <scstep>
   <time name="dav">    0.92    0.92</time>
   <time name="total">    1.12    1.12</time>
   <energy>
    <i name="e_fr_energy">    -18.46365039 </i>
    <i name="e_wo_entrp">    -18.46359921 </i>
    <i name="e_0_energy">    -18.46362480 </i>
   </energy>
  </scstep>
  <scstep>
   <time name="dav">    0.87    0.88</time>
   <time name="total">    1.07    1.08</time>
   <energy>
    <i name="e_fr_energy">    -18.46392436 </i>
    <i name="e_wo_entrp">    -18.46387319 </i>
    <i name="e_0_energy">    -18.46389878 </i>
   </energy>
  </scstep>
  <scstep>
   <time name="dav">    0.92    0.92</time>
   <time name="total">    1.12    1.17</time>
   <energy>
    <i name="e_fr_energy">    -18.46420715 </i>
    <i name="e_wo_entrp">    -18.46415598 </i>
    <i name="e_0_energy">    -18.46418157 </i>
   </energy>
  </scstep>
  <scstep>
   <time name="dav">    0.95    0.95</time>
   <time name="total">    1.15    1.16</time>
   <energy>
    <i name="e_fr_energy">    -18.46424577 </i>
    <i name="e_wo_entrp">    -18.46419459 </i>
    <i name="e_0_energy">    -18.46422018 </i>
   </energy>
  </scstep>
  <scstep>
   <time name="dav">    0.86    0.86</time>
   <time name="total">    1.06    1.06</time>
   <energy>
    <i name="e_fr_energy">    -18.46429935 </i>
    <i name="e_wo_entrp">    -18.46424818 </i>
    <i name="e_0_energy">    -18.46427377 </i>
   </energy>
  </scstep>
  <scstep>
   <time name="dav">    1.10    1.10</time>
   <time name="total">    1.30    1.30</time>
   <energy>
    <i name="e_fr_energy">    -18.46430217 </i>
    <i name="e_wo_entrp">    -18.46425100 </i>
    <i name="e_0_energy">    -18.46427658 </i>
   </energy>
  </scstep>
  <scstep>
   <time name="dav">    0.92    0.93</time>
   <time name="total">    1.13    1.13</time>
   <energy>
    <i name="e_fr_energy">    -18.46430400 </i>
    <i name="e_wo_entrp">    -18.46425283 </i>
    <i name="e_0_energy">    -18.46427841 </i>
   </energy>
  </scstep>
  <scstep>
   <time name="dav">    1.11    1.11</time>
   <time name="total">    1.32    1.32</time>
   <energy>
    <i name="e_fr_energy">    -18.46430409 </i>
    <i name="e_wo_entrp">    -18.46425291 </i>
    <i name="e_0_energy">    -18.46427850 </i>
   </energy>
  </scstep>
  <scstep>
   <time name="dav">    0.94    0.94</time>
   <time name="total">    1.14    1.14</time>
   <energy>
    <i name="e_fr_energy">    -18.46430412 </i>
    <i name="e_wo_entrp">    -18.46425295 </i>
    <i name="e_0_energy">    -18.46427853 </i>
   </energy>
  </scstep>
  <scstep>
   <time name="dav">    1.11    1.11</time>
   <time name="total">    1.21    1.21</time>
   <energy>
    <i name="alphaZ">      3.13611264 </i>
    <i name="ewald">   1303.03316907 </i>
    <i name="hartreedc">  -1550.04810969 </i>
    <i name="XCdc">     27.59285732 </i>
    <i name="pawpsdc">    847.83277092 </i>
    <i name="pawaedc">   -849.19410391 </i>
    <i name="eentropy">     -0.00005117 </i>
    <i name="bandstr">    -95.12579621 </i>
    <i name="atom">    294.30884690 </i>
    <i name="e_fr_energy">    -18.46430412 </i>
    <i name="e_wo_entrp">    -18.46425295 </i>
    <i name="e_0_energy">    -18.46427854 </i>
   </energy>
  </scstep>
  <structure>
   <crystal>
    <varray name="basis" >
     <v>       2.13000000      -1.22975600       0.00000000 </v>
     <v>       2.13000000       1.22975600       0.00000000 </v>
     <v>       0.00000000       0.00000000      20.00000000 </v>
    </varray>
    <i name="volume">    104.77521120 </i>
    <varray name="rec_basis" >
     <v>       0.23474178      -0.40658472       0.00000000 </v>
     <v>       0.23474178       0.40658472       0.00000000 </v>
     <v>       0.00000000       0.00000000       0.05000000 </v>
    </varray>
   </crystal>
   <varray name="positions" >
    <v>       0.00000000       0.00000000       0.00000000 </v>
    <v>       0.33333300       0.33333300       0.00000000 </v>
   </varray>
  </structure>
  <varray name="forces" >
   <v>       0.00000000      -0.00000000       0.00000000 </v>
   <v>      -0.00000000       0.00000000       0.00000000 </v>
  </varray>
  <varray name="stress" >
   <v>       6.34876917       0.00000000       0.00000000 </v>
   <v>       0.00000000       6.34876841       0.00000000 </v>
   <v>       0.00000000      -0.00000000      -0.34343438 </v>
  </varray>
  <energy>
   <i name="e_fr_energy">    -18.46430412 </i>
   <i name="e_wo_entrp">    -18.46427854 </i>
   <i name="e_0_energy">     -0.00005117 </i>
  </energy>
  <time name="totalsc">   28.99   29.31</time>
  <eigenvalues>
   <array>
    <dimension dim="1">band</dimension>
    <dimension dim="2">kpoint</dimension>
    <dimension dim="3">spin</dimension>
    <field>eigene</field>
    <field>occ</field>
    <set>
     <set comment="spin 1">
      <set comment="kpoint 1">
       <r>  -22.2991    1.0000 </r>
       <r>  -10.3930    1.0000 </r>
       <r>   -5.7526    1.0000 </r>
       <r>   -5.7525    1.0000 </r>
       <r>    0.5233    0.0000 </r>
       <r>    1.3245    0.0000 </r>
       <r>    1.6922    0.0000 </r>
       <r>    2.6002    0.0000 </r>
      </set>
      <set comment="kpoint 2">
       <r>  -22.2453    1.0000 </r>
       <r>  -10.3286    1.0000 </r>
       <r>   -5.9734    1.0000 </r>
       <r>   -5.8694    1.0000 </r>
       <r>    0.5964    0.0000 </r>
       <r>    1.3985    0.0000 </r>
       <r>    1.7672    0.0000 </r>
       <r>    2.6744    0.0000 </r>
      </set>
      <set comment="kpoint 3">
       <r>  -22.0840    1.0000 </r>
       <r>  -10.1359    1.0000 </r>
       <r>   -6.5933    1.0000 </r>
       <r>   -6.1892    1.0000 </r>
       <r>    0.8156    0.0000 </r>
       <r>    1.6206    0.0000 </r>
       <r>    1.9920    0.0000 </r>
       <r>    2.8972    0.0000 </r>
      </set>
      <set comment="kpoint 4">
       <r>  -21.8157    1.0000 </r>
       <r>   -9.8165    1.0000 </r>
       <r>   -7.5126    1.0000 </r>
       <r>   -6.6408    1.0000 </r>
       <r>    1.1811    0.0000 </r>
       <r>    1.9903    0.0000 </r>
       <r>    2.3668    0.0000 </r>
       <r>    3.2682    0.0000 </r>
      </set>
      <set comment="kpoint 5">
       <r>  -21.4416    1.0000 </r>
       <r>   -9.3736    1.0000 </r>
       <r>   -8.6252    1.0000 </r>
       <r>   -7.1495    1.0000 </r>
       <r>    1.6924    0.0000 </r>
       <r>    2.5063    0.0000 </r>
       <r>    2.8914    0.0000 </r>
       <r>    3.7861    0.0000 </r>
      </set>
      <set comment="kpoint 6">
       <r>  -20.9630    1.0000 </r>
       <r>   -9.8448    1.0000 </r>
       <r>   -8.8126    1.0000 </r>
       <r>   -7.6565    1.0000 </r>
       <r>    2.3489    0.0000 </r>
       <r>    3.1634    0.0000 </r>
       <r>    3.5657    0.0000 </r>
       <r>    4.4332    0.0000 </r>
      </set>
      <set comment="kpoint 7">
       <r>  -20.3822    1.0000 </r>
       <r>  -11.1087    1.0000 </r>
       <r>   -8.1426    1.0000 </r>
       <r>   -8.1208    1.0000 </r>
       <r>    3.1487    0.0000 </r>
       <r>    3.5011    0.0000 </r>
       <r>    4.0487    0.0000 </r>
       <r>    4.3890    0.0000 </r>
      </set>
      <set comment="kpoint 8">
       <r>  -19.7028    1.0000 </r>
       <r>  -12.3723    1.0000 </r>
       <r>   -8.5157    1.0000 </r>
       <r>   -7.3802    1.0000 </r>
       <r>    2.2121    0.0000 </r>
       <r>    4.0859    0.0000 </r>
       <r>    4.9585    0.0000 </r>
       <r>    5.0632    0.0000 </r>
      </set>
      <set comment="kpoint 9">
       <r>  -18.9308    1.0000 </r>
       <r>  -13.6021    1.0000 </r>
       <r>   -8.8239    1.0000 </r>
       <r>   -6.5593    1.0000 </r>
       <r>    0.9302    0.0000 </r>
       <r>    4.8574    0.0000 </r>
       <r>    5.2347    0.0000 </r>
       <r>    6.0523    0.0000 </r>
      </set>
      <set comment="kpoint 10">
       <r>  -18.0814    1.0000 </r>
       <r>  -14.7653    1.0000 </r>
       <r>   -9.0345    1.0000 </r>
       <r>   -5.7599    1.0000 </r>
       <r>   -0.1940    0.0000 </r>
       <r>    4.7878    0.0000 </r>
       <r>    6.4217    0.0000 </r>
       <r>    7.2857    0.0000 </r>
      </set>
      <set comment="kpoint 11">
       <r>  -17.2366    1.0000 </r>
       <r>  -15.7695    1.0000 </r>
       <r>   -9.1412    1.0000 </r>
       <r>   -5.1873    1.0000 </r>
       <r>   -0.9338    0.0000 </r>
       <r>    4.7363    0.0000 </r>
       <r>    7.7689    0.0000 </r>
       <r>    8.6426    0.0000 </r>
      </set>
      <set comment="kpoint 12">
       <r>  -22.1377    1.0000 </r>
       <r>  -10.2000    1.0000 </r>
       <r>   -6.3784    1.0000 </r>
       <r>   -6.1032    1.0000 </r>
       <r>    0.7426    0.0000 </r>
       <r>    1.5466    0.0000 </r>
       <r>    1.9171    0.0000 </r>
       <r>    2.8230    0.0000 </r>
      </set>
      <set comment="kpoint 13">
       <r>  -21.9229    1.0000 </r>
       <r>   -9.9439    1.0000 </r>
       <r>   -7.1152    1.0000 </r>
       <r>   -6.5223    1.0000 </r>
       <r>    1.0350    0.0000 </r>
       <r>    1.8425    0.0000 </r>
       <r>    2.2169    0.0000 </r>
       <r>    3.1199    0.0000 </r>
      </set>
      <set comment="kpoint 14">
       <r>  -21.6017    1.0000 </r>
       <r>   -9.5627    1.0000 </r>
       <r>   -8.1012    1.0000 </r>
       <r>   -7.0332    1.0000 </r>
       <r>    1.4735    0.0000 </r>
       <r>    2.2855    0.0000 </r>
       <r>    2.6666    0.0000 </r>
       <r>    3.5646    0.0000 </r>
      </set>
      <set comment="kpoint 15">
       <r>  -21.1754    1.0000 </r>
       <r>   -9.2460    1.0000 </r>
       <r>   -9.0604    1.0000 </r>
       <r>   -7.5630    1.0000 </r>
       <r>    2.0576    0.0000 </r>
       <r>    2.8736    0.0000 </r>
       <r>    3.2661    0.0000 </r>
       <r>    4.1540    0.0000 </r>
      </set>
      <set comment="kpoint 16">
       <r>  -20.6457    1.0000 </r>
       <r>  -10.4739    1.0000 </r>
       <r>   -8.4440    1.0000 </r>
       <r>   -8.0628    1.0000 </r>
       <r>    2.7863    0.0000 </r>
       <r>    3.5809    0.0000 </r>
       <r>    4.0153    0.0000 </r>
       <r>    4.1992    0.0000 </r>
      </set>
      <set comment="kpoint 17">
       <r>  -20.0155    1.0000 </r>
       <r>  -11.7291    1.0000 </r>
       <r>   -8.5011    1.0000 </r>
       <r>   -7.7256    1.0000 </r>
       <r>    2.8356    0.0000 </r>
       <r>    3.6571    0.0000 </r>
       <r>    4.5188    0.0000 </r>
       <r>    4.9121    0.0000 </r>
      </set>
      <set comment="kpoint 18">
       <r>  -19.2894    1.0000 </r>
       <r>  -12.9709    1.0000 </r>
       <r>   -8.8578    1.0000 </r>
       <r>   -6.9283    1.0000 </r>
       <r>    1.5355    0.0000 </r>
       <r>    4.6558    0.0000 </r>
       <r>    5.2406    0.0000 </r>
       <r>    5.5370    0.0000 </r>
      </set>
      <set comment="kpoint 19">
       <r>  -18.4765    1.0000 </r>
       <r>  -14.1665    1.0000 </r>
       <r>   -9.1201    1.0000 </r>
       <r>   -6.1027    1.0000 </r>
       <r>    0.3227    0.0000 </r>
       <r>    5.0688    0.0000 </r>
       <r>    5.8558    0.0000 </r>
       <r>    6.6996    0.0000 </r>
      </set>
      <set comment="kpoint 20">
       <r>  -17.6074    1.0000 </r>
       <r>  -15.2706    1.0000 </r>
       <r>   -9.2802    1.0000 </r>
       <r>   -5.3769    1.0000 </r>
       <r>   -0.6455    0.0000 </r>
       <r>    4.9990    0.0000 </r>
       <r>    7.1320    0.0000 </r>
       <r>    7.9918    0.0000 </r>
      </set>
      <set comment="kpoint 21">
       <r>  -16.9885    1.0000 </r>
       <r>  -15.9687    1.0000 </r>
       <r>   -9.3340    1.0000 </r>
       <r>   -5.0508    1.0000 </r>
       <r>   -1.0539    0.0000 </r>
       <r>    4.9728    0.0000 </r>
       <r>    8.4642    0.0000 </r>
       <r>    8.6201    0.0000 </r>
      </set>
      <set comment="kpoint 22">
       <r>  -21.6552    1.0000 </r>
       <r>   -9.6259    1.0000 </r>
       <r>   -7.8573    1.0000 </r>
       <r>   -7.0627    1.0000 </r>
       <r>    1.4006    0.0000 </r>
       <r>    2.2119    0.0000 </r>
       <r>    2.5917    0.0000 </r>
       <r>    3.4907    0.0000 </r>
      </set>
      <set comment="kpoint 23">
       <r>  -21.2818    1.0000 </r>
       <r>   -9.1849    1.0000 </r>
       <r>   -8.8001    1.0000 </r>
       <r>   -7.6713    1.0000 </r>
       <r>    1.9122    0.0000 </r>
       <r>    2.7278    0.0000 </r>
       <r>    3.1164    0.0000 </r>
       <r>    4.0087    0.0000 </r>
      </set>
      <set comment="kpoint 24">
       <r>  -20.8043    1.0000 </r>
       <r>   -9.8999    1.0000 </r>
       <r>   -8.6262    1.0000 </r>
       <r>   -8.2483    1.0000 </r>
       <r>    2.5690    0.0000 </r>
       <r>    3.3856    0.0000 </r>
       <r>    3.7909    0.0000 </r>
       <r>    4.5725    0.0000 </r>
      </set>
      <set comment="kpoint 25">
       <r>  -20.2252    1.0000 </r>
       <r>  -11.0876    1.0000 </r>
       <r>   -8.7541    1.0000 </r>
       <r>   -7.9588    1.0000 </r>
       <r>    3.3425    0.0000 </r>
       <r>    3.3696    0.0000 </r>
       <r>    4.2182    0.0000 </r>
       <r>    4.6150    0.0000 </r>
      </set>
      <set comment="kpoint 26">
       <r>  -19.5480    1.0000 </r>
       <r>  -12.3034    1.0000 </r>
       <r>   -9.1722    1.0000 </r>
       <r>   -7.1987    1.0000 </r>
       <r>    2.0801    0.0000 </r>
       <r>    4.3112    0.0000 </r>
       <r>    5.1595    0.0000 </r>
       <r>    5.5862    0.0000 </r>
      </set>
      <set comment="kpoint 27">
       <r>  -18.7792    1.0000 </r>
       <r>  -13.5026    1.0000 </r>
       <r>   -9.4930    1.0000 </r>
       <r>   -6.3784    1.0000 </r>
       <r>    0.8438    0.0000 </r>
       <r>    5.3763    0.0000 </r>
       <r>    5.8592    0.0000 </r>
       <r>    6.2466    0.0000 </r>
      </set>
      <set comment="kpoint 28">
       <r>  -17.9342    1.0000 </r>
       <r>  -14.6459    1.0000 </r>
       <r>   -9.7101    1.0000 </r>
       <r>   -5.5751    1.0000 </r>
       <r>   -0.2534    0.0000 </r>
       <r>    5.7141    0.0000 </r>
       <r>    6.6370    0.0000 </r>
       <r>    7.4607    0.0000 </r>
      </set>
      <set comment="kpoint 29">
       <r>  -17.0959    1.0000 </r>
       <r>  -15.6366    1.0000 </r>
       <r>   -9.8196    1.0000 </r>
       <r>   -4.9929    1.0000 </r>
       <r>   -0.9874    0.0000 </r>
       <r>    5.6663    0.0000 </r>
       <r>    7.9715    0.0000 </r>
       <r>    8.7575    0.0000 </r>
      </set>
      <set comment="kpoint 30">
       <r>  -20.8573    1.0000 </r>
       <r>   -9.6152    1.0000 </r>
       <r>   -8.6872    1.0000 </r>
       <r>   -8.4103    1.0000 </r>
       <r>    2.4965    0.0000 </r>
       <r>    3.3158    0.0000 </r>
       <r>    3.7161    0.0000 </r>
       <r>    4.5998    0.0000 </r>
      </set>
      <set comment="kpoint 31">
       <r>  -20.3304    1.0000 </r>
       <r>  -10.5816    1.0000 </r>
       <r>   -9.0869    1.0000 </r>
       <r>   -8.0762    1.0000 </r>
       <r>    3.2254    0.0000 </r>
       <r>    3.6484    0.0000 </r>
       <r>    4.0531    0.0000 </r>
       <r>    4.4655    0.0000 </r>
      </set>
      <set comment="kpoint 32">
       <r>  -19.7040    1.0000 </r>
       <r>  -11.6733    1.0000 </r>
       <r>   -9.6298    1.0000 </r>
       <r>   -7.3635    1.0000 </r>
       <r>    2.4767    0.0000 </r>
       <r>    4.0970    0.0000 </r>
       <r>    4.9247    0.0000 </r>
       <r>    5.3645    0.0000 </r>
      </set>
      <set comment="kpoint 33">
       <r>  -18.9833    1.0000 </r>
       <r>  -12.8187    1.0000 </r>
       <r>  -10.0409    1.0000 </r>
       <r>   -6.5702    1.0000 </r>
       <r>    1.2864    0.0000 </r>
       <r>    5.1081    0.0000 </r>
       <r>    5.9336    0.0000 </r>
       <r>    6.4115    0.0000 </r>
      </set>
      <set comment="kpoint 34">
       <r>  -18.1780    1.0000 </r>
       <r>  -13.9560    1.0000 </r>
       <r>  -10.3307    1.0000 </r>
       <r>   -5.7424    1.0000 </r>
       <r>    0.1527    0.0000 </r>
       <r>    6.2449    0.0000 </r>
       <r>    6.8202    0.0000 </r>
       <r>    7.0614    0.0000 </r>
      </set>
      <set comment="kpoint 35">
       <r>  -17.3199    1.0000 </r>
       <r>  -15.0234    1.0000 </r>
       <r>  -10.5036    1.0000 </r>
       <r>   -5.0009    1.0000 </r>
       <r>   -0.7818    0.0000 </r>
       <r>    6.7095    0.0000 </r>
       <r>    7.5509    0.0000 </r>
       <r>    8.2512    0.0000 </r>
      </set>
      <set comment="kpoint 36">
       <r>  -16.7123    1.0000 </r>
       <r>  -15.7022    1.0000 </r>
       <r>  -10.5612    1.0000 </r>
       <r>   -4.6580    1.0000 </r>
       <r>   -1.1907    0.0000 </r>
       <r>    6.6872    0.0000 </r>
       <r>    8.8354    0.0000 </r>
       <r>    9.0674    0.0000 </r>
      </set>
      <set comment="kpoint 37">
       <r>  -19.7562    1.0000 </r>
       <r>  -11.3439    1.0000 </r>
       <r>   -9.9091    1.0000 </r>
       <r>   -7.4188    1.0000 </r>
       <r>    2.6255    0.0000 </r>
       <r>    4.0251    0.0000 </r>
       <r>    4.8436    0.0000 </r>
       <r>    5.2899    0.0000 </r>
      </set>
      <set comment="kpoint 38">
       <r>  -19.0860    1.0000 </r>
       <r>  -12.2536    1.0000 </r>
       <r>  -10.5570    1.0000 </r>
       <r>   -6.6683    1.0000 </r>
       <r>    1.5484    0.0000 </r>
       <r>    4.9656    0.0000 </r>
       <r>    5.7711    0.0000 </r>
       <r>    6.2636    0.0000 </r>
      </set>
      <set comment="kpoint 39">
       <r>  -18.3272    1.0000 </r>
       <r>  -13.2793    1.0000 </r>
       <r>  -10.9968    1.0000 </r>
       <r>   -5.8524    1.0000 </r>
       <r>    0.4664    0.0000 </r>
       <r>    6.0420    0.0000 </r>
       <r>    6.8067    0.0000 </r>
       <r>    7.3856    0.0000 </r>
      </set>
      <set comment="kpoint 40">
       <r>  -17.4964    1.0000 </r>
       <r>  -14.3276    1.0000 </r>
       <r>  -11.2681    1.0000 </r>
       <r>   -5.0366    1.0000 </r>
       <r>   -0.5387    0.0000 </r>
       <r>    7.2402    0.0000 </r>
       <r>    7.8655    0.0000 </r>
       <r>    8.0104    0.0000 </r>
      </set>
      <set comment="kpoint 41">
       <r>  -16.6765    1.0000 </r>
       <r>  -15.2664    1.0000 </r>
       <r>  -11.3986    1.0000 </r>
       <r>   -4.4162    1.0000 </r>
       <r>   -1.2578    0.0000 </r>
       <r>    7.9270    0.0000 </r>
       <r>    8.5731    0.0000 </r>
       <r>    8.6152    0.0000 </r>
      </set>
      <set comment="kpoint 42">
       <r>  -18.3773    1.0000 </r>
       <r>  -12.9085    1.0000 </r>
       <r>  -11.3695    1.0000 </r>
       <r>   -5.8905    1.0000 </r>
       <r>    0.5861    0.0000 </r>
       <r>    5.9710    0.0000 </r>
       <r>    6.7176    0.0000 </r>
       <r>    7.3116    0.0000 </r>
      </set>
      <set comment="kpoint 43">
       <r>  -17.5893    1.0000 </r>
       <r>  -13.7227    1.0000 </r>
       <r>  -11.9173    1.0000 </r>
       <r>   -5.0641    1.0000 </r>
       <r>   -0.3756    0.0000 </r>
       <r>    7.1037    0.0000 </r>
       <r>    7.6464    0.0000 </r>
       <r>    8.5074    0.0000 </r>
      </set>
      <set comment="kpoint 44">
       <r>  -16.7543    1.0000 </r>
       <r>  -14.6286    1.0000 </r>
       <r>  -12.2024    1.0000 </r>
       <r>   -4.2818    1.0000 </r>
       <r>   -1.2415    0.0000 </r>
       <r>    8.1981    0.0000 </r>
       <r>    8.3372    0.0000 </r>
       <r>    9.2702    0.0000 </r>
      </set>
      <set comment="kpoint 45">
       <r>  -16.1611    1.0000 </r>
       <r>  -15.2552    1.0000 </r>
       <r>  -12.2896    1.0000 </r>
       <r>   -3.8783    1.0000 </r>
       <r>   -1.6734    0.0000 </r>
       <r>    8.3024    0.0000 </r>
       <r>    9.1902    0.0000 </r>
       <r>    9.5131    0.0000 </r>
      </set>
      <set comment="kpoint 46">
       <r>  -16.7890    1.0000 </r>
       <r>  -14.2492    1.0000 </r>
       <r>  -12.6323    1.0000 </r>
       <r>   -4.2406    1.0000 </r>
       <r>   -1.2227    0.0000 </r>
       <r>    8.0393    0.0000 </r>
       <r>    8.2702    0.0000 </r>
       <r>    9.7731    0.0000 </r>
      </set>
      <set comment="kpoint 47">
       <r>  -15.9975    1.0000 </r>
       <r>  -14.9132    1.0000 </r>
       <r>  -12.9872    1.0000 </r>
       <r>   -3.5028    1.0000 </r>
       <r>   -1.9685    0.0000 </r>
       <r>    8.0196    0.0000 </r>
       <r>    9.4583    0.0000 </r>
       <r>   10.2059    0.0000 </r>
      </set>
      <set comment="kpoint 48">
       <r>  -15.3379    1.0000 </r>
       <r>  -15.3378    1.0000 </r>
       <r>  -13.3289    1.0000 </r>
       <r>   -2.7250    0.5007 </r>
       <r>   -2.7250    0.4993 </r>
       <r>    7.9086    0.0000 </r>
       <r>   10.2180    0.0000 </r>
       <r>   10.2180    0.0000 </r>
      </set>
     </set>
    </set>
   </array>
  </eigenvalues>
  <separator name="orbital magnetization" >
   <v name="MAGDIPOLOUT">      0.00000000      0.00000000      0.00000000</v>
  </separator>
  <dos>
   <i name="efermi">     -2.72502119 </i>
   <total>
    <array>
     <dimension dim="1">gridpoints</dimension>
     <dimension dim="2">spin</dimension>
     <field>energy</field>
     <field>total</field>
     <field>integrated</field>
     <set>
      <set comment="spin 1">
       <r>   -23.9250     0.0000     0.0000 </r>
       <r>   -23.8058     0.0000     0.0000 </r>
       <r>   -23.6865     0.0000     0.0000 </r>
       <r>   -23.5673     0.0000     0.0000 </r>
       <r>   -23.4481     0.0000     0.0000 </r>
       <r>   -23.3288     0.0000     0.0000 </r>
       <r>   -23.2096     0.0000     0.0000 </r>
       <r>   -23.0904     0.0000     0.0000 </r>
       <r>   -22.9712     0.0000     0.0000 </r>
       <r>   -22.8519     0.0000     0.0000 </r>
       <r>   -22.7327     0.0000     0.0000 </r>
       <r>   -22.6135     0.0000     0.0000 </r>
       <r>   -22.4942     0.0000     0.0000 </r>
       <r>   -22.3750     0.0000     0.0000 </r>
       <r>   -22.2558     0.0538     0.0064 </r>
       <r>   -22.1365     0.1291     0.0471 </r>
       <r>   -22.0173     0.2282     0.0862 </r>
       <r>   -21.8981     0.4563     0.1406 </r>
       <r>   -21.7789     0.2282     0.1678 </r>
       <r>   -21.6596     0.0606     0.1750 </r>
       <r>   -21.5404     0.4564     0.2494 </r>
       <r>   -21.4212     0.2278     0.2766 </r>
       <r>   -21.3019     0.0010     0.2768 </r>
       <r>   -21.1827     0.0682     0.3392 </r>
       <r>   -21.0635     0.0000     0.3855 </r>
       <r>   -20.9443     0.2273     0.4126 </r>
       <r>   -20.8250     0.2290     0.4400 </r>
       <r>   -20.7058     0.0000     0.4943 </r>
       <r>   -20.5866     0.4564     0.5488 </r>
       <r>   -20.4673     0.0000     0.5488 </r>
       <r>   -20.3481     0.2310     0.5763 </r>
       <r>   -20.2289     0.1374     0.6468 </r>
       <r>   -20.1096     0.0000     0.6848 </r>
       <r>   -19.9904     0.4564     0.7392 </r>
       <r>   -19.8712     0.0000     0.7392 </r>
       <r>   -19.7520     0.1654     0.7590 </r>
       <r>   -19.6327     0.6847     0.8481 </r>
       <r>   -19.5135     0.4564     0.9025 </r>
       <r>   -19.3943     0.0000     0.9025 </r>
       <r>   -19.2750     0.4469     0.9558 </r>
       <r>   -19.1558     0.0000     0.9569 </r>
       <r>   -19.0366     0.4564     1.0113 </r>
       <r>   -18.9174     0.6782     1.0922 </r>
       <r>   -18.7981     0.0017     1.0932 </r>
       <r>   -18.6789     0.0000     1.1474 </r>
       <r>   -18.5597     0.0000     1.1474 </r>
       <r>   -18.4404     0.4564     1.2018 </r>
       <r>   -18.3212     0.5943     1.2727 </r>
       <r>   -18.2020     0.0002     1.2835 </r>
       <r>   -18.0827     0.0970     1.3494 </r>
       <r>   -17.9635     0.0000     1.3651 </r>
       <r>   -17.8443     0.0000     1.4195 </r>
       <r>   -17.7251     0.0000     1.4195 </r>
       <r>   -17.6058     0.2738     1.4521 </r>
       <r>   -17.4866     0.4191     1.5783 </r>
       <r>   -17.3674     0.0000     1.5828 </r>
       <r>   -17.2481     0.4682     1.6386 </r>
       <r>   -17.1289     0.0000     1.6644 </r>
       <r>   -17.0097     0.0003     1.7189 </r>
       <r>   -16.8905     0.0000     1.7460 </r>
       <r>   -16.7712     0.2307     1.7735 </r>
       <r>   -16.6520     0.6846     1.9093 </r>
       <r>   -16.5328     0.0000     1.9093 </r>
       <r>   -16.4135     0.0000     1.9093 </r>
       <r>   -16.2943     0.0000     1.9093 </r>
       <r>   -16.1751     0.0055     1.9100 </r>
       <r>   -16.0558     0.0000     1.9365 </r>
       <r>   -15.9366     0.6847     2.0181 </r>
       <r>   -15.8174     0.0000     2.0181 </r>
       <r>   -15.6982     0.3919     2.0649 </r>
       <r>   -15.5789     0.4564     2.1270 </r>
       <r>   -15.4597     0.0000     2.1270 </r>
       <r>   -15.3405     0.0542     2.1334 </r>
       <r>   -15.2212     1.1411     2.2812 </r>
       <r>   -15.1020     0.0000     2.2812 </r>
       <r>   -14.9828     0.4564     2.3356 </r>
       <r>   -14.8636     0.4564     2.3900 </r>
       <r>   -14.7443     0.2279     2.4172 </r>
       <r>   -14.6251     0.7701     2.5091 </r>
       <r>   -14.5059     0.0000     2.5261 </r>
       <r>   -14.3866     0.0000     2.5261 </r>
       <r>   -14.2674     0.4576     2.5806 </r>
       <r>   -14.1482     0.4543     2.6619 </r>
       <r>   -14.0289     0.0000     2.6621 </r>
       <r>   -13.9097     0.4564     2.7166 </r>
       <r>   -13.7905     0.0000     2.7166 </r>
       <r>   -13.6713     0.4564     2.7710 </r>
       <r>   -13.5520     0.2282     2.7982 </r>
       <r>   -13.4328     0.4564     2.8526 </r>
       <r>   -13.3136     0.0749     2.8615 </r>
       <r>   -13.1943     0.0000     2.9161 </r>
       <r>   -13.0751     0.0000     2.9161 </r>
       <r>   -12.9559     0.9051     3.0240 </r>
       <r>   -12.8367     0.2307     3.0525 </r>
       <r>   -12.7174     0.0000     3.1066 </r>
       <r>   -12.5982     0.2282     3.1338 </r>
       <r>   -12.4790     0.0000     3.1338 </r>
       <r>   -12.3597     0.2195     3.1600 </r>
       <r>   -12.2405     1.1265     3.2953 </r>
       <r>   -12.1213     0.0000     3.3515 </r>
       <r>   -12.0020     0.0000     3.3515 </r>
       <r>   -11.8828     0.4564     3.4059 </r>
       <r>   -11.7636     0.0000     3.4059 </r>
       <r>   -11.6444     0.4564     3.5147 </r>
       <r>   -11.5251     0.0000     3.5147 </r>
       <r>   -11.4059     0.0687     3.5229 </r>
       <r>   -11.2867     0.2302     3.6238 </r>
       <r>   -11.1674     0.0000     3.6780 </r>
       <r>   -11.0482     0.6847     3.7596 </r>
       <r>   -10.9290     0.4564     3.8141 </r>
       <r>   -10.8098     0.0000     3.8141 </r>
       <r>   -10.6905     0.0000     3.8141 </r>
       <r>   -10.5713     0.4512     3.8679 </r>
       <r>   -10.4521     0.9124     4.0589 </r>
       <r>   -10.3328     0.2739     4.0916 </r>
       <r>   -10.2136     0.0063     4.1459 </r>
       <r>   -10.0944     0.2282     4.1995 </r>
       <r>    -9.9751     0.4564     4.2540 </r>
       <r>    -9.8559     0.6978     4.3916 </r>
       <r>    -9.7367     0.2283     4.4989 </r>
       <r>    -9.6175     0.7252     4.6397 </r>
       <r>    -9.4982     0.5617     4.7291 </r>
       <r>    -9.3790     0.0509     4.7770 </r>
       <r>    -9.2598     0.6954     4.8811 </r>
       <r>    -9.1405     1.0368     5.0579 </r>
       <r>    -9.0213     1.1340     5.2599 </r>
       <r>    -8.9021     0.0000     5.2608 </r>
       <r>    -8.7829     1.3660     5.4236 </r>
       <r>    -8.6636     0.2281     5.5057 </r>
       <r>    -8.5444     0.0000     5.5873 </r>
       <r>    -8.4252     0.9151     5.7236 </r>
       <r>    -8.3059     0.0000     5.7506 </r>
       <r>    -8.1867     0.4564     5.8050 </r>
       <r>    -8.0675     1.4367     5.9763 </r>
       <r>    -7.9482     0.4255     6.0734 </r>
       <r>    -7.8290     0.2282     6.1043 </r>
       <r>    -7.7098     0.4507     6.1580 </r>
       <r>    -7.5906     0.2282     6.2404 </r>
       <r>    -7.4713     0.2282     6.3220 </r>
       <r>    -7.3521     0.8885     6.4279 </r>
       <r>    -7.2329     0.0000     6.4308 </r>
       <r>    -7.1136     0.4957     6.5444 </r>
       <r>    -6.9944     0.6847     6.6485 </r>
       <r>    -6.8752     0.4564     6.7029 </r>
       <r>    -6.7560     0.0000     6.7029 </r>
       <r>    -6.6367     0.6201     6.7769 </r>
       <r>    -6.5175     1.2549     6.9342 </r>
       <r>    -6.3983     0.0017     6.9480 </r>
       <r>    -6.2790     0.0000     7.0295 </r>
       <r>    -6.1598     0.2282     7.0567 </r>
       <r>    -6.0406     0.6847     7.1383 </r>
       <r>    -5.9213     0.2282     7.1655 </r>
       <r>    -5.8021     0.6847     7.2744 </r>
       <r>    -5.6829     0.7607     7.3651 </r>
       <r>    -5.5637     0.4325     7.4166 </r>
       <r>    -5.4444     0.0000     7.4195 </r>
       <r>    -5.3252     0.4564     7.4739 </r>
       <r>    -5.2060     0.0009     7.4740 </r>
       <r>    -5.0867     0.0003     7.5012 </r>
       <r>    -4.9675     1.3693     7.7460 </r>
       <r>    -4.8483     0.0000     7.7460 </r>
       <r>    -4.7291     0.0000     7.7460 </r>
       <r>    -4.6098     0.2282     7.7732 </r>
       <r>    -4.4906     0.0000     7.7732 </r>
       <r>    -4.3714     0.4564     7.8277 </r>
       <r>    -4.2521     0.4681     7.8835 </r>
       <r>    -4.1329     0.0000     7.9093 </r>
       <r>    -4.0137     0.0000     7.9093 </r>
       <r>    -3.8944     0.0025     7.9096 </r>
       <r>    -3.7752     0.0000     7.9365 </r>
       <r>    -3.6560     0.0000     7.9365 </r>
       <r>    -3.5368     0.0000     7.9365 </r>
       <r>    -3.4175     0.0000     7.9909 </r>
       <r>    -3.2983     0.0000     7.9909 </r>
       <r>    -3.1791     0.0000     7.9909 </r>
       <r>    -3.0598     0.0000     7.9909 </r>
       <r>    -2.9406     0.0000     7.9909 </r>
       <r>    -2.8214     0.0000     7.9909 </r>
       <r>    -2.7022     0.1521     8.0091 </r>
       <r>    -2.5829     0.0000     8.0091 </r>
       <r>    -2.4637     0.0000     8.0091 </r>
       <r>    -2.3445     0.0000     8.0091 </r>
       <r>    -2.2252     0.0000     8.0091 </r>
       <r>    -2.1060     0.0000     8.0091 </r>
       <r>    -1.9868     0.0022     8.0093 </r>
       <r>    -1.8675     0.0000     8.0635 </r>
       <r>    -1.7483     0.0000     8.0635 </r>
       <r>    -1.6291     0.2282     8.0907 </r>
       <r>    -1.5099     0.0000     8.0907 </r>
       <r>    -1.3906     0.0000     8.0907 </r>
       <r>    -1.2714     0.0123     8.0922 </r>
       <r>    -1.1522     0.4564     8.2540 </r>
       <r>    -1.0329     0.2279     8.2811 </r>
       <r>    -0.9137     0.6842     8.3628 </r>
       <r>    -0.7945     0.0165     8.3648 </r>
       <r>    -0.6753     0.0000     8.4172 </r>
       <r>    -0.5560     0.0032     8.4720 </r>
       <r>    -0.4368     0.0000     8.5261 </r>
       <r>    -0.3176     0.4564     8.5805 </r>
       <r>    -0.1983     0.5176     8.6422 </r>
       <r>    -0.0791     0.0000     8.6621 </r>
       <r>     0.0401     0.0000     8.6621 </r>
       <r>     0.1594     0.3769     8.7071 </r>
       <r>     0.2786     0.0000     8.7166 </r>
       <r>     0.3978     0.4564     8.7710 </r>
       <r>     0.5170     0.4636     8.8263 </r>
       <r>     0.6363     0.4564     8.8844 </r>
       <r>     0.7555     0.2205     8.9106 </r>
       <r>     0.8747     0.6847     8.9932 </r>
       <r>     0.9940     0.2282     9.0204 </r>
       <r>     1.1132     0.4564     9.0748 </r>
       <r>     1.2324     0.2282     9.1020 </r>
       <r>     1.3516     0.4945     9.1610 </r>
       <r>     1.4709     0.6177     9.2346 </r>
       <r>     1.5901     1.1411     9.4059 </r>
       <r>     1.7093     0.2640     9.4646 </r>
       <r>     1.8286     0.2393     9.4934 </r>
       <r>     1.9478     0.6847     9.6281 </r>
       <r>     2.0670     0.8855     9.7337 </r>
       <r>     2.1863     0.0001     9.7914 </r>
       <r>     2.3055     0.4553     9.9545 </r>
       <r>     2.4247     0.4564    10.0091 </r>
       <r>     2.5439     0.9130    10.1179 </r>
       <r>     2.6632     0.6503    10.2499 </r>
       <r>     2.7824     0.5892    10.3832 </r>
       <r>     2.9016     1.5196    10.6029 </r>
       <r>     3.0209     0.0000    10.6122 </r>
       <r>     3.1401     0.9372    10.7240 </r>
       <r>     3.2593     0.5565    10.8419 </r>
       <r>     3.3785     1.1670    11.0507 </r>
       <r>     3.4978     0.2648    11.1336 </r>
       <r>     3.6170     1.1411    11.2925 </r>
       <r>     3.7362     0.6842    11.4285 </r>
       <r>     3.8555     0.6847    11.5102 </r>
       <r>     3.9747     0.0000    11.5102 </r>
       <r>     4.0939     1.7201    11.7697 </r>
       <r>     4.2131     1.0108    11.9300 </r>
       <r>     4.3324     0.4558    12.0271 </r>
       <r>     4.4516     0.4666    12.0828 </r>
       <r>     4.5708     0.6422    12.2126 </r>
       <r>     4.6901     0.9129    12.3810 </r>
       <r>     4.8093     0.4562    12.4353 </r>
       <r>     4.9285     1.0027    12.5821 </r>
       <r>     5.0478     0.6887    12.7624 </r>
       <r>     5.1670     0.8471    12.9445 </r>
       <r>     5.2862     0.7539    13.0423 </r>
       <r>     5.4054     0.9129    13.1701 </r>
       <r>     5.5247     0.0186    13.1723 </r>
       <r>     5.6439     0.4568    13.2790 </r>
       <r>     5.7631     0.5161    13.3949 </r>
       <r>     5.8824     0.9126    13.5510 </r>
       <r>     6.0016     0.6847    13.6327 </r>
       <r>     6.1208     0.6847    13.7143 </r>
       <r>     6.2400     0.1925    13.7372 </r>
       <r>     6.3593     0.0000    13.8776 </r>
       <r>     6.4785     0.6847    13.9592 </r>
       <r>     6.5977     0.0000    13.9592 </r>
       <r>     6.7170     1.6341    14.1540 </r>
       <r>     6.8362     0.9074    14.2851 </r>
       <r>     6.9554     0.0000    14.2857 </r>
       <r>     7.0747     0.4428    14.3385 </r>
       <r>     7.1939     0.4564    14.4490 </r>
       <r>     7.3131     0.8175    14.5464 </r>
       <r>     7.4323     0.4565    14.6122 </r>
       <r>     7.5516     0.2446    14.6958 </r>
       <r>     7.6708     0.4563    14.7755 </r>
       <r>     7.7900     0.2279    14.8027 </r>
       <r>     7.9093     0.5003    14.8624 </r>
       <r>     8.0285     1.7898    15.1340 </r>
       <r>     8.1477     0.0000    15.1655 </r>
       <r>     8.2669     0.9806    15.2825 </r>
       <r>     8.3862     0.4564    15.3832 </r>
       <r>     8.5054     0.4069    15.4317 </r>
       <r>     8.6246     1.0414    15.5890 </r>
       <r>     8.7439     0.0122    15.6296 </r>
       <r>     8.8631     0.2282    15.7097 </r>
       <r>     8.9823     0.0000    15.7098 </r>
       <r>     9.1016     0.2282    15.7370 </r>
       <r>     9.2208     0.2282    15.7642 </r>
       <r>     9.3400     0.4564    15.8186 </r>
       <r>     9.4592     0.2521    15.8487 </r>
       <r>     9.5785     0.2282    15.9002 </r>
       <r>     9.6977     0.0000    15.9002 </r>
       <r>     9.8169     0.2282    15.9274 </r>
       <r>     9.9362     0.0000    15.9274 </r>
       <r>    10.0554     0.0000    15.9274 </r>
       <r>    10.1746     0.0000    15.9274 </r>
       <r>    10.2938     0.1521    16.0000 </r>
       <r>    10.4131     0.0000    16.0000 </r>
       <r>    10.5323     0.0000    16.0000 </r>
       <r>    10.6515     0.0000    16.0000 </r>
       <r>    10.7708     0.0000    16.0000 </r>
       <r>    10.8900     0.0000    16.0000 </r>
       <r>    11.0092     0.0000    16.0000 </r>
       <r>    11.1285     0.0000    16.0000 </r>
       <r>    11.2477     0.0000    16.0000 </r>
       <r>    11.3669     0.0000    16.0000 </r>
       <r>    11.4861     0.0000    16.0000 </r>
       <r>    11.6054     0.0000    16.0000 </r>
       <r>    11.7246     0.0000    16.0000 </r>
       <r>    11.8438     0.0000    16.0000 </r>
      </set>
     </set>
    </array>
   </total>
  </dos>
 </calculation>
 <structure name="finalpos" >
  <crystal>
   <varray name="basis" >
    <v>       2.13000000      -1.22975600       0.00000000 </v>
    <v>       2.13000000       1.22975600       0.00000000 </v>
    <v>       0.00000000       0.00000000      20.00000000 </v>
   </varray>
   <i name="volume">    104.77521120 </i>
   <varray name="rec_basis" >
    <v>       0.23474178      -0.40658472       0.00000000 </v>
    <v>       0.23474178       0.40658472       0.00000000 </v>
    <v>       0.00000000       0.00000000       0.05000000 </v>
   </varray>
  </crystal>
  <varray name="positions" >
   <v>       0.00000000       0.00000000       0.00000000 </v>
   <v>       0.33333300       0.33333300       0.00000000 </v>
  </varray>
  <varray name="velocities" >
   <v>       0.00000000       0.00000000       0.00000000 </v>
   <v>       0.00000000       0.00000000       0.00000000 </v>
  </varray>
 </structure>
</modeling>
