  18  18   0   0
  0.5238761E+02  0.7378536E-09  0.7378536E-09  0.2000000E-08  0.5000000E-15
  1.000000000000000E-004
  CAR 
 C:graphene-relax-phonon                 
      5.01711021    -24.86671315  301     -2.74634072      1.00000000
    -24.867  0.0000E+00  0.0000E+00
    -24.767  0.0000E+00  0.0000E+00
    -24.667  0.0000E+00  0.0000E+00
    -24.568  0.0000E+00  0.0000E+00
    -24.468  0.0000E+00  0.0000E+00
    -24.369  0.0000E+00  0.0000E+00
    -24.269  0.0000E+00  0.0000E+00
    -24.169  0.0000E+00  0.0000E+00
    -24.070  0.0000E+00  0.0000E+00
    -23.970  0.0000E+00  0.0000E+00
    -23.871  0.0000E+00  0.0000E+00
    -23.771  0.0000E+00  0.0000E+00
    -23.671  0.0000E+00  0.0000E+00
    -23.572  0.0000E+00  0.0000E+00
    -23.472  0.9231E+00  0.9195E-01
    -23.373  0.2299E+01  0.3697E+00
    -23.273  0.2318E+01  0.6165E+00
    -23.173  0.2133E+01  0.8972E+00
    -23.074  0.2449E+01  0.1147E+01
    -22.974  0.2668E+01  0.1413E+01
    -22.874  0.2463E+01  0.1665E+01
    -22.775  0.2242E+01  0.1942E+01
    -22.675  0.2577E+01  0.2220E+01
    -22.576  0.2143E+01  0.2476E+01
    -22.476  0.1630E+01  0.2697E+01
    -22.376  0.2864E+01  0.2984E+01
    -22.277  0.2168E+01  0.3268E+01
    -22.177  0.1453E+01  0.3487E+01
    -22.078  0.3381E+01  0.3825E+01
    -21.978  0.2082E+01  0.4049E+01
    -21.878  0.1908E+01  0.4331E+01
    -21.779  0.2817E+01  0.4612E+01
    -21.679  0.1904E+01  0.4847E+01
    -21.579  0.2988E+01  0.5146E+01
    -21.480  0.1626E+01  0.5364E+01
    -21.380  0.2866E+01  0.5678E+01
    -21.281  0.1205E+01  0.5839E+01
    -21.181  0.2913E+01  0.6209E+01
    -21.081  0.1639E+01  0.6426E+01
    -20.982  0.3268E+01  0.6752E+01
    -20.882  0.1175E+01  0.6952E+01
    -20.783  0.2546E+01  0.7306E+01
    -20.683  0.1574E+01  0.7535E+01
    -20.583  0.3006E+01  0.7841E+01
    -20.484  0.2448E+01  0.8112E+01
    -20.384  0.2105E+01  0.8323E+01
    -20.285  0.1851E+01  0.8652E+01
    -20.185  0.1797E+01  0.8864E+01
    -20.085  0.3045E+01  0.9233E+01
    -19.986  0.1196E+01  0.9430E+01
    -19.886  0.2746E+01  0.9775E+01
    -19.786  0.2708E+01  0.1007E+02
    -19.687  0.1870E+01  0.1026E+02
    -19.587  0.3011E+01  0.1062E+02
    -19.488  0.2324E+01  0.1088E+02
    -19.388  0.2201E+01  0.1114E+02
    -19.288  0.2184E+01  0.1146E+02
    -19.189  0.2622E+01  0.1172E+02
    -19.089  0.3033E+01  0.1203E+02
    -18.990  0.2185E+01  0.1230E+02
    -18.890  0.2606E+01  0.1257E+02
    -18.790  0.3322E+01  0.1291E+02
    -18.691  0.1642E+01  0.1317E+02
    -18.591  0.2625E+01  0.1347E+02
    -18.491  0.2776E+01  0.1383E+02
    -18.392  0.1646E+01  0.1407E+02
    -18.292  0.3288E+01  0.1445E+02
    -18.193  0.3290E+01  0.1481E+02
    -18.093  0.2654E+01  0.1515E+02
    -17.993  0.4585E+01  0.1567E+02
    -17.894  0.2446E+01  0.1603E+02
    -17.794  0.2428E+01  0.1627E+02
    -17.695  0.2489E+01  0.1652E+02
    -17.595  0.2185E+01  0.1677E+02
    -17.495  0.2879E+00  0.1680E+02
    -17.396  0.3278E+01  0.1717E+02
    -17.296  0.2733E+00  0.1720E+02
    -17.197  0.1885E+01  0.1739E+02
    -17.097  0.2732E+00  0.1753E+02
    -16.997  0.5463E+00  0.1758E+02
    -16.898  0.1639E+01  0.1775E+02
    -16.798  0.4356E+00  0.1779E+02
    -16.698  0.2557E+01  0.1806E+02
    -16.599  0.2018E+01  0.1836E+02
    -16.499  0.2631E+01  0.1866E+02
    -16.400  0.2859E+01  0.1896E+02
    -16.300  0.1369E+01  0.1913E+02
    -16.200  0.3730E+01  0.1953E+02
    -16.101  0.2664E+01  0.1980E+02
    -16.001  0.3413E+01  0.2020E+02
    -15.902  0.4084E+01  0.2068E+02
    -15.802  0.2795E+01  0.2104E+02
    -15.702  0.3328E+01  0.2144E+02
    -15.603  0.1818E+01  0.2165E+02
    -15.503  0.3327E+01  0.2204E+02
    -15.404  0.2600E+01  0.2232E+02
    -15.304  0.3273E+01  0.2266E+02
    -15.204  0.2358E+01  0.2292E+02
    -15.105  0.3452E+01  0.2328E+02
    -15.005  0.1286E+01  0.2344E+02
    -14.905  0.2015E+01  0.2371E+02
    -14.806  0.1611E+01  0.2402E+02
    -14.706  0.2546E+01  0.2428E+02
    -14.607  0.1366E+01  0.2451E+02
    -14.507  0.2734E+01  0.2478E+02
    -14.407  0.1899E+01  0.2502E+02
    -14.308  0.2080E+01  0.2526E+02
    -14.208  0.1706E+01  0.2547E+02
    -14.109  0.1931E+01  0.2571E+02
    -14.009  0.2020E+01  0.2597E+02
    -13.909  0.1823E+01  0.2616E+02
    -13.810  0.2732E+01  0.2645E+02
    -13.710  0.2855E+01  0.2674E+02
    -13.610  0.2315E+01  0.2704E+02
    -13.511  0.1899E+01  0.2732E+02
    -13.411  0.2653E+01  0.2767E+02
    -13.312  0.3207E+01  0.2802E+02
    -13.212  0.2199E+01  0.2825E+02
    -13.112  0.3691E+01  0.2868E+02
    -13.013  0.1931E+01  0.2888E+02
    -12.913  0.1912E+01  0.2920E+02
    -12.814  0.3607E+01  0.2956E+02
    -12.714  0.2833E+01  0.2992E+02
    -12.614  0.1279E+01  0.3009E+02
    -12.515  0.3907E+01  0.3062E+02
    -12.415  0.1196E+01  0.3074E+02
    -12.316  0.3314E+01  0.3122E+02
    -12.216  0.1572E+01  0.3145E+02
    -12.116  0.4629E+01  0.3195E+02
    -12.017  0.1818E+01  0.3213E+02
    -11.917  0.4945E+01  0.3263E+02
    -11.817  0.2405E+01  0.3290E+02
    -11.718  0.3939E+01  0.3332E+02
    -11.618  0.2756E+01  0.3361E+02
    -11.519  0.3189E+01  0.3395E+02
    -11.419  0.1306E+01  0.3426E+02
    -11.319  0.3177E+01  0.3466E+02
    -11.220  0.2489E+01  0.3504E+02
    -11.120  0.1833E+01  0.3532E+02
    -11.021  0.4916E+01  0.3587E+02
    -10.921  0.2783E+01  0.3615E+02
    -10.821  0.5551E+01  0.3672E+02
    -10.722  0.4911E+01  0.3729E+02
    -10.622  0.5552E+01  0.3793E+02
    -10.522  0.5822E+01  0.3859E+02
    -10.423  0.5615E+01  0.3924E+02
    -10.323  0.5213E+01  0.3989E+02
    -10.224  0.5914E+01  0.4060E+02
    -10.124  0.5564E+01  0.4129E+02
    -10.024  0.5130E+01  0.4196E+02
     -9.925  0.6885E+01  0.4276E+02
     -9.825  0.6198E+01  0.4351E+02
     -9.726  0.6839E+01  0.4441E+02
     -9.626  0.8114E+01  0.4538E+02
     -9.526  0.8199E+01  0.4643E+02
     -9.427  0.4362E+01  0.4716E+02
     -9.327  0.7701E+01  0.4804E+02
     -9.228  0.5947E+01  0.4871E+02
     -9.128  0.5225E+01  0.4937E+02
     -9.028  0.6744E+01  0.5011E+02
     -8.929  0.6625E+01  0.5085E+02
     -8.829  0.4712E+01  0.5134E+02
     -8.729  0.4182E+01  0.5190E+02
     -8.630  0.4458E+01  0.5256E+02
     -8.530  0.4927E+01  0.5317E+02
     -8.431  0.3904E+01  0.5366E+02
     -8.331  0.6669E+01  0.5444E+02
     -8.231  0.2619E+01  0.5474E+02
     -8.132  0.5934E+01  0.5543E+02
     -8.032  0.4013E+01  0.5592E+02
     -7.933  0.4007E+01  0.5646E+02
     -7.833  0.4051E+01  0.5697E+02
     -7.733  0.2828E+01  0.5745E+02
     -7.634  0.6035E+01  0.5813E+02
     -7.534  0.2161E+01  0.5846E+02
     -7.434  0.6289E+01  0.5912E+02
     -7.335  0.3238E+01  0.5949E+02
     -7.235  0.4782E+01  0.6003E+02
     -7.136  0.4086E+01  0.6047E+02
     -7.036  0.4570E+01  0.6099E+02
     -6.936  0.2959E+01  0.6139E+02
     -6.837  0.3136E+01  0.6187E+02
     -6.737  0.3412E+01  0.6242E+02
     -6.638  0.3923E+01  0.6288E+02
     -6.538  0.2182E+01  0.6333E+02
     -6.438  0.3199E+01  0.6378E+02
     -6.339  0.4299E+01  0.6427E+02
     -6.239  0.2864E+01  0.6478E+02
     -6.140  0.2867E+01  0.6516E+02
     -6.040  0.4085E+01  0.6557E+02
     -5.940  0.2307E+01  0.6585E+02
     -5.841  0.1424E+01  0.6601E+02
     -5.741  0.3615E+01  0.6645E+02
     -5.641  0.2372E+01  0.6672E+02
     -5.542  0.1839E+01  0.6699E+02
     -5.442  0.3776E+01  0.6748E+02
     -5.343  0.2326E+01  0.6787E+02
     -5.243  0.3902E+01  0.6833E+02
     -5.143  0.5827E+01  0.6904E+02
     -5.044  0.6518E+00  0.6914E+02
     -4.944  0.3224E+01  0.6951E+02
     -4.845  0.8578E+00  0.6982E+02
     -4.745  0.1216E+01  0.6996E+02
     -4.645  0.3575E+01  0.7033E+02
     -4.546  0.1050E+01  0.7046E+02
     -4.446  0.9868E+00  0.7059E+02
     -4.346  0.2096E+01  0.7087E+02
     -4.247  0.7380E+00  0.7098E+02
     -4.147  0.9606E+00  0.7108E+02
     -4.048  0.1368E+01  0.7126E+02
     -3.948  0.4560E+00  0.7134E+02
     -3.848  0.7104E+00  0.7143E+02
     -3.749  0.1366E+01  0.7158E+02
     -3.649  0.5462E+00  0.7164E+02
     -3.550  0.8192E+00  0.7172E+02
     -3.450  0.5473E+00  0.7177E+02
     -3.350  0.3639E+00  0.7183E+02
     -3.251  0.6120E+00  0.7189E+02
     -3.151  0.2732E+00  0.7194E+02
     -3.052  0.6480E-05  0.7194E+02
     -2.952  0.5463E+00  0.7199E+02
     -2.852  0.0000E+00  0.7199E+02
     -2.753  0.4011E-01  0.7199E+02
     -2.653  0.0000E+00  0.7201E+02
     -2.553  0.0000E+00  0.7201E+02
     -2.454  0.5451E+00  0.7206E+02
     -2.354  0.1053E-11  0.7206E+02
     -2.255  0.3819E+00  0.7210E+02
     -2.155  0.5463E+00  0.7217E+02
     -2.055  0.5463E+00  0.7223E+02
     -1.956  0.5592E+00  0.7228E+02
     -1.856  0.6722E+00  0.7240E+02
     -1.757  0.1997E+00  0.7244E+02
     -1.657  0.1366E+01  0.7261E+02
     -1.557  0.1334E+01  0.7274E+02
     -1.458  0.5474E+00  0.7280E+02
     -1.358  0.2839E+01  0.7310E+02
     -1.258  0.5466E+00  0.7321E+02
     -1.159  0.3457E+01  0.7355E+02
     -1.059  0.1412E+01  0.7384E+02
     -0.960  0.4606E+01  0.7437E+02
     -0.860  0.4673E+01  0.7498E+02
     -0.760  0.2600E+01  0.7545E+02
     -0.661  0.3129E+01  0.7578E+02
     -0.561  0.2622E+01  0.7608E+02
     -0.462  0.1926E+01  0.7639E+02
     -0.362  0.2464E+01  0.7669E+02
     -0.262  0.2220E+01  0.7696E+02
     -0.163  0.2514E+01  0.7728E+02
     -0.063  0.2273E+01  0.7751E+02
      0.036  0.1048E+01  0.7769E+02
      0.136  0.3549E+01  0.7805E+02
      0.236  0.1238E+01  0.7817E+02
      0.335  0.2456E+01  0.7846E+02
      0.435  0.1776E+01  0.7863E+02
      0.535  0.1639E+01  0.7889E+02
      0.634  0.1347E+01  0.7903E+02
      0.734  0.2791E+01  0.7934E+02
      0.833  0.2957E+01  0.7965E+02
      0.933  0.3406E+01  0.8005E+02
      1.033  0.2443E+01  0.8037E+02
      1.132  0.4306E+01  0.8089E+02
      1.232  0.2358E+01  0.8120E+02
      1.331  0.2527E+01  0.8154E+02
      1.431  0.3608E+01  0.8200E+02
      1.531  0.3595E+01  0.8239E+02
      1.630  0.3667E+01  0.8286E+02
      1.730  0.5247E+01  0.8340E+02
      1.830  0.7168E+01  0.8422E+02
      1.929  0.5781E+01  0.8487E+02
      2.029  0.6358E+01  0.8564E+02
      2.128  0.5831E+01  0.8639E+02
      2.228  0.7937E+01  0.8721E+02
      2.328  0.6763E+01  0.8796E+02
      2.427  0.6500E+01  0.8870E+02
      2.527  0.6201E+01  0.8938E+02
      2.626  0.6218E+01  0.9020E+02
      2.726  0.5615E+01  0.9092E+02
      2.826  0.7693E+01  0.9181E+02
      2.925  0.6232E+01  0.9262E+02
      3.025  0.7621E+01  0.9349E+02
      3.124  0.5551E+01  0.9410E+02
      3.224  0.6067E+01  0.9481E+02
      3.324  0.5015E+01  0.9552E+02
      3.423  0.2291E+01  0.9580E+02
      3.523  0.1434E+01  0.9597E+02
      3.623  0.2495E-03  0.9597E+02
      3.722  0.2729E+00  0.9600E+02
      3.822  0.0000E+00  0.9600E+02
      3.921  0.0000E+00  0.9600E+02
      4.021  0.0000E+00  0.9600E+02
      4.121  0.0000E+00  0.9600E+02
      4.220  0.0000E+00  0.9600E+02
      4.320  0.0000E+00  0.9600E+02
      4.419  0.0000E+00  0.9600E+02
      4.519  0.0000E+00  0.9600E+02
      4.619  0.0000E+00  0.9600E+02
      4.718  0.0000E+00  0.9600E+02
      4.818  0.0000E+00  0.9600E+02
      4.917  0.0000E+00  0.9600E+02
      5.017  0.0000E+00  0.9600E+02
