18   
1    

1    
  0.0029975141742964  -0.0017306155121718   0.0093818909993627
  -0.1897885200    0.1084494100   -0.1379847500
   0.0233788000   -0.0148572800   -0.0035003600
   0.0106174700    0.0024859700   -0.0033237200
   0.0156352400    0.0175726300   -0.0034289400
   0.0082186900   -0.0047645500    0.0021113500
  -0.0137968700   -0.0027782300   -0.0033940100
  -0.0054508800    0.0003726900   -0.0033399200
  -0.0095117900   -0.0150568300   -0.0034825400
   0.0082347200   -0.0047730000    0.0021144100
   0.0739645300   -0.0205950400    0.0570695900
   0.0059922500    0.0097638500   -0.0091322500
   0.0527144400   -0.0497709500    0.0578264600
   0.0029594900   -0.0047963800   -0.0091126000
  -0.0172439400   -0.0001422100   -0.0091543500
   0.0025654600   -0.0127405200    0.0030917200
   0.0351538000   -0.0218418000    0.0574548300
  -0.0052129500    0.0177189400    0.0030851000
   0.0015700600   -0.0042467100    0.0030999900