<?xml version="1.0" encoding="ISO-8859-1"?>
<modeling>
 <generator>
  <i name="program" type="string">vasp </i>
  <i name="version" type="string">5.4.4.18Apr17-6-g9f103f2a35  </i>
  <i name="subversion" type="string">(build May 31 2018 21:15:54) complex            parallel </i>
  <i name="platform" type="string">c7_intel_O1 </i>
  <i name="date" type="string">2020 07 25 </i>
  <i name="time" type="string">22:37:52 </i>
 </generator>
 <incar>
  <i type="string" name="SYSTEM"> C:graphene-relax-phonon</i>
  <i type="int" name="ISTART">     0</i>
  <i type="string" name="PREC">accurate</i>
  <i type="string" name="ALGO"> N</i>
  <i type="logical" name="ADDGRID"> T  </i>
  <i name="AMIN">      0.01000000</i>
  <i type="int" name="NELMIN">     5</i>
  <i type="int" name="IBRION">    -1</i>
  <i name="EDIFF">      0.00000001</i>
  <i name="EDIFFG">     -0.00000001</i>
  <i type="int" name="NSW">     1</i>
  <i type="int" name="ISIF">     3</i>
  <i name="SYMPREC">      0.00010000</i>
  <i name="ENCUT">    800.00000000</i>
  <i type="logical" name="LREAL"> F  </i>
  <i type="int" name="ISMEAR">     0</i>
  <i name="SIGMA">      0.01000000</i>
  <i type="logical" name="LWAVE"> F  </i>
  <i type="logical" name="LCHARG"> F  </i>
  <i type="logical" name="LASPH"> T  </i>
  <v type="int" name="KPOINT_BSE">    -1     0     0     0</v>
  <i type="logical" name="LUSE_VDW"> T  </i>
  <i name="BPARAM">     15.70000000</i>
  <i type="string" name="METAGGA"> SCAN</i>
  <i type="logical" name="LASPH"> T  </i>
 </incar>
 <structure name="primitive_cell" >
  <crystal>
   <varray name="basis" >
    <v>       6.39000000      -3.68926800       0.00000000 </v>
    <v>       6.39000000       3.68926800       0.00000000 </v>
    <v>       0.00000000       0.00000000      20.00000000 </v>
   </varray>
   <i name="volume">    942.97690080 </i>
   <varray name="rec_basis" >
    <v>       0.07824726      -0.13552824       0.00000000 </v>
    <v>       0.07824726       0.13552824       0.00000000 </v>
    <v>       0.00000000       0.00000000       0.05000000 </v>
   </varray>
  </crystal>
  <varray name="positions" >
   <v>       0.00046909       0.00000000       0.00046909 </v>
   <v>       0.11111100       0.11111100       0.00000000 </v>
   <v>       0.11111100      -0.22222233       0.00000000 </v>
   <v>      -0.22222233       0.11111100       0.00000000 </v>
   <v>       0.33333333       0.00000000       0.00000000 </v>
   <v>       0.33333333      -0.33333333       0.00000000 </v>
   <v>       0.00000000       0.33333333       0.00000000 </v>
   <v>      -0.33333333       0.33333333       0.00000000 </v>
   <v>       0.00000000      -0.33333333       0.00000000 </v>
   <v>      -0.33333333       0.00000000       0.00000000 </v>
   <v>       0.44444433      -0.22222233       0.00000000 </v>
   <v>      -0.22222233       0.44444433       0.00000000 </v>
   <v>      -0.22222233      -0.22222233       0.00000000 </v>
   <v>       0.44444433       0.11111100       0.00000000 </v>
   <v>       0.11111100       0.44444433       0.00000000 </v>
   <v>       0.44444433       0.44444433       0.00000000 </v>
   <v>      -0.33333333      -0.33333333       0.00000000 </v>
   <v>       0.33333333       0.33333333       0.00000000 </v>
  </varray>
 </structure>
 <varray name="primitive_index" >
  <v type="int" >        1 </v>
  <v type="int" >       10 </v>
  <v type="int" >       16 </v>
  <v type="int" >       12 </v>
  <v type="int" >        2 </v>
  <v type="int" >        8 </v>
  <v type="int" >        4 </v>
  <v type="int" >        6 </v>
  <v type="int" >        7 </v>
  <v type="int" >        3 </v>
  <v type="int" >       17 </v>
  <v type="int" >       15 </v>
  <v type="int" >       18 </v>
  <v type="int" >       11 </v>
  <v type="int" >       13 </v>
  <v type="int" >       14 </v>
  <v type="int" >        9 </v>
  <v type="int" >        5 </v>
 </varray>
 <kpoints>
  <generation param="Gamma">
   <v type="int" name="divisions">      21       21        1 </v>
   <v name="usershift">      0.00000000       0.00000000       0.00000000 </v>
   <v name="genvec1">      0.04761905      -0.00000000       0.00000000 </v>
   <v name="genvec2">     -0.00000000       0.04761905       0.00000000 </v>
   <v name="genvec3">      0.00000000       0.00000000       1.00000000 </v>
   <v name="shift">      0.00000000       0.00000000       0.00000000 </v>
  </generation>
  <varray name="kpointlist" >
   <v>       0.00000000       0.00000000       0.00000000 </v>
   <v>       0.04761905       0.00000000       0.00000000 </v>
   <v>       0.09523810       0.00000000       0.00000000 </v>
   <v>       0.14285714       0.00000000       0.00000000 </v>
   <v>       0.19047619       0.00000000       0.00000000 </v>
   <v>       0.23809524       0.00000000       0.00000000 </v>
   <v>       0.28571429       0.00000000       0.00000000 </v>
   <v>       0.33333333       0.00000000       0.00000000 </v>
   <v>       0.38095238       0.00000000       0.00000000 </v>
   <v>       0.42857143       0.00000000       0.00000000 </v>
   <v>       0.47619048       0.00000000       0.00000000 </v>
   <v>       0.00000000       0.04761905       0.00000000 </v>
   <v>       0.04761905       0.04761905       0.00000000 </v>
   <v>       0.09523810       0.04761905       0.00000000 </v>
   <v>       0.14285714       0.04761905       0.00000000 </v>
   <v>       0.19047619       0.04761905       0.00000000 </v>
   <v>       0.23809524       0.04761905       0.00000000 </v>
   <v>       0.28571429       0.04761905       0.00000000 </v>
   <v>       0.33333333       0.04761905       0.00000000 </v>
   <v>       0.38095238       0.04761905       0.00000000 </v>
   <v>       0.42857143       0.04761905       0.00000000 </v>
   <v>       0.47619048       0.04761905       0.00000000 </v>
   <v>      -0.47619048       0.04761905       0.00000000 </v>
   <v>      -0.42857143       0.04761905       0.00000000 </v>
   <v>      -0.38095238       0.04761905       0.00000000 </v>
   <v>      -0.33333333       0.04761905       0.00000000 </v>
   <v>      -0.28571429       0.04761905       0.00000000 </v>
   <v>      -0.23809524       0.04761905       0.00000000 </v>
   <v>      -0.19047619       0.04761905       0.00000000 </v>
   <v>      -0.14285714       0.04761905       0.00000000 </v>
   <v>      -0.09523810       0.04761905       0.00000000 </v>
   <v>      -0.04761905       0.04761905       0.00000000 </v>
   <v>       0.00000000       0.09523810       0.00000000 </v>
   <v>       0.04761905       0.09523810       0.00000000 </v>
   <v>       0.09523810       0.09523810       0.00000000 </v>
   <v>       0.14285714       0.09523810       0.00000000 </v>
   <v>       0.19047619       0.09523810       0.00000000 </v>
   <v>       0.23809524       0.09523810       0.00000000 </v>
   <v>       0.28571429       0.09523810       0.00000000 </v>
   <v>       0.33333333       0.09523810       0.00000000 </v>
   <v>       0.38095238       0.09523810       0.00000000 </v>
   <v>       0.42857143       0.09523810       0.00000000 </v>
   <v>       0.47619048       0.09523810       0.00000000 </v>
   <v>      -0.47619048       0.09523810       0.00000000 </v>
   <v>      -0.42857143       0.09523810       0.00000000 </v>
   <v>      -0.38095238       0.09523810       0.00000000 </v>
   <v>      -0.33333333       0.09523810       0.00000000 </v>
   <v>      -0.28571429       0.09523810       0.00000000 </v>
   <v>      -0.23809524       0.09523810       0.00000000 </v>
   <v>      -0.19047619       0.09523810       0.00000000 </v>
   <v>      -0.14285714       0.09523810       0.00000000 </v>
   <v>      -0.09523810       0.09523810       0.00000000 </v>
   <v>      -0.04761905       0.09523810       0.00000000 </v>
   <v>       0.00000000       0.14285714       0.00000000 </v>
   <v>       0.04761905       0.14285714       0.00000000 </v>
   <v>       0.09523810       0.14285714       0.00000000 </v>
   <v>       0.14285714       0.14285714       0.00000000 </v>
   <v>       0.19047619       0.14285714       0.00000000 </v>
   <v>       0.23809524       0.14285714       0.00000000 </v>
   <v>       0.28571429       0.14285714       0.00000000 </v>
   <v>       0.33333333       0.14285714       0.00000000 </v>
   <v>       0.38095238       0.14285714       0.00000000 </v>
   <v>       0.42857143       0.14285714       0.00000000 </v>
   <v>       0.47619048       0.14285714       0.00000000 </v>
   <v>      -0.47619048       0.14285714       0.00000000 </v>
   <v>      -0.42857143       0.14285714       0.00000000 </v>
   <v>      -0.38095238       0.14285714       0.00000000 </v>
   <v>      -0.33333333       0.14285714       0.00000000 </v>
   <v>      -0.28571429       0.14285714       0.00000000 </v>
   <v>      -0.23809524       0.14285714       0.00000000 </v>
   <v>      -0.19047619       0.14285714       0.00000000 </v>
   <v>      -0.14285714       0.14285714       0.00000000 </v>
   <v>      -0.09523810       0.14285714       0.00000000 </v>
   <v>      -0.04761905       0.14285714       0.00000000 </v>
   <v>       0.00000000       0.19047619       0.00000000 </v>
   <v>       0.04761905       0.19047619       0.00000000 </v>
   <v>       0.09523810       0.19047619       0.00000000 </v>
   <v>       0.14285714       0.19047619       0.00000000 </v>
   <v>       0.19047619       0.19047619       0.00000000 </v>
   <v>       0.23809524       0.19047619       0.00000000 </v>
   <v>       0.28571429       0.19047619       0.00000000 </v>
   <v>       0.33333333       0.19047619       0.00000000 </v>
   <v>       0.38095238       0.19047619       0.00000000 </v>
   <v>       0.42857143       0.19047619       0.00000000 </v>
   <v>       0.47619048       0.19047619       0.00000000 </v>
   <v>      -0.47619048       0.19047619       0.00000000 </v>
   <v>      -0.42857143       0.19047619       0.00000000 </v>
   <v>      -0.38095238       0.19047619       0.00000000 </v>
   <v>      -0.33333333       0.19047619       0.00000000 </v>
   <v>      -0.28571429       0.19047619       0.00000000 </v>
   <v>      -0.23809524       0.19047619       0.00000000 </v>
   <v>      -0.19047619       0.19047619       0.00000000 </v>
   <v>      -0.14285714       0.19047619       0.00000000 </v>
   <v>      -0.09523810       0.19047619       0.00000000 </v>
   <v>      -0.04761905       0.19047619       0.00000000 </v>
   <v>       0.00000000       0.23809524       0.00000000 </v>
   <v>       0.04761905       0.23809524       0.00000000 </v>
   <v>       0.09523810       0.23809524       0.00000000 </v>
   <v>       0.14285714       0.23809524       0.00000000 </v>
   <v>       0.19047619       0.23809524       0.00000000 </v>
   <v>       0.23809524       0.23809524       0.00000000 </v>
   <v>       0.28571429       0.23809524       0.00000000 </v>
   <v>       0.33333333       0.23809524       0.00000000 </v>
   <v>       0.38095238       0.23809524       0.00000000 </v>
   <v>       0.42857143       0.23809524       0.00000000 </v>
   <v>       0.47619048       0.23809524       0.00000000 </v>
   <v>      -0.47619048       0.23809524       0.00000000 </v>
   <v>      -0.42857143       0.23809524       0.00000000 </v>
   <v>      -0.38095238       0.23809524       0.00000000 </v>
   <v>      -0.33333333       0.23809524       0.00000000 </v>
   <v>      -0.28571429       0.23809524       0.00000000 </v>
   <v>      -0.23809524       0.23809524       0.00000000 </v>
   <v>      -0.19047619       0.23809524       0.00000000 </v>
   <v>      -0.14285714       0.23809524       0.00000000 </v>
   <v>      -0.09523810       0.23809524       0.00000000 </v>
   <v>      -0.04761905       0.23809524       0.00000000 </v>
   <v>       0.00000000       0.28571429       0.00000000 </v>
   <v>       0.04761905       0.28571429       0.00000000 </v>
   <v>       0.09523810       0.28571429       0.00000000 </v>
   <v>       0.14285714       0.28571429       0.00000000 </v>
   <v>       0.19047619       0.28571429       0.00000000 </v>
   <v>       0.23809524       0.28571429       0.00000000 </v>
   <v>       0.28571429       0.28571429       0.00000000 </v>
   <v>       0.33333333       0.28571429       0.00000000 </v>
   <v>       0.38095238       0.28571429       0.00000000 </v>
   <v>       0.42857143       0.28571429       0.00000000 </v>
   <v>       0.47619048       0.28571429       0.00000000 </v>
   <v>      -0.47619048       0.28571429       0.00000000 </v>
   <v>      -0.42857143       0.28571429       0.00000000 </v>
   <v>      -0.38095238       0.28571429       0.00000000 </v>
   <v>      -0.33333333       0.28571429       0.00000000 </v>
   <v>      -0.28571429       0.28571429       0.00000000 </v>
   <v>      -0.23809524       0.28571429       0.00000000 </v>
   <v>      -0.19047619       0.28571429       0.00000000 </v>
   <v>      -0.14285714       0.28571429       0.00000000 </v>
   <v>      -0.09523810       0.28571429       0.00000000 </v>
   <v>      -0.04761905       0.28571429       0.00000000 </v>
   <v>       0.00000000       0.33333333       0.00000000 </v>
   <v>       0.04761905       0.33333333       0.00000000 </v>
   <v>       0.09523810       0.33333333       0.00000000 </v>
   <v>       0.14285714       0.33333333       0.00000000 </v>
   <v>       0.19047619       0.33333333       0.00000000 </v>
   <v>       0.23809524       0.33333333       0.00000000 </v>
   <v>       0.28571429       0.33333333       0.00000000 </v>
   <v>       0.33333333       0.33333333       0.00000000 </v>
   <v>       0.38095238       0.33333333       0.00000000 </v>
   <v>       0.42857143       0.33333333       0.00000000 </v>
   <v>       0.47619048       0.33333333       0.00000000 </v>
   <v>      -0.47619048       0.33333333       0.00000000 </v>
   <v>      -0.42857143       0.33333333       0.00000000 </v>
   <v>      -0.38095238       0.33333333       0.00000000 </v>
   <v>      -0.33333333       0.33333333       0.00000000 </v>
   <v>      -0.28571429       0.33333333       0.00000000 </v>
   <v>      -0.23809524       0.33333333       0.00000000 </v>
   <v>      -0.19047619       0.33333333       0.00000000 </v>
   <v>      -0.14285714       0.33333333       0.00000000 </v>
   <v>      -0.09523810       0.33333333       0.00000000 </v>
   <v>      -0.04761905       0.33333333       0.00000000 </v>
   <v>       0.00000000       0.38095238       0.00000000 </v>
   <v>       0.04761905       0.38095238       0.00000000 </v>
   <v>       0.09523810       0.38095238       0.00000000 </v>
   <v>       0.14285714       0.38095238       0.00000000 </v>
   <v>       0.19047619       0.38095238       0.00000000 </v>
   <v>       0.23809524       0.38095238       0.00000000 </v>
   <v>       0.28571429       0.38095238       0.00000000 </v>
   <v>       0.33333333       0.38095238       0.00000000 </v>
   <v>       0.38095238       0.38095238       0.00000000 </v>
   <v>       0.42857143       0.38095238       0.00000000 </v>
   <v>       0.47619048       0.38095238       0.00000000 </v>
   <v>      -0.47619048       0.38095238       0.00000000 </v>
   <v>      -0.42857143       0.38095238       0.00000000 </v>
   <v>      -0.38095238       0.38095238       0.00000000 </v>
   <v>      -0.33333333       0.38095238       0.00000000 </v>
   <v>      -0.28571429       0.38095238       0.00000000 </v>
   <v>      -0.23809524       0.38095238       0.00000000 </v>
   <v>      -0.19047619       0.38095238       0.00000000 </v>
   <v>      -0.14285714       0.38095238       0.00000000 </v>
   <v>      -0.09523810       0.38095238       0.00000000 </v>
   <v>      -0.04761905       0.38095238       0.00000000 </v>
   <v>       0.00000000       0.42857143       0.00000000 </v>
   <v>       0.04761905       0.42857143       0.00000000 </v>
   <v>       0.09523810       0.42857143       0.00000000 </v>
   <v>       0.14285714       0.42857143       0.00000000 </v>
   <v>       0.19047619       0.42857143       0.00000000 </v>
   <v>       0.23809524       0.42857143       0.00000000 </v>
   <v>       0.28571429       0.42857143       0.00000000 </v>
   <v>       0.33333333       0.42857143       0.00000000 </v>
   <v>       0.38095238       0.42857143       0.00000000 </v>
   <v>       0.42857143       0.42857143       0.00000000 </v>
   <v>       0.47619048       0.42857143       0.00000000 </v>
   <v>      -0.47619048       0.42857143       0.00000000 </v>
   <v>      -0.42857143       0.42857143       0.00000000 </v>
   <v>      -0.38095238       0.42857143       0.00000000 </v>
   <v>      -0.33333333       0.42857143       0.00000000 </v>
   <v>      -0.28571429       0.42857143       0.00000000 </v>
   <v>      -0.23809524       0.42857143       0.00000000 </v>
   <v>      -0.19047619       0.42857143       0.00000000 </v>
   <v>      -0.14285714       0.42857143       0.00000000 </v>
   <v>      -0.09523810       0.42857143       0.00000000 </v>
   <v>      -0.04761905       0.42857143       0.00000000 </v>
   <v>       0.00000000       0.47619048       0.00000000 </v>
   <v>       0.04761905       0.47619048       0.00000000 </v>
   <v>       0.09523810       0.47619048       0.00000000 </v>
   <v>       0.14285714       0.47619048       0.00000000 </v>
   <v>       0.19047619       0.47619048       0.00000000 </v>
   <v>       0.23809524       0.47619048       0.00000000 </v>
   <v>       0.28571429       0.47619048       0.00000000 </v>
   <v>       0.33333333       0.47619048       0.00000000 </v>
   <v>       0.38095238       0.47619048       0.00000000 </v>
   <v>       0.42857143       0.47619048       0.00000000 </v>
   <v>       0.47619048       0.47619048       0.00000000 </v>
   <v>      -0.47619048       0.47619048       0.00000000 </v>
   <v>      -0.42857143       0.47619048       0.00000000 </v>
   <v>      -0.38095238       0.47619048       0.00000000 </v>
   <v>      -0.33333333       0.47619048       0.00000000 </v>
   <v>      -0.28571429       0.47619048       0.00000000 </v>
   <v>      -0.23809524       0.47619048       0.00000000 </v>
   <v>      -0.19047619       0.47619048       0.00000000 </v>
   <v>      -0.14285714       0.47619048       0.00000000 </v>
   <v>      -0.09523810       0.47619048       0.00000000 </v>
   <v>      -0.04761905       0.47619048       0.00000000 </v>
  </varray>
  <varray name="weights" >
   <v>       0.00226757 </v>
   <v>       0.00453515 </v>
   <v>       0.00453515 </v>
   <v>       0.00453515 </v>
   <v>       0.00453515 </v>
   <v>       0.00453515 </v>
   <v>       0.00453515 </v>
   <v>       0.00453515 </v>
   <v>       0.00453515 </v>
   <v>       0.00453515 </v>
   <v>       0.00453515 </v>
   <v>       0.00453515 </v>
   <v>       0.00453515 </v>
   <v>       0.00453515 </v>
   <v>       0.00453515 </v>
   <v>       0.00453515 </v>
   <v>       0.00453515 </v>
   <v>       0.00453515 </v>
   <v>       0.00453515 </v>
   <v>       0.00453515 </v>
   <v>       0.00453515 </v>
   <v>       0.00453515 </v>
   <v>       0.00453515 </v>
   <v>       0.00453515 </v>
   <v>       0.00453515 </v>
   <v>       0.00453515 </v>
   <v>       0.00453515 </v>
   <v>       0.00453515 </v>
   <v>       0.00453515 </v>
   <v>       0.00453515 </v>
   <v>       0.00453515 </v>
   <v>       0.00453515 </v>
   <v>       0.00453515 </v>
   <v>       0.00453515 </v>
   <v>       0.00453515 </v>
   <v>       0.00453515 </v>
   <v>       0.00453515 </v>
   <v>       0.00453515 </v>
   <v>       0.00453515 </v>
   <v>       0.00453515 </v>
   <v>       0.00453515 </v>
   <v>       0.00453515 </v>
   <v>       0.00453515 </v>
   <v>       0.00453515 </v>
   <v>       0.00453515 </v>
   <v>       0.00453515 </v>
   <v>       0.00453515 </v>
   <v>       0.00453515 </v>
   <v>       0.00453515 </v>
   <v>       0.00453515 </v>
   <v>       0.00453515 </v>
   <v>       0.00453515 </v>
   <v>       0.00453515 </v>
   <v>       0.00453515 </v>
   <v>       0.00453515 </v>
   <v>       0.00453515 </v>
   <v>       0.00453515 </v>
   <v>       0.00453515 </v>
   <v>       0.00453515 </v>
   <v>       0.00453515 </v>
   <v>       0.00453515 </v>
   <v>       0.00453515 </v>
   <v>       0.00453515 </v>
   <v>       0.00453515 </v>
   <v>       0.00453515 </v>
   <v>       0.00453515 </v>
   <v>       0.00453515 </v>
   <v>       0.00453515 </v>
   <v>       0.00453515 </v>
   <v>       0.00453515 </v>
   <v>       0.00453515 </v>
   <v>       0.00453515 </v>
   <v>       0.00453515 </v>
   <v>       0.00453515 </v>
   <v>       0.00453515 </v>
   <v>       0.00453515 </v>
   <v>       0.00453515 </v>
   <v>       0.00453515 </v>
   <v>       0.00453515 </v>
   <v>       0.00453515 </v>
   <v>       0.00453515 </v>
   <v>       0.00453515 </v>
   <v>       0.00453515 </v>
   <v>       0.00453515 </v>
   <v>       0.00453515 </v>
   <v>       0.00453515 </v>
   <v>       0.00453515 </v>
   <v>       0.00453515 </v>
   <v>       0.00453515 </v>
   <v>       0.00453515 </v>
   <v>       0.00453515 </v>
   <v>       0.00453515 </v>
   <v>       0.00453515 </v>
   <v>       0.00453515 </v>
   <v>       0.00453515 </v>
   <v>       0.00453515 </v>
   <v>       0.00453515 </v>
   <v>       0.00453515 </v>
   <v>       0.00453515 </v>
   <v>       0.00453515 </v>
   <v>       0.00453515 </v>
   <v>       0.00453515 </v>
   <v>       0.00453515 </v>
   <v>       0.00453515 </v>
   <v>       0.00453515 </v>
   <v>       0.00453515 </v>
   <v>       0.00453515 </v>
   <v>       0.00453515 </v>
   <v>       0.00453515 </v>
   <v>       0.00453515 </v>
   <v>       0.00453515 </v>
   <v>       0.00453515 </v>
   <v>       0.00453515 </v>
   <v>       0.00453515 </v>
   <v>       0.00453515 </v>
   <v>       0.00453515 </v>
   <v>       0.00453515 </v>
   <v>       0.00453515 </v>
   <v>       0.00453515 </v>
   <v>       0.00453515 </v>
   <v>       0.00453515 </v>
   <v>       0.00453515 </v>
   <v>       0.00453515 </v>
   <v>       0.00453515 </v>
   <v>       0.00453515 </v>
   <v>       0.00453515 </v>
   <v>       0.00453515 </v>
   <v>       0.00453515 </v>
   <v>       0.00453515 </v>
   <v>       0.00453515 </v>
   <v>       0.00453515 </v>
   <v>       0.00453515 </v>
   <v>       0.00453515 </v>
   <v>       0.00453515 </v>
   <v>       0.00453515 </v>
   <v>       0.00453515 </v>
   <v>       0.00453515 </v>
   <v>       0.00453515 </v>
   <v>       0.00453515 </v>
   <v>       0.00453515 </v>
   <v>       0.00453515 </v>
   <v>       0.00453515 </v>
   <v>       0.00453515 </v>
   <v>       0.00453515 </v>
   <v>       0.00453515 </v>
   <v>       0.00453515 </v>
   <v>       0.00453515 </v>
   <v>       0.00453515 </v>
   <v>       0.00453515 </v>
   <v>       0.00453515 </v>
   <v>       0.00453515 </v>
   <v>       0.00453515 </v>
   <v>       0.00453515 </v>
   <v>       0.00453515 </v>
   <v>       0.00453515 </v>
   <v>       0.00453515 </v>
   <v>       0.00453515 </v>
   <v>       0.00453515 </v>
   <v>       0.00453515 </v>
   <v>       0.00453515 </v>
   <v>       0.00453515 </v>
   <v>       0.00453515 </v>
   <v>       0.00453515 </v>
   <v>       0.00453515 </v>
   <v>       0.00453515 </v>
   <v>       0.00453515 </v>
   <v>       0.00453515 </v>
   <v>       0.00453515 </v>
   <v>       0.00453515 </v>
   <v>       0.00453515 </v>
   <v>       0.00453515 </v>
   <v>       0.00453515 </v>
   <v>       0.00453515 </v>
   <v>       0.00453515 </v>
   <v>       0.00453515 </v>
   <v>       0.00453515 </v>
   <v>       0.00453515 </v>
   <v>       0.00453515 </v>
   <v>       0.00453515 </v>
   <v>       0.00453515 </v>
   <v>       0.00453515 </v>
   <v>       0.00453515 </v>
   <v>       0.00453515 </v>
   <v>       0.00453515 </v>
   <v>       0.00453515 </v>
   <v>       0.00453515 </v>
   <v>       0.00453515 </v>
   <v>       0.00453515 </v>
   <v>       0.00453515 </v>
   <v>       0.00453515 </v>
   <v>       0.00453515 </v>
   <v>       0.00453515 </v>
   <v>       0.00453515 </v>
   <v>       0.00453515 </v>
   <v>       0.00453515 </v>
   <v>       0.00453515 </v>
   <v>       0.00453515 </v>
   <v>       0.00453515 </v>
   <v>       0.00453515 </v>
   <v>       0.00453515 </v>
   <v>       0.00453515 </v>
   <v>       0.00453515 </v>
   <v>       0.00453515 </v>
   <v>       0.00453515 </v>
   <v>       0.00453515 </v>
   <v>       0.00453515 </v>
   <v>       0.00453515 </v>
   <v>       0.00453515 </v>
   <v>       0.00453515 </v>
   <v>       0.00453515 </v>
   <v>       0.00453515 </v>
   <v>       0.00453515 </v>
   <v>       0.00453515 </v>
   <v>       0.00453515 </v>
   <v>       0.00453515 </v>
   <v>       0.00453515 </v>
   <v>       0.00453515 </v>
   <v>       0.00453515 </v>
   <v>       0.00453515 </v>
   <v>       0.00453515 </v>
   <v>       0.00453515 </v>
  </varray>
 </kpoints>
 <parameters>
  <separator name="general" >
   <i type="string" name="SYSTEM">C:graphene-relax-phonon</i>
   <i type="logical" name="LCOMPAT"> F  </i>
  </separator>
  <separator name="electronic" >
   <i type="string" name="PREC">accura</i>
   <i name="ENMAX">    800.00000000</i>
   <i name="ENAUG">    644.87300000</i>
   <i name="EDIFF">      0.00000001</i>
   <i type="int" name="IALGO">    38</i>
   <i type="int" name="IWAVPR">    10</i>
   <i type="int" name="NBANDS">    48</i>
   <i name="NELECT">     72.00000000</i>
   <i type="int" name="TURBO">     0</i>
   <i type="int" name="IRESTART">     0</i>
   <i type="int" name="NREBOOT">     0</i>
   <i type="int" name="NMIN">     0</i>
   <i name="EREF">      0.00000000</i>
   <separator name="electronic smearing" >
    <i type="int" name="ISMEAR">     0</i>
    <i name="SIGMA">      0.01000000</i>
    <i name="KSPACING">      0.50000000</i>
    <i type="logical" name="KGAMMA"> T  </i>
   </separator>
   <separator name="electronic projectors" >
    <i type="logical" name="LREAL"> F  </i>
    <v name="ROPT">      0.00000000</v>
    <i type="int" name="LMAXPAW">  -100</i>
    <i type="int" name="LMAXMIX">     2</i>
    <i type="logical" name="NLSPLINE"> F  </i>
   </separator>
   <separator name="electronic startup" >
    <i type="int" name="ISTART">     0</i>
    <i type="int" name="ICHARG">     2</i>
    <i type="int" name="INIWAV">     1</i>
   </separator>
   <separator name="electronic spin" >
    <i type="int" name="ISPIN">     1</i>
    <i type="logical" name="LNONCOLLINEAR"> F  </i>
    <v name="MAGMOM">      1.00000000      1.00000000      1.00000000      1.00000000      1.00000000      1.00000000      1.00000000      1.00000000      1.00000000      1.00000000      1.00000000      1.00000000      1.00000000      1.00000000      1.00000000      1.00000000      1.00000000      1.00000000</v>
    <i name="NUPDOWN">     -1.00000000</i>
    <i type="logical" name="LSORBIT"> F  </i>
    <v name="SAXIS">      0.00000000      0.00000000      1.00000000</v>
    <i type="logical" name="LSPIRAL"> F  </i>
    <v name="QSPIRAL">      0.00000000      0.00000000      0.00000000</v>
    <i type="logical" name="LZEROZ"> F  </i>
   </separator>
   <separator name="electronic exchange-correlation" >
    <i type="logical" name="LASPH"> T  </i>
    <i type="logical" name="LMETAGGA"> F  </i>
   </separator>
   <separator name="electronic convergence" >
    <i type="int" name="NELM">    60</i>
    <i type="int" name="NELMDL">    -5</i>
    <i type="int" name="NELMIN">     5</i>
    <i name="ENINI">    800.00000000</i>
    <separator name="electronic convergence detail" >
     <i type="logical" name="LDIAG"> T  </i>
     <i type="logical" name="LSUBROT"> F  </i>
     <i name="WEIMIN">      0.00000000</i>
     <i name="EBREAK">      0.00000000</i>
     <i name="DEPER">      0.30000000</i>
     <i type="int" name="NRMM">     4</i>
     <i name="TIME">      0.40000000</i>
    </separator>
   </separator>
   <separator name="electronic mixer" >
    <i name="AMIX">      0.40000000</i>
    <i name="BMIX">      1.00000000</i>
    <i name="AMIN">      0.01000000</i>
    <i name="AMIX_MAG">      1.60000000</i>
    <i name="BMIX_MAG">      1.00000000</i>
    <separator name="electronic mixer details" >
     <i type="int" name="IMIX">     4</i>
     <i type="logical" name="MIXFIRST"> F  </i>
     <i type="int" name="MAXMIX">   -45</i>
     <i name="WC">    100.00000000</i>
     <i type="int" name="INIMIX">     1</i>
     <i type="int" name="MIXPRE">     1</i>
     <i type="int" name="MREMOVE">     5</i>
    </separator>
   </separator>
   <separator name="electronic dipolcorrection" >
    <i type="logical" name="LDIPOL"> F  </i>
    <i type="logical" name="LMONO"> F  </i>
    <i type="int" name="IDIPOL">     0</i>
    <i name="EPSILON">      1.00000000</i>
    <v name="DIPOL">   -100.00000000   -100.00000000   -100.00000000</v>
    <i name="EFIELD">      0.00000000</i>
   </separator>
  </separator>
  <separator name="grids" >
   <i type="int" name="NGX">    70</i>
   <i type="int" name="NGY">    70</i>
   <i type="int" name="NGZ">   192</i>
   <i type="int" name="NGXF">   140</i>
   <i type="int" name="NGYF">   140</i>
   <i type="int" name="NGZF">   384</i>
   <i type="logical" name="ADDGRID"> T  </i>
  </separator>
  <separator name="ionic" >
   <i type="int" name="NSW">     1</i>
   <i type="int" name="IBRION">    -1</i>
   <i type="int" name="MDALGO">     0</i>
   <i type="int" name="ISIF">     3</i>
   <i name="PSTRESS">      0.00000000</i>
   <i name="EDIFFG">     -0.00000001</i>
   <i type="int" name="NFREE">     0</i>
   <i name="POTIM">      0.50000000</i>
   <i name="SMASS">     -3.00000000</i>
   <i name="SCALEE">      1.00000000</i>
  </separator>
  <separator name="ionic md" >
   <i name="TEBEG">      0.00010000</i>
   <i name="TEEND">      0.00010000</i>
   <i type="int" name="NBLOCK">     1</i>
   <i type="int" name="KBLOCK">     1</i>
   <i type="int" name="NPACO">   256</i>
   <i name="APACO">     16.00000000</i>
  </separator>
  <separator name="symmetry" >
   <i type="int" name="ISYM">     2</i>
   <i name="SYMPREC">      0.00010000</i>
  </separator>
  <separator name="dos" >
   <i type="int" name="LORBIT">     0</i>
   <v name="RWIGS">     -1.00000000</v>
   <i type="int" name="NEDOS">   301</i>
   <i name="EMIN">     10.00000000</i>
   <i name="EMAX">    -10.00000000</i>
   <i name="EFERMI">      0.00000000</i>
  </separator>
  <separator name="writing" >
   <i type="int" name="NWRITE">     2</i>
   <i type="logical" name="LWAVE"> F  </i>
   <i type="logical" name="LDOWNSAMPLE"> F  </i>
   <i type="logical" name="LCHARG"> F  </i>
   <i type="logical" name="LPARD"> F  </i>
   <i type="logical" name="LVTOT"> F  </i>
   <i type="logical" name="LVHAR"> F  </i>
   <i type="logical" name="LELF"> F  </i>
   <i type="logical" name="LOPTICS"> F  </i>
   <v name="STM">      0.00000000      0.00000000      0.00000000      0.00000000      0.00000000      0.00000000      0.00000000</v>
  </separator>
  <separator name="performance" >
   <i type="int" name="NPAR">     6</i>
   <i type="int" name="NSIM">     4</i>
   <i type="int" name="NBLK">    -1</i>
   <i type="logical" name="LPLANE"> T  </i>
   <i type="logical" name="LSCALAPACK"> T  </i>
   <i type="logical" name="LSCAAWARE"> F  </i>
   <i type="logical" name="LSCALU"> F  </i>
   <i type="logical" name="LASYNC"> F  </i>
   <i type="logical" name="LORBITALREAL"> F  </i>
  </separator>
  <separator name="miscellaneous" >
   <i type="int" name="IDIOT">     3</i>
   <i type="int" name="ISPECIAL">     0</i>
   <i type="logical" name="LMUSIC"> F  </i>
   <v name="POMASS">     12.01100000</v>
   <v name="DARWINR">      0.00000000</v>
   <v name="DARWINV">      1.00000000</v>
   <i type="logical" name="LCORR"> T  </i>
  </separator>
  <i type="logical" name="GGA_COMPAT"> T  </i>
  <i type="logical" name="LBERRY"> F  </i>
  <i type="int" name="ICORELEVEL">     0</i>
  <i type="logical" name="LDAU"> F  </i>
  <i type="int" name="I_CONSTRAINED_M">     0</i>
  <separator name="electronic exchange-correlation" >
   <i type="string" name="GGA">--</i>
   <i type="int" name="VOSKOWN">     0</i>
   <i type="logical" name="LHFCALC"> F  </i>
   <i type="string" name="PRECFOCK"></i>
   <i type="logical" name="LSYMGRAD"> F  </i>
   <i type="logical" name="LHFONE"> F  </i>
   <i type="logical" name="LRHFCALC"> F  </i>
   <i type="logical" name="LTHOMAS"> F  </i>
   <i type="logical" name="LMODELHF"> F  </i>
   <i name="ENCUT4O">     -1.00000000</i>
   <i type="int" name="EXXOEP">     0</i>
   <i type="int" name="FOURORBIT">     0</i>
   <i name="AEXX">      0.00000000</i>
   <i name="HFALPHA">      0.00000000</i>
   <i name="MCALPHA">      0.00000000</i>
   <i name="ALDAX">      1.00000000</i>
   <i name="AGGAX">      1.00000000</i>
   <i name="ALDAC">      1.00000000</i>
   <i name="AGGAC">      1.00000000</i>
   <i type="int" name="NKREDX">     1</i>
   <i type="int" name="NKREDY">     1</i>
   <i type="int" name="NKREDZ">     1</i>
   <i type="logical" name="SHIFTRED"> F  </i>
   <i type="logical" name="ODDONLY"> F  </i>
   <i type="logical" name="EVENONLY"> F  </i>
   <i type="int" name="LMAXFOCK">     0</i>
   <i type="int" name="NMAXFOCKAE">     0</i>
   <i type="logical" name="LFOCKAEDFT"> F  </i>
   <i name="HFSCREEN">      0.00000000</i>
   <i name="HFSCREENC">      0.00000000</i>
   <i type="int" name="NBANDSGWLOW">     0</i>
  </separator>
  <separator name="vdW DFT" >
   <i type="logical" name="LUSE_VDW"> T  </i>
   <i name="Zab_VDW">     -0.84910000</i>
   <i name="PARAM1">      0.12340000</i>
   <i name="PARAM2">      1.00000000</i>
   <i name="PARAM3">      0.00000000</i>
  </separator>
  <separator name="model GW" >
   <i type="int" name="MODEL_GW">     0</i>
   <i name="MODEL_EPS0">     31.43256336</i>
   <i name="MODEL_ALPHA">      1.00000000</i>
  </separator>
  <separator name="linear response parameters" >
   <i type="logical" name="LEPSILON"> F  </i>
   <i type="logical" name="LRPA"> F  </i>
   <i type="logical" name="LNABLA"> F  </i>
   <i type="logical" name="LVEL"> F  </i>
   <i type="int" name="KINTER">     0</i>
   <i name="CSHIFT">      0.10000000</i>
   <i name="OMEGAMAX">     -1.00000000</i>
   <i name="DEG_THRESHOLD">      0.00200000</i>
   <i name="RTIME">     -0.10000000</i>
   <i name="WPLASMAI">      0.00000000</i>
   <v name="DFIELD">      0.00000000      0.00000000      0.00000000</v>
   <v name="WPLASMA">      0.00000000      0.00000000      0.00000000      0.00000000      0.00000000      0.00000000      0.00000000      0.00000000      0.00000000</v>
  </separator>
  <separator name="orbital magnetization" >
   <i type="logical" name="NUCIND"> F  </i>
   <v name="MAGPOS">      0.00000000      0.00000000      0.00000000</v>
   <i type="logical" name="LNICSALL"> T  </i>
   <i type="logical" name="ORBITALMAG"> F  </i>
   <i type="logical" name="LMAGBLOCH"> F  </i>
   <i type="logical" name="LCHIMAG"> F  </i>
   <i type="logical" name="LGAUGE"> T  </i>
   <i type="int" name="MAGATOM">     0</i>
   <v name="MAGDIPOL">      0.00000000      0.00000000      0.00000000</v>
   <v name="AVECCONST">      0.00000000      0.00000000      0.00000000</v>
  </separator>
  <separator name="response functions" >
   <i type="logical" name="LADDER"> F  </i>
   <i type="logical" name="LRPAFORCE"> F  </i>
   <i type="logical" name="LFXC"> F  </i>
   <i type="logical" name="LHARTREE"> T  </i>
   <i type="int" name="IBSE">     0</i>
   <v type="int" name="KPOINT">    -1     0     0     0</v>
   <i type="logical" name="LTCTE"> F  </i>
   <i type="logical" name="LTETE"> F  </i>
   <i type="logical" name="LTRIPLET"> F  </i>
   <i type="logical" name="LFXCEPS"> F  </i>
   <i type="logical" name="LFXHEG"> F  </i>
   <i type="int" name="NATURALO">     2</i>
   <i type="logical" name="L2ORDER"> F  </i>
   <i type="logical" name="LMP2LT"> F  </i>
   <i type="logical" name="LUSEW"> F  </i>
   <i name="ENCUTGW">     -2.00000000</i>
   <i name="ENCUTGWSOFT">     -2.00000000</i>
   <i name="ENCUTLF">     -1.00000000</i>
   <i type="int" name="LMAXMP2">    -1</i>
   <i name="SCISSOR">      0.00000000</i>
   <i type="int" name="NOMEGA">     0</i>
   <i type="int" name="NOMEGAR">     0</i>
   <i type="int" name="NBANDSGW">    -1</i>
   <i type="int" name="NBANDSO">    -1</i>
   <i type="int" name="NBANDSV">    -1</i>
   <i type="int" name="NELM">     1</i>
   <i type="int" name="NELMHF">     1</i>
   <i type="int" name="DIM">     3</i>
   <i type="int" name="ANTIRES">     0</i>
   <i name="OMEGAMAX">    -30.00000000</i>
   <i name="OMEGAMIN">    -30.00000000</i>
   <i name="OMEGATL">   -200.00000000</i>
   <i type="int" name="OMEGAGRID">   140</i>
   <i name="CSHIFT">     -0.10000000</i>
   <i type="logical" name="SELFENERGY"> F  </i>
   <i type="logical" name="LSPECTRAL"> F  </i>
   <i type="logical" name="LSPECTRALGW"> F  </i>
   <i type="logical" name="LSINGLES"> F  </i>
   <i type="logical" name="LFERMIGW"> F  </i>
   <i type="logical" name="ODDONLYGW"> F  </i>
   <i type="logical" name="EVENONLYGW"> F  </i>
   <i type="int" name="NKREDLFX">     1</i>
   <i type="int" name="NKREDLFY">     1</i>
   <i type="int" name="NKREDLFZ">     1</i>
   <i type="int" name="MAXMEM">  2800</i>
   <i type="int" name="TELESCOPE">     0</i>
   <i type="int" name="TAUPAR">     1</i>
   <i type="int" name="OMEGAPAR">    -1</i>
   <i name="LAMBDA">      1.00000000</i>
  </separator>
  <separator name="External order field" >
   <i name="OFIELD_KAPPA">      0.00000000</i>
   <v name="OFIELD_K">      0.00000000      0.00000000      0.00000000</v>
   <i name="OFIELD_Q6_NEAR">      0.00000000</i>
   <i name="OFIELD_Q6_FAR">      0.00000000</i>
   <i name="OFIELD_A">      0.00000000</i>
  </separator>
 </parameters>
 <atominfo>
  <atoms>      18 </atoms>
  <types>       1 </types>
  <array name="atoms" >
   <dimension dim="1">ion</dimension>
   <field type="string">element</field>
   <field type="int">atomtype</field>
   <set>
    <rc><c>C </c><c>   1</c></rc>
    <rc><c>C </c><c>   1</c></rc>
    <rc><c>C </c><c>   1</c></rc>
    <rc><c>C </c><c>   1</c></rc>
    <rc><c>C </c><c>   1</c></rc>
    <rc><c>C </c><c>   1</c></rc>
    <rc><c>C </c><c>   1</c></rc>
    <rc><c>C </c><c>   1</c></rc>
    <rc><c>C </c><c>   1</c></rc>
    <rc><c>C </c><c>   1</c></rc>
    <rc><c>C </c><c>   1</c></rc>
    <rc><c>C </c><c>   1</c></rc>
    <rc><c>C </c><c>   1</c></rc>
    <rc><c>C </c><c>   1</c></rc>
    <rc><c>C </c><c>   1</c></rc>
    <rc><c>C </c><c>   1</c></rc>
    <rc><c>C </c><c>   1</c></rc>
    <rc><c>C </c><c>   1</c></rc>
   </set>
  </array>
  <array name="atomtypes" >
   <dimension dim="1">type</dimension>
   <field type="int">atomspertype</field>
   <field type="string">element</field>
   <field>mass</field>
   <field>valence</field>
   <field type="string">pseudopotential</field>
   <set>
    <rc><c>  18</c><c>C </c><c>     12.01100000</c><c>      4.00000000</c><c>  PAW_PBE C 08Apr2002                   </c></rc>
   </set>
  </array>
 </atominfo>
 <structure name="initialpos" >
  <crystal>
   <varray name="basis" >
    <v>       6.39000000      -3.68926800       0.00000000 </v>
    <v>       6.39000000       3.68926800       0.00000000 </v>
    <v>       0.00000000       0.00000000      20.00000000 </v>
   </varray>
   <i name="volume">    942.97690080 </i>
   <varray name="rec_basis" >
    <v>       0.07824726      -0.13552824       0.00000000 </v>
    <v>       0.07824726       0.13552824       0.00000000 </v>
    <v>       0.00000000       0.00000000       0.05000000 </v>
   </varray>
  </crystal>
  <varray name="positions" >
   <v>       0.00046909       0.00000000       0.00046909 </v>
   <v>       0.33333333       0.00000000       0.00000000 </v>
   <v>       0.66666667       0.00000000       0.00000000 </v>
   <v>       0.00000000       0.33333333       0.00000000 </v>
   <v>       0.33333333       0.33333333       0.00000000 </v>
   <v>       0.66666667       0.33333333       0.00000000 </v>
   <v>       0.00000000       0.66666667       0.00000000 </v>
   <v>       0.33333333       0.66666667       0.00000000 </v>
   <v>       0.66666667       0.66666667       0.00000000 </v>
   <v>       0.11111100       0.11111100       0.00000000 </v>
   <v>       0.44444433       0.11111100       0.00000000 </v>
   <v>       0.77777767       0.11111100       0.00000000 </v>
   <v>       0.11111100       0.44444433       0.00000000 </v>
   <v>       0.44444433       0.44444433       0.00000000 </v>
   <v>       0.77777767       0.44444433       0.00000000 </v>
   <v>       0.11111100       0.77777767       0.00000000 </v>
   <v>       0.44444433       0.77777767       0.00000000 </v>
   <v>       0.77777767       0.77777767       0.00000000 </v>
  </varray>
  <varray name="velocities" >
   <v>       0.00000000       0.00000000       0.00000000 </v>
   <v>       0.00000000       0.00000000       0.00000000 </v>
   <v>       0.00000000       0.00000000       0.00000000 </v>
   <v>       0.00000000       0.00000000       0.00000000 </v>
   <v>       0.00000000       0.00000000       0.00000000 </v>
   <v>       0.00000000       0.00000000       0.00000000 </v>
   <v>       0.00000000       0.00000000       0.00000000 </v>
   <v>       0.00000000       0.00000000       0.00000000 </v>
   <v>       0.00000000       0.00000000       0.00000000 </v>
   <v>       0.00000000       0.00000000       0.00000000 </v>
   <v>       0.00000000       0.00000000       0.00000000 </v>
   <v>       0.00000000       0.00000000       0.00000000 </v>
   <v>       0.00000000       0.00000000       0.00000000 </v>
   <v>       0.00000000       0.00000000       0.00000000 </v>
   <v>       0.00000000       0.00000000       0.00000000 </v>
   <v>       0.00000000       0.00000000       0.00000000 </v>
   <v>       0.00000000       0.00000000       0.00000000 </v>
   <v>       0.00000000       0.00000000       0.00000000 </v>
  </varray>
 </structure>
 <calculation>
  <scstep>
   <time name="dav">  219.28  219.84</time>
   <time name="total">  224.18  224.77</time>
   <energy>
    <i name="alphaZ">     28.22501374 </i>
    <i name="ewald">  11727.27927832 </i>
    <i name="hartreedc"> -13636.90389048 </i>
    <i name="XCdc">    281.95267603 </i>
    <i name="pawpsdc">   1907.86953459 </i>
    <i name="pawaedc">  -1944.32060146 </i>
    <i name="eentropy">     -0.00037199 </i>
    <i name="bandstr">   -237.20522997 </i>
    <i name="atom">   2648.77962213 </i>
    <i name="e_fr_energy">    775.67603091 </i>
    <i name="e_wo_entrp">    775.67640290 </i>
    <i name="e_0_energy">    775.67621691 </i>
   </energy>
  </scstep>
  <scstep>
   <time name="dav">  297.45  298.23</time>
   <time name="total">  297.45  298.23</time>
   <energy>
    <i name="e_fr_energy">    -58.30506461 </i>
    <i name="e_wo_entrp">    -58.30506461 </i>
    <i name="e_0_energy">    -58.30506461 </i>
   </energy>
  </scstep>
  <scstep>
   <time name="dav">  239.75  240.39</time>
   <time name="total">  239.76  240.39</time>
   <energy>
    <i name="e_fr_energy">   -202.97089529 </i>
    <i name="e_wo_entrp">   -202.97088503 </i>
    <i name="e_0_energy">   -202.97089016 </i>
   </energy>
  </scstep>
  <scstep>
   <time name="dav">  241.59  242.23</time>
   <time name="total">  241.60  242.24</time>
   <energy>
    <i name="e_fr_energy">   -207.86876174 </i>
    <i name="e_wo_entrp">   -207.86871863 </i>
    <i name="e_0_energy">   -207.86874019 </i>
   </energy>
  </scstep>
  <scstep>
   <time name="dav">  262.99  263.67</time>
   <time name="total">  308.25  309.05</time>
   <energy>
    <i name="e_fr_energy">   -208.01556740 </i>
    <i name="e_wo_entrp">   -208.01552504 </i>
    <i name="e_0_energy">   -208.01554622 </i>
   </energy>
  </scstep>
  <scstep>
   <time name="dav">  242.40  243.02</time>
   <time name="total">  292.12  292.89</time>
   <energy>
    <i name="e_fr_energy">   -181.97660135 </i>
    <i name="e_wo_entrp">   -181.97655764 </i>
    <i name="e_0_energy">   -181.97657949 </i>
   </energy>
  </scstep>
  <scstep>
   <time name="dav">  243.09  243.71</time>
   <time name="total">  292.92  293.68</time>
   <energy>
    <i name="e_fr_energy">   -179.97792807 </i>
    <i name="e_wo_entrp">   -179.97788354 </i>
    <i name="e_0_energy">   -179.97790580 </i>
   </energy>
  </scstep>
  <scstep>
   <time name="dav">  247.66  248.29</time>
   <time name="total">  297.28  298.05</time>
   <energy>
    <i name="e_fr_energy">   -180.01528893 </i>
    <i name="e_wo_entrp">   -180.01524497 </i>
    <i name="e_0_energy">   -180.01526695 </i>
   </energy>
  </scstep>
  <scstep>
   <time name="dav">  231.21  231.80</time>
   <time name="total">  281.14  281.87</time>
   <energy>
    <i name="e_fr_energy">   -180.00425256 </i>
    <i name="e_wo_entrp">   -180.00420869 </i>
    <i name="e_0_energy">   -180.00423062 </i>
   </energy>
  </scstep>
  <scstep>
   <time name="dav">  232.17  232.76</time>
   <time name="total">  281.74  282.47</time>
   <energy>
    <i name="e_fr_energy">   -179.99610474 </i>
    <i name="e_wo_entrp">   -179.99606078 </i>
    <i name="e_0_energy">   -179.99608276 </i>
   </energy>
  </scstep>
  <scstep>
   <time name="dav">  232.99  233.59</time>
   <time name="total">  282.81  283.55</time>
   <energy>
    <i name="e_fr_energy">   -179.95271250 </i>
    <i name="e_wo_entrp">   -179.95266858 </i>
    <i name="e_0_energy">   -179.95269054 </i>
   </energy>
  </scstep>
  <scstep>
   <time name="dav">  230.83  231.42</time>
   <time name="total">  280.64  281.37</time>
   <energy>
    <i name="e_fr_energy">   -179.96022087 </i>
    <i name="e_wo_entrp">   -179.96017705 </i>
    <i name="e_0_energy">   -179.96019896 </i>
   </energy>
  </scstep>
  <scstep>
   <time name="dav">  225.39  225.97</time>
   <time name="total">  275.14  275.86</time>
   <energy>
    <i name="e_fr_energy">   -179.97417111 </i>
    <i name="e_wo_entrp">   -179.97412717 </i>
    <i name="e_0_energy">   -179.97414914 </i>
   </energy>
  </scstep>
  <scstep>
   <time name="dav">  232.68  233.28</time>
   <time name="total">  282.29  283.04</time>
   <energy>
    <i name="e_fr_energy">   -179.97330372 </i>
    <i name="e_wo_entrp">   -179.97325960 </i>
    <i name="e_0_energy">   -179.97328166 </i>
   </energy>
  </scstep>
  <scstep>
   <time name="dav">  224.82  225.41</time>
   <time name="total">  274.68  275.40</time>
   <energy>
    <i name="e_fr_energy">   -179.97503015 </i>
    <i name="e_wo_entrp">   -179.97498645 </i>
    <i name="e_0_energy">   -179.97500830 </i>
   </energy>
  </scstep>
  <scstep>
   <time name="dav">  219.37  219.94</time>
   <time name="total">  269.21  269.95</time>
   <energy>
    <i name="e_fr_energy">   -179.97703158 </i>
    <i name="e_wo_entrp">   -179.97698769 </i>
    <i name="e_0_energy">   -179.97700963 </i>
   </energy>
  </scstep>
  <scstep>
   <time name="dav">  219.80  220.66</time>
   <time name="total">  269.52  270.52</time>
   <energy>
    <i name="e_fr_energy">   -179.97883934 </i>
    <i name="e_wo_entrp">   -179.97879538 </i>
    <i name="e_0_energy">   -179.97881736 </i>
   </energy>
  </scstep>
  <scstep>
   <time name="dav">  220.25  220.82</time>
   <time name="total">  270.18  270.90</time>
   <energy>
    <i name="e_fr_energy">   -179.97992656 </i>
    <i name="e_wo_entrp">   -179.97988264 </i>
    <i name="e_0_energy">   -179.97990460 </i>
   </energy>
  </scstep>
  <scstep>
   <time name="dav">  219.30  219.87</time>
   <time name="total">  269.18  269.89</time>
   <energy>
    <i name="e_fr_energy">   -179.98047999 </i>
    <i name="e_wo_entrp">   -179.98043603 </i>
    <i name="e_0_energy">   -179.98045801 </i>
   </energy>
  </scstep>
  <scstep>
   <time name="dav">  226.63  227.21</time>
   <time name="total">  276.66  277.39</time>
   <energy>
    <i name="e_fr_energy">   -179.98052842 </i>
    <i name="e_wo_entrp">   -179.98048448 </i>
    <i name="e_0_energy">   -179.98050645 </i>
   </energy>
  </scstep>
  <scstep>
   <time name="dav">  220.86  221.43</time>
   <time name="total">  270.80  271.51</time>
   <energy>
    <i name="e_fr_energy">   -179.98056400 </i>
    <i name="e_wo_entrp">   -179.98052006 </i>
    <i name="e_0_energy">   -179.98054203 </i>
   </energy>
  </scstep>
  <scstep>
   <time name="dav">  225.73  226.31</time>
   <time name="total">  275.60  276.32</time>
   <energy>
    <i name="e_fr_energy">   -179.98057648 </i>
    <i name="e_wo_entrp">   -179.98053254 </i>
    <i name="e_0_energy">   -179.98055451 </i>
   </energy>
  </scstep>
  <scstep>
   <time name="dav">  221.31  221.88</time>
   <time name="total">  271.30  272.01</time>
   <energy>
    <i name="e_fr_energy">   -179.98058364 </i>
    <i name="e_wo_entrp">   -179.98053970 </i>
    <i name="e_0_energy">   -179.98056167 </i>
   </energy>
  </scstep>
  <scstep>
   <time name="dav">  224.45  225.03</time>
   <time name="total">  274.40  275.12</time>
   <energy>
    <i name="e_fr_energy">   -179.98058591 </i>
    <i name="e_wo_entrp">   -179.98054197 </i>
    <i name="e_0_energy">   -179.98056394 </i>
   </energy>
  </scstep>
  <scstep>
   <time name="dav">  223.77  224.35</time>
   <time name="total">  274.15  274.87</time>
   <energy>
    <i name="e_fr_energy">   -179.98058611 </i>
    <i name="e_wo_entrp">   -179.98054218 </i>
    <i name="e_0_energy">   -179.98056414 </i>
   </energy>
  </scstep>
  <scstep>
   <time name="dav">  215.17  215.73</time>
   <time name="total">  265.34  266.04</time>
   <energy>
    <i name="e_fr_energy">   -179.98058619 </i>
    <i name="e_wo_entrp">   -179.98054226 </i>
    <i name="e_0_energy">   -179.98056422 </i>
   </energy>
  </scstep>
  <scstep>
   <time name="dav">  223.30  223.88</time>
   <time name="total">  228.11  228.71</time>
   <energy>
    <i name="alphaZ">     28.22501374 </i>
    <i name="ewald">  11727.27927832 </i>
    <i name="hartreedc"> -13942.39941301 </i>
    <i name="XCdc">    298.11470216 </i>
    <i name="pawpsdc">   8101.78750442 </i>
    <i name="pawaedc">  -8140.30620156 </i>
    <i name="eentropy">     -0.00004394 </i>
    <i name="bandstr">   -901.46104846 </i>
    <i name="atom">   2648.77962213 </i>
    <i name="e_fr_energy">   -179.98058620 </i>
    <i name="e_wo_entrp">   -179.98054226 </i>
    <i name="e_0_energy">   -179.98056423 </i>
   </energy>
  </scstep>
  <structure>
   <crystal>
    <varray name="basis" >
     <v>       6.39000000      -3.68926800       0.00000000 </v>
     <v>       6.39000000       3.68926800       0.00000000 </v>
     <v>       0.00000000       0.00000000      20.00000000 </v>
    </varray>
    <i name="volume">    942.97690080 </i>
    <varray name="rec_basis" >
     <v>       0.07824726      -0.13552824       0.00000000 </v>
     <v>       0.07824726       0.13552824       0.00000000 </v>
     <v>       0.00000000       0.00000000       0.05000000 </v>
    </varray>
   </crystal>
   <varray name="positions" >
    <v>       0.00046909       0.00000000       0.00046909 </v>
    <v>       0.33333333       0.00000000       0.00000000 </v>
    <v>       0.66666667       0.00000000       0.00000000 </v>
    <v>       0.00000000       0.33333333       0.00000000 </v>
    <v>       0.33333333       0.33333333       0.00000000 </v>
    <v>       0.66666667       0.33333333       0.00000000 </v>
    <v>       0.00000000       0.66666667       0.00000000 </v>
    <v>       0.33333333       0.66666667       0.00000000 </v>
    <v>       0.66666667       0.66666667       0.00000000 </v>
    <v>       0.11111100       0.11111100       0.00000000 </v>
    <v>       0.44444433       0.11111100       0.00000000 </v>
    <v>       0.77777767       0.11111100       0.00000000 </v>
    <v>       0.11111100       0.44444433       0.00000000 </v>
    <v>       0.44444433       0.44444433       0.00000000 </v>
    <v>       0.77777767       0.44444433       0.00000000 </v>
    <v>       0.11111100       0.77777767       0.00000000 </v>
    <v>       0.44444433       0.77777767       0.00000000 </v>
    <v>       0.77777767       0.77777767       0.00000000 </v>
   </varray>
  </structure>
  <varray name="forces" >
   <v>      -0.18978852       0.10844941      -0.13798475 </v>
   <v>       0.02337880      -0.01485728      -0.00350036 </v>
   <v>       0.01061747       0.00248597      -0.00332372 </v>
   <v>       0.01563524       0.01757263      -0.00342894 </v>
   <v>       0.00821869      -0.00476455       0.00211135 </v>
   <v>      -0.01379687      -0.00277823      -0.00339401 </v>
   <v>      -0.00545088       0.00037269      -0.00333992 </v>
   <v>      -0.00951179      -0.01505683      -0.00348254 </v>
   <v>       0.00823472      -0.00477300       0.00211441 </v>
   <v>       0.07396453      -0.02059504       0.05706959 </v>
   <v>       0.00599225       0.00976385      -0.00913225 </v>
   <v>       0.05271444      -0.04977095       0.05782646 </v>
   <v>       0.00295949      -0.00479638      -0.00911260 </v>
   <v>      -0.01724394      -0.00014221      -0.00915435 </v>
   <v>       0.00256546      -0.01274052       0.00309172 </v>
   <v>       0.03515380      -0.02184180       0.05745483 </v>
   <v>      -0.00521295       0.01771894       0.00308510 </v>
   <v>       0.00157006      -0.00424671       0.00309999 </v>
  </varray>
  <varray name="stress" >
   <v>      -7.02787902       0.01531566      -0.00287753 </v>
   <v>       0.01531566      -7.08296058       0.00164892 </v>
   <v>      -0.00287185       0.00164588      -1.09187045 </v>
  </varray>
  <energy>
   <i name="e_fr_energy">   -179.98058620 </i>
   <i name="e_wo_entrp">   -179.98056423 </i>
   <i name="e_0_energy">     -0.00004394 </i>
  </energy>
  <time name="totalsc"> 8200.03 8221.84</time>
  <eigenvalues>
   <array>
    <dimension dim="1">band</dimension>
    <dimension dim="2">kpoint</dimension>
    <dimension dim="3">spin</dimension>
    <field>eigene</field>
    <field>occ</field>
    <set>
     <set comment="spin 1">
      <set comment="kpoint 1">
       <r>  -23.5084    1.0000 </r>
       <r>  -20.7950    1.0000 </r>
       <r>  -20.7880    1.0000 </r>
       <r>  -20.7872    1.0000 </r>
       <r>  -20.7871    1.0000 </r>
       <r>  -20.7863    1.0000 </r>
       <r>  -20.7795    1.0000 </r>
       <r>  -16.2580    1.0000 </r>
       <r>  -16.2525    1.0000 </r>
       <r>  -16.2523    1.0000 </r>
       <r>  -16.2468    1.0000 </r>
       <r>  -13.8916    1.0000 </r>
       <r>  -13.8903    1.0000 </r>
       <r>  -13.0722    1.0000 </r>
       <r>  -13.0665    1.0000 </r>
       <r>  -13.0639    1.0000 </r>
       <r>  -13.0634    1.0000 </r>
       <r>  -13.0606    1.0000 </r>
       <r>  -13.0548    1.0000 </r>
       <r>  -10.8534    1.0000 </r>
       <r>   -8.9911    1.0000 </r>
       <r>   -8.9821    1.0000 </r>
       <r>   -8.9810    1.0000 </r>
       <r>   -8.9805    1.0000 </r>
       <r>   -8.9795    1.0000 </r>
       <r>   -8.9704    1.0000 </r>
       <r>   -7.6868    1.0000 </r>
       <r>   -7.6804    1.0000 </r>
       <r>   -7.6803    1.0000 </r>
       <r>   -7.6799    1.0000 </r>
       <r>   -7.6795    1.0000 </r>
       <r>   -7.6737    1.0000 </r>
       <r>   -6.1520    1.0000 </r>
       <r>   -6.1397    1.0000 </r>
       <r>   -2.7521    0.7938 </r>
       <r>   -2.7464    0.5011 </r>
       <r>   -2.7463    0.4965 </r>
       <r>   -2.7406    0.2087 </r>
       <r>    0.7636    0.0000 </r>
       <r>    1.5591    0.0000 </r>
       <r>    1.7695    0.0000 </r>
       <r>    2.5074    0.0000 </r>
       <r>    2.5162    0.0000 </r>
       <r>    2.5171    0.0000 </r>
       <r>    2.5173    0.0000 </r>
       <r>    2.5180    0.0000 </r>
       <r>    2.5256    0.0000 </r>
       <r>    2.7577    0.0000 </r>
      </set>
      <set comment="kpoint 2">
       <r>  -23.5021    1.0000 </r>
       <r>  -21.0353    1.0000 </r>
       <r>  -20.9097    1.0000 </r>
       <r>  -20.9066    1.0000 </r>
       <r>  -20.6561    1.0000 </r>
       <r>  -20.6530    1.0000 </r>
       <r>  -20.5282    1.0000 </r>
       <r>  -16.4627    1.0000 </r>
       <r>  -16.4587    1.0000 </r>
       <r>  -16.0724    1.0000 </r>
       <r>  -16.0683    1.0000 </r>
       <r>  -13.8529    1.0000 </r>
       <r>  -13.8514    1.0000 </r>
       <r>  -13.4960    1.0000 </r>
       <r>  -13.2819    1.0000 </r>
       <r>  -13.2783    1.0000 </r>
       <r>  -12.8458    1.0000 </r>
       <r>  -12.8421    1.0000 </r>
       <r>  -12.6228    1.0000 </r>
       <r>  -10.8458    1.0000 </r>
       <r>   -9.1007    1.0000 </r>
       <r>   -9.0624    1.0000 </r>
       <r>   -9.0570    1.0000 </r>
       <r>   -8.9405    1.0000 </r>
       <r>   -8.9343    1.0000 </r>
       <r>   -8.8567    1.0000 </r>
       <r>   -7.9579    1.0000 </r>
       <r>   -7.8154    1.0000 </r>
       <r>   -7.8127    1.0000 </r>
       <r>   -7.5343    1.0000 </r>
       <r>   -7.5316    1.0000 </r>
       <r>   -7.3963    1.0000 </r>
       <r>   -6.1688    1.0000 </r>
       <r>   -6.1623    1.0000 </r>
       <r>   -3.0220    1.0000 </r>
       <r>   -3.0191    1.0000 </r>
       <r>   -2.4762    0.0000 </r>
       <r>   -2.4732    0.0000 </r>
       <r>    0.7718    0.0000 </r>
       <r>    1.5674    0.0000 </r>
       <r>    1.7779    0.0000 </r>
       <r>    2.0495    0.0000 </r>
       <r>    2.2752    0.0000 </r>
       <r>    2.2792    0.0000 </r>
       <r>    2.7470    0.0000 </r>
       <r>    2.7510    0.0000 </r>
       <r>    2.7660    0.0000 </r>
       <r>    2.9929    0.0000 </r>
      </set>
      <set comment="kpoint 3">
       <r>  -23.4832    1.0000 </r>
       <r>  -21.2725    1.0000 </r>
       <r>  -21.0187    1.0000 </r>
       <r>  -21.0157    1.0000 </r>
       <r>  -20.5120    1.0000 </r>
       <r>  -20.5089    1.0000 </r>
       <r>  -20.2593    1.0000 </r>
       <r>  -16.6929    1.0000 </r>
       <r>  -16.6890    1.0000 </r>
       <r>  -15.9173    1.0000 </r>
       <r>  -15.9133    1.0000 </r>
       <r>  -13.9251    1.0000 </r>
       <r>  -13.7405    1.0000 </r>
       <r>  -13.7387    1.0000 </r>
       <r>  -13.4912    1.0000 </r>
       <r>  -13.4876    1.0000 </r>
       <r>  -12.6215    1.0000 </r>
       <r>  -12.6177    1.0000 </r>
       <r>  -12.1815    1.0000 </r>
       <r>  -10.8232    1.0000 </r>
       <r>   -9.2071    1.0000 </r>
       <r>   -9.1809    1.0000 </r>
       <r>   -9.1756    1.0000 </r>
       <r>   -8.9361    1.0000 </r>
       <r>   -8.9301    1.0000 </r>
       <r>   -8.7207    1.0000 </r>
       <r>   -8.2262    1.0000 </r>
       <r>   -7.9369    1.0000 </r>
       <r>   -7.9342    1.0000 </r>
       <r>   -7.3752    1.0000 </r>
       <r>   -7.3725    1.0000 </r>
       <r>   -7.1067    1.0000 </r>
       <r>   -6.2439    1.0000 </r>
       <r>   -6.2043    1.0000 </r>
       <r>   -3.2980    1.0000 </r>
       <r>   -3.2951    1.0000 </r>
       <r>   -2.2078    0.0000 </r>
       <r>   -2.2047    0.0000 </r>
       <r>    0.7965    0.0000 </r>
       <r>    1.5891    0.0000 </r>
       <r>    1.5923    0.0000 </r>
       <r>    1.8029    0.0000 </r>
       <r>    2.0327    0.0000 </r>
       <r>    2.0367    0.0000 </r>
       <r>    2.7908    0.0000 </r>
       <r>    2.9722    0.0000 </r>
       <r>    2.9762    0.0000 </r>
       <r>    3.1912    0.0000 </r>
      </set>
      <set comment="kpoint 4">
       <r>  -23.4519    1.0000 </r>
       <r>  -21.4984    1.0000 </r>
       <r>  -21.1159    1.0000 </r>
       <r>  -21.1129    1.0000 </r>
       <r>  -20.3565    1.0000 </r>
       <r>  -20.3534    1.0000 </r>
       <r>  -19.9807    1.0000 </r>
       <r>  -16.9391    1.0000 </r>
       <r>  -16.9353    1.0000 </r>
       <r>  -15.7852    1.0000 </r>
       <r>  -15.7812    1.0000 </r>
       <r>  -14.3476    1.0000 </r>
       <r>  -13.6936    1.0000 </r>
       <r>  -13.6901    1.0000 </r>
       <r>  -13.5645    1.0000 </r>
       <r>  -13.5624    1.0000 </r>
       <r>  -12.3951    1.0000 </r>
       <r>  -12.3911    1.0000 </r>
       <r>  -11.7385    1.0000 </r>
       <r>  -10.7856    1.0000 </r>
       <r>   -9.3366    1.0000 </r>
       <r>   -9.3312    1.0000 </r>
       <r>   -9.3020    1.0000 </r>
       <r>   -8.9669    1.0000 </r>
       <r>   -8.9610    1.0000 </r>
       <r>   -8.5759    1.0000 </r>
       <r>   -8.4844    1.0000 </r>
       <r>   -8.0454    1.0000 </r>
       <r>   -8.0426    1.0000 </r>
       <r>   -7.2043    1.0000 </r>
       <r>   -7.2015    1.0000 </r>
       <r>   -6.8147    1.0000 </r>
       <r>   -6.3704    1.0000 </r>
       <r>   -6.2695    1.0000 </r>
       <r>   -3.5751    1.0000 </r>
       <r>   -3.5722    1.0000 </r>
       <r>   -1.9428    0.0000 </r>
       <r>   -1.9396    0.0000 </r>
       <r>    0.8375    0.0000 </r>
       <r>    1.1422    0.0000 </r>
       <r>    1.6336    0.0000 </r>
       <r>    1.7878    0.0000 </r>
       <r>    1.7917    0.0000 </r>
       <r>    1.8447    0.0000 </r>
       <r>    2.8321    0.0000 </r>
       <r>    3.1866    0.0000 </r>
       <r>    3.1909    0.0000 </r>
       <r>    3.2330    0.0000 </r>
      </set>
      <set comment="kpoint 5">
       <r>  -23.4080    1.0000 </r>
       <r>  -21.7129    1.0000 </r>
       <r>  -21.2012    1.0000 </r>
       <r>  -21.1981    1.0000 </r>
       <r>  -20.1897    1.0000 </r>
       <r>  -20.1866    1.0000 </r>
       <r>  -19.6934    1.0000 </r>
       <r>  -17.1953    1.0000 </r>
       <r>  -17.1915    1.0000 </r>
       <r>  -15.6693    1.0000 </r>
       <r>  -15.6654    1.0000 </r>
       <r>  -14.7620    1.0000 </r>
       <r>  -13.8882    1.0000 </r>
       <r>  -13.8847    1.0000 </r>
       <r>  -13.3384    1.0000 </r>
       <r>  -13.3359    1.0000 </r>
       <r>  -12.1688    1.0000 </r>
       <r>  -12.1647    1.0000 </r>
       <r>  -11.2953    1.0000 </r>
       <r>  -10.7329    1.0000 </r>
       <r>   -9.5262    1.0000 </r>
       <r>   -9.5209    1.0000 </r>
       <r>   -9.3864    1.0000 </r>
       <r>   -9.0291    1.0000 </r>
       <r>   -9.0233    1.0000 </r>
       <r>   -8.7315    1.0000 </r>
       <r>   -8.4232    1.0000 </r>
       <r>   -8.1406    1.0000 </r>
       <r>   -8.1379    1.0000 </r>
       <r>   -7.0217    1.0000 </r>
       <r>   -7.0189    1.0000 </r>
       <r>   -6.5449    1.0000 </r>
       <r>   -6.5230    1.0000 </r>
       <r>   -6.3579    1.0000 </r>
       <r>   -3.8522    1.0000 </r>
       <r>   -3.8494    1.0000 </r>
       <r>   -1.6814    0.0000 </r>
       <r>   -1.6782    0.0000 </r>
       <r>    0.7135    0.0000 </r>
       <r>    0.8952    0.0000 </r>
       <r>    1.5418    0.0000 </r>
       <r>    1.5457    0.0000 </r>
       <r>    1.6915    0.0000 </r>
       <r>    1.9029    0.0000 </r>
       <r>    2.8900    0.0000 </r>
       <r>    3.1355    0.0000 </r>
       <r>    3.2902    0.0000 </r>
       <r>    3.3906    0.0000 </r>
      </set>
      <set comment="kpoint 6">
       <r>  -23.3515    1.0000 </r>
       <r>  -21.9158    1.0000 </r>
       <r>  -21.2743    1.0000 </r>
       <r>  -21.2713    1.0000 </r>
       <r>  -20.0120    1.0000 </r>
       <r>  -20.0088    1.0000 </r>
       <r>  -19.3987    1.0000 </r>
       <r>  -17.4565    1.0000 </r>
       <r>  -17.4529    1.0000 </r>
       <r>  -15.5624    1.0000 </r>
       <r>  -15.5588    1.0000 </r>
       <r>  -15.1665    1.0000 </r>
       <r>  -14.0746    1.0000 </r>
       <r>  -14.0712    1.0000 </r>
       <r>  -13.0746    1.0000 </r>
       <r>  -13.0719    1.0000 </r>
       <r>  -11.9456    1.0000 </r>
       <r>  -11.9415    1.0000 </r>
       <r>  -10.8537    1.0000 </r>
       <r>  -10.6653    1.0000 </r>
       <r>   -9.7469    1.0000 </r>
       <r>   -9.7419    1.0000 </r>
       <r>   -9.4592    1.0000 </r>
       <r>   -9.1176    1.0000 </r>
       <r>   -9.1120    1.0000 </r>
       <r>   -8.9669    1.0000 </r>
       <r>   -8.2640    1.0000 </r>
       <r>   -8.2222    1.0000 </r>
       <r>   -8.2197    1.0000 </r>
       <r>   -6.8280    1.0000 </r>
       <r>   -6.8253    1.0000 </r>
       <r>   -6.7603    1.0000 </r>
       <r>   -6.4670    1.0000 </r>
       <r>   -6.2401    1.0000 </r>
       <r>   -4.1285    1.0000 </r>
       <r>   -4.1257    1.0000 </r>
       <r>   -1.4237    0.0000 </r>
       <r>   -1.4204    0.0000 </r>
       <r>    0.3099    0.0000 </r>
       <r>    0.9690    0.0000 </r>
       <r>    1.2954    0.0000 </r>
       <r>    1.2992    0.0000 </r>
       <r>    1.7660    0.0000 </r>
       <r>    1.9779    0.0000 </r>
       <r>    2.8654    0.0000 </r>
       <r>    2.9644    0.0000 </r>
       <r>    3.3647    0.0000 </r>
       <r>    3.6422    0.0000 </r>
      </set>
      <set comment="kpoint 7">
       <r>  -23.2826    1.0000 </r>
       <r>  -22.1069    1.0000 </r>
       <r>  -21.3354    1.0000 </r>
       <r>  -21.3324    1.0000 </r>
       <r>  -19.8235    1.0000 </r>
       <r>  -19.8203    1.0000 </r>
       <r>  -19.0989    1.0000 </r>
       <r>  -17.7190    1.0000 </r>
       <r>  -17.7153    1.0000 </r>
       <r>  -15.5585    1.0000 </r>
       <r>  -15.4586    1.0000 </r>
       <r>  -15.4551    1.0000 </r>
       <r>  -14.2524    1.0000 </r>
       <r>  -14.2490    1.0000 </r>
       <r>  -12.7843    1.0000 </r>
       <r>  -12.7813    1.0000 </r>
       <r>  -11.7301    1.0000 </r>
       <r>  -11.7259    1.0000 </r>
       <r>  -10.5829    1.0000 </r>
       <r>  -10.4150    1.0000 </r>
       <r>   -9.9950    1.0000 </r>
       <r>   -9.9902    1.0000 </r>
       <r>   -9.5201    1.0000 </r>
       <r>   -9.2256    1.0000 </r>
       <r>   -9.2208    1.0000 </r>
       <r>   -9.1894    1.0000 </r>
       <r>   -8.2913    1.0000 </r>
       <r>   -8.2885    1.0000 </r>
       <r>   -8.0972    1.0000 </r>
       <r>   -7.0162    1.0000 </r>
       <r>   -6.6242    1.0000 </r>
       <r>   -6.6209    1.0000 </r>
       <r>   -6.5934    1.0000 </r>
       <r>   -5.9705    1.0000 </r>
       <r>   -4.4027    1.0000 </r>
       <r>   -4.3999    1.0000 </r>
       <r>   -1.1694    0.0000 </r>
       <r>   -1.1660    0.0000 </r>
       <r>   -0.0608    0.0000 </r>
       <r>    1.0463    0.0000 </r>
       <r>    1.0517    0.0000 </r>
       <r>    1.0634    0.0000 </r>
       <r>    1.8569    0.0000 </r>
       <r>    2.0696    0.0000 </r>
       <r>    2.6114    0.0000 </r>
       <r>    3.0553    0.0000 </r>
       <r>    3.4114    0.0000 </r>
       <r>    3.4557    0.0000 </r>
      </set>
      <set comment="kpoint 8">
       <r>  -23.2012    1.0000 </r>
       <r>  -22.2862    1.0000 </r>
       <r>  -21.3843    1.0000 </r>
       <r>  -21.3813    1.0000 </r>
       <r>  -19.6245    1.0000 </r>
       <r>  -19.6213    1.0000 </r>
       <r>  -18.7983    1.0000 </r>
       <r>  -17.9796    1.0000 </r>
       <r>  -17.9761    1.0000 </r>
       <r>  -15.9330    1.0000 </r>
       <r>  -15.3536    1.0000 </r>
       <r>  -15.3501    1.0000 </r>
       <r>  -14.4212    1.0000 </r>
       <r>  -14.4179    1.0000 </r>
       <r>  -12.4759    1.0000 </r>
       <r>  -12.4726    1.0000 </r>
       <r>  -11.5288    1.0000 </r>
       <r>  -11.5245    1.0000 </r>
       <r>  -10.4856    1.0000 </r>
       <r>  -10.2665    1.0000 </r>
       <r>  -10.2619    1.0000 </r>
       <r>   -9.9815    1.0000 </r>
       <r>   -9.5691    1.0000 </r>
       <r>   -9.4007    1.0000 </r>
       <r>   -9.3442    1.0000 </r>
       <r>   -9.3386    1.0000 </r>
       <r>   -8.3462    1.0000 </r>
       <r>   -8.3434    1.0000 </r>
       <r>   -7.9266    1.0000 </r>
       <r>   -7.3069    1.0000 </r>
       <r>   -6.7369    1.0000 </r>
       <r>   -6.4086    1.0000 </r>
       <r>   -6.4059    1.0000 </r>
       <r>   -5.7252    1.0000 </r>
       <r>   -4.6739    1.0000 </r>
       <r>   -4.6712    1.0000 </r>
       <r>   -0.9180    0.0000 </r>
       <r>   -0.9146    0.0000 </r>
       <r>   -0.3876    0.0000 </r>
       <r>    0.8031    0.0000 </r>
       <r>    0.8069    0.0000 </r>
       <r>    1.1664    0.0000 </r>
       <r>    1.9644    0.0000 </r>
       <r>    2.1779    0.0000 </r>
       <r>    2.3736    0.0000 </r>
       <r>    3.1627    0.0000 </r>
       <r>    3.1752    0.0000 </r>
       <r>    3.4030    0.0000 </r>
      </set>
      <set comment="kpoint 9">
       <r>  -23.1074    1.0000 </r>
       <r>  -22.4535    1.0000 </r>
       <r>  -21.4210    1.0000 </r>
       <r>  -21.4180    1.0000 </r>
       <r>  -19.4154    1.0000 </r>
       <r>  -19.4121    1.0000 </r>
       <r>  -18.5064    1.0000 </r>
       <r>  -18.2364    1.0000 </r>
       <r>  -18.2329    1.0000 </r>
       <r>  -16.2808    1.0000 </r>
       <r>  -15.2441    1.0000 </r>
       <r>  -15.2407    1.0000 </r>
       <r>  -14.5808    1.0000 </r>
       <r>  -14.5775    1.0000 </r>
       <r>  -12.1561    1.0000 </r>
       <r>  -12.1527    1.0000 </r>
       <r>  -11.3519    1.0000 </r>
       <r>  -11.3476    1.0000 </r>
       <r>  -10.5571    1.0000 </r>
       <r>  -10.5527    1.0000 </r>
       <r>  -10.3735    1.0000 </r>
       <r>   -9.6061    1.0000 </r>
       <r>   -9.5975    1.0000 </r>
       <r>   -9.5554    1.0000 </r>
       <r>   -9.4612    1.0000 </r>
       <r>   -9.4559    1.0000 </r>
       <r>   -8.3874    1.0000 </r>
       <r>   -8.3847    1.0000 </r>
       <r>   -7.7524    1.0000 </r>
       <r>   -7.6281    1.0000 </r>
       <r>   -6.8913    1.0000 </r>
       <r>   -6.1843    1.0000 </r>
       <r>   -6.1816    1.0000 </r>
       <r>   -5.5179    1.0000 </r>
       <r>   -4.9411    1.0000 </r>
       <r>   -4.9384    1.0000 </r>
       <r>   -0.6696    0.0000 </r>
       <r>   -0.6664    0.0000 </r>
       <r>   -0.6551    0.0000 </r>
       <r>    0.5579    0.0000 </r>
       <r>    0.5616    0.0000 </r>
       <r>    1.2896    0.0000 </r>
       <r>    2.0884    0.0000 </r>
       <r>    2.1520    0.0000 </r>
       <r>    2.3030    0.0000 </r>
       <r>    2.9539    0.0000 </r>
       <r>    3.1780    0.0000 </r>
       <r>    3.2865    0.0000 </r>
      </set>
      <set comment="kpoint 10">
       <r>  -23.0012    1.0000 </r>
       <r>  -22.6087    1.0000 </r>
       <r>  -21.4455    1.0000 </r>
       <r>  -21.4425    1.0000 </r>
       <r>  -19.1966    1.0000 </r>
       <r>  -19.1933    1.0000 </r>
       <r>  -18.4876    1.0000 </r>
       <r>  -18.4842    1.0000 </r>
       <r>  -18.2451    1.0000 </r>
       <r>  -16.5792    1.0000 </r>
       <r>  -15.1282    1.0000 </r>
       <r>  -15.1248    1.0000 </r>
       <r>  -14.7312    1.0000 </r>
       <r>  -14.7279    1.0000 </r>
       <r>  -11.8305    1.0000 </r>
       <r>  -11.8269    1.0000 </r>
       <r>  -11.2148    1.0000 </r>
       <r>  -11.2105    1.0000 </r>
       <r>  -10.8629    1.0000 </r>
       <r>  -10.8587    1.0000 </r>
       <r>  -10.2469    1.0000 </r>
       <r>   -9.7809    1.0000 </r>
       <r>   -9.6307    1.0000 </r>
       <r>   -9.5592    1.0000 </r>
       <r>   -9.5544    1.0000 </r>
       <r>   -9.1387    1.0000 </r>
       <r>   -8.4150    1.0000 </r>
       <r>   -8.4122    1.0000 </r>
       <r>   -7.9757    1.0000 </r>
       <r>   -7.5763    1.0000 </r>
       <r>   -7.0551    1.0000 </r>
       <r>   -5.9508    1.0000 </r>
       <r>   -5.9481    1.0000 </r>
       <r>   -5.3652    1.0000 </r>
       <r>   -5.2033    1.0000 </r>
       <r>   -5.2006    1.0000 </r>
       <r>   -0.8504    0.0000 </r>
       <r>   -0.4221    0.0000 </r>
       <r>   -0.4186    0.0000 </r>
       <r>    0.3131    0.0000 </r>
       <r>    0.3168    0.0000 </r>
       <r>    1.4293    0.0000 </r>
       <r>    1.9468    0.0000 </r>
       <r>    2.2289    0.0000 </r>
       <r>    2.4446    0.0000 </r>
       <r>    2.7484    0.0000 </r>
       <r>    2.9697    0.0000 </r>
       <r>    3.4267    0.0000 </r>
      </set>
      <set comment="kpoint 11">
       <r>  -22.8827    1.0000 </r>
       <r>  -22.7518    1.0000 </r>
       <r>  -21.4577    1.0000 </r>
       <r>  -21.4547    1.0000 </r>
       <r>  -18.9686    1.0000 </r>
       <r>  -18.9653    1.0000 </r>
       <r>  -18.7320    1.0000 </r>
       <r>  -18.7286    1.0000 </r>
       <r>  -18.0704    1.0000 </r>
       <r>  -16.7726    1.0000 </r>
       <r>  -15.0046    1.0000 </r>
       <r>  -15.0013    1.0000 </r>
       <r>  -14.8723    1.0000 </r>
       <r>  -14.8690    1.0000 </r>
       <r>  -11.5036    1.0000 </r>
       <r>  -11.4998    1.0000 </r>
       <r>  -11.1800    1.0000 </r>
       <r>  -11.1758    1.0000 </r>
       <r>  -11.1375    1.0000 </r>
       <r>  -11.1336    1.0000 </r>
       <r>  -10.1058    1.0000 </r>
       <r>   -9.9503    1.0000 </r>
       <r>   -9.6431    1.0000 </r>
       <r>   -9.6169    1.0000 </r>
       <r>   -9.6122    1.0000 </r>
       <r>   -8.7345    1.0000 </r>
       <r>   -8.4288    1.0000 </r>
       <r>   -8.4260    1.0000 </r>
       <r>   -8.3456    1.0000 </r>
       <r>   -7.4001    1.0000 </r>
       <r>   -7.2253    1.0000 </r>
       <r>   -5.7091    1.0000 </r>
       <r>   -5.7064    1.0000 </r>
       <r>   -5.4596    1.0000 </r>
       <r>   -5.4568    1.0000 </r>
       <r>   -5.2834    1.0000 </r>
       <r>   -0.9529    0.0000 </r>
       <r>   -0.1765    0.0000 </r>
       <r>   -0.1729    0.0000 </r>
       <r>    0.0685    0.0000 </r>
       <r>    0.0721    0.0000 </r>
       <r>    1.5854    0.0000 </r>
       <r>    1.7579    0.0000 </r>
       <r>    2.3857    0.0000 </r>
       <r>    2.5589    0.0000 </r>
       <r>    2.6030    0.0000 </r>
       <r>    2.7780    0.0000 </r>
       <r>    3.5180    0.0000 </r>
      </set>
      <set comment="kpoint 12">
       <r>  -23.5021    1.0000 </r>
       <r>  -21.0354    1.0000 </r>
       <r>  -20.9110    1.0000 </r>
       <r>  -20.9052    1.0000 </r>
       <r>  -20.6575    1.0000 </r>
       <r>  -20.6517    1.0000 </r>
       <r>  -20.5283    1.0000 </r>
       <r>  -16.4635    1.0000 </r>
       <r>  -16.4580    1.0000 </r>
       <r>  -16.0731    1.0000 </r>
       <r>  -16.0675    1.0000 </r>
       <r>  -13.8532    1.0000 </r>
       <r>  -13.8511    1.0000 </r>
       <r>  -13.4980    1.0000 </r>
       <r>  -13.2818    1.0000 </r>
       <r>  -13.2764    1.0000 </r>
       <r>  -12.8457    1.0000 </r>
       <r>  -12.8402    1.0000 </r>
       <r>  -12.6249    1.0000 </r>
       <r>  -10.8458    1.0000 </r>
       <r>   -9.0981    1.0000 </r>
       <r>   -9.0638    1.0000 </r>
       <r>   -9.0581    1.0000 </r>
       <r>   -8.9418    1.0000 </r>
       <r>   -8.9361    1.0000 </r>
       <r>   -8.8536    1.0000 </r>
       <r>   -7.9574    1.0000 </r>
       <r>   -7.8169    1.0000 </r>
       <r>   -7.8119    1.0000 </r>
       <r>   -7.5358    1.0000 </r>
       <r>   -7.5308    1.0000 </r>
       <r>   -7.3955    1.0000 </r>
       <r>   -6.1743    1.0000 </r>
       <r>   -6.1568    1.0000 </r>
       <r>   -3.0234    1.0000 </r>
       <r>   -3.0178    1.0000 </r>
       <r>   -2.4776    0.0000 </r>
       <r>   -2.4717    0.0000 </r>
       <r>    0.7718    0.0000 </r>
       <r>    1.5674    0.0000 </r>
       <r>    1.7779    0.0000 </r>
       <r>    2.0473    0.0000 </r>
       <r>    2.2743    0.0000 </r>
       <r>    2.2820    0.0000 </r>
       <r>    2.7462    0.0000 </r>
       <r>    2.7539    0.0000 </r>
       <r>    2.7660    0.0000 </r>
       <r>    2.9911    0.0000 </r>
      </set>
      <set comment="kpoint 13">
       <r>  -23.5021    1.0000 </r>
       <r>  -21.0354    1.0000 </r>
       <r>  -20.9096    1.0000 </r>
       <r>  -20.9066    1.0000 </r>
       <r>  -20.6561    1.0000 </r>
       <r>  -20.6530    1.0000 </r>
       <r>  -20.5284    1.0000 </r>
       <r>  -16.4628    1.0000 </r>
       <r>  -16.4588    1.0000 </r>
       <r>  -16.0722    1.0000 </r>
       <r>  -16.0682    1.0000 </r>
       <r>  -13.8529    1.0000 </r>
       <r>  -13.8514    1.0000 </r>
       <r>  -13.5000    1.0000 </r>
       <r>  -13.2800    1.0000 </r>
       <r>  -13.2764    1.0000 </r>
       <r>  -12.8437    1.0000 </r>
       <r>  -12.8398    1.0000 </r>
       <r>  -12.6272    1.0000 </r>
       <r>  -10.8458    1.0000 </r>
       <r>   -9.0951    1.0000 </r>
       <r>   -9.0654    1.0000 </r>
       <r>   -9.0594    1.0000 </r>
       <r>   -8.9432    1.0000 </r>
       <r>   -8.9376    1.0000 </r>
       <r>   -8.8508    1.0000 </r>
       <r>   -7.9568    1.0000 </r>
       <r>   -7.8161    1.0000 </r>
       <r>   -7.8133    1.0000 </r>
       <r>   -7.5349    1.0000 </r>
       <r>   -7.5322    1.0000 </r>
       <r>   -7.3948    1.0000 </r>
       <r>   -6.1775    1.0000 </r>
       <r>   -6.1536    1.0000 </r>
       <r>   -3.0221    1.0000 </r>
       <r>   -3.0192    1.0000 </r>
       <r>   -2.4762    0.0000 </r>
       <r>   -2.4731    0.0000 </r>
       <r>    0.7718    0.0000 </r>
       <r>    1.5674    0.0000 </r>
       <r>    1.7779    0.0000 </r>
       <r>    2.0451    0.0000 </r>
       <r>    2.2772    0.0000 </r>
       <r>    2.2810    0.0000 </r>
       <r>    2.7492    0.0000 </r>
       <r>    2.7531    0.0000 </r>
       <r>    2.7660    0.0000 </r>
       <r>    2.9893    0.0000 </r>
      </set>
      <set comment="kpoint 14">
       <r>  -23.4895    1.0000 </r>
       <r>  -21.1509    1.0000 </r>
       <r>  -21.1506    1.0000 </r>
       <r>  -20.7692    1.0000 </r>
       <r>  -20.7690    1.0000 </r>
       <r>  -20.3908    1.0000 </r>
       <r>  -20.3905    1.0000 </r>
       <r>  -16.6713    1.0000 </r>
       <r>  -16.5756    1.0000 </r>
       <r>  -16.0185    1.0000 </r>
       <r>  -15.8979    1.0000 </r>
       <r>  -13.7885    1.0000 </r>
       <r>  -13.7650    1.0000 </r>
       <r>  -13.7126    1.0000 </r>
       <r>  -13.7087    1.0000 </r>
       <r>  -13.0556    1.0000 </r>
       <r>  -13.0552    1.0000 </r>
       <r>  -12.4054    1.0000 </r>
       <r>  -12.4009    1.0000 </r>
       <r>  -10.8308    1.0000 </r>
       <r>   -9.1757    1.0000 </r>
       <r>   -9.1702    1.0000 </r>
       <r>   -9.0626    1.0000 </r>
       <r>   -9.0617    1.0000 </r>
       <r>   -8.8102    1.0000 </r>
       <r>   -8.8041    1.0000 </r>
       <r>   -8.0879    1.0000 </r>
       <r>   -8.0867    1.0000 </r>
       <r>   -7.6589    1.0000 </r>
       <r>   -7.6584    1.0000 </r>
       <r>   -7.2467    1.0000 </r>
       <r>   -7.2450    1.0000 </r>
       <r>   -6.2241    1.0000 </r>
       <r>   -6.1852    1.0000 </r>
       <r>   -3.2456    1.0000 </r>
       <r>   -3.1982    1.0000 </r>
       <r>   -2.3041    0.0000 </r>
       <r>   -2.2527    0.0000 </r>
       <r>    0.7883    0.0000 </r>
       <r>    1.5839    0.0000 </r>
       <r>    1.7942    0.0000 </r>
       <r>    1.8109    0.0000 </r>
       <r>    1.8153    0.0000 </r>
       <r>    2.5028    0.0000 </r>
       <r>    2.5038    0.0000 </r>
       <r>    2.7825    0.0000 </r>
       <r>    3.1825    0.0000 </r>
       <r>    3.2229    0.0000 </r>
      </set>
      <set comment="kpoint 15">
       <r>  -23.4644    1.0000 </r>
       <r>  -21.3823    1.0000 </r>
       <r>  -21.2544    1.0000 </r>
       <r>  -20.8719    1.0000 </r>
       <r>  -20.6186    1.0000 </r>
       <r>  -20.2416    1.0000 </r>
       <r>  -20.1167    1.0000 </r>
       <r>  -16.9245    1.0000 </r>
       <r>  -16.7546    1.0000 </r>
       <r>  -15.9532    1.0000 </r>
       <r>  -15.7185    1.0000 </r>
       <r>  -14.1345    1.0000 </r>
       <r>  -13.9184    1.0000 </r>
       <r>  -13.6637    1.0000 </r>
       <r>  -13.6028    1.0000 </r>
       <r>  -13.2615    1.0000 </r>
       <r>  -12.8285    1.0000 </r>
       <r>  -12.1811    1.0000 </r>
       <r>  -11.9590    1.0000 </r>
       <r>  -10.8006    1.0000 </r>
       <r>   -9.2839    1.0000 </r>
       <r>   -9.2768    1.0000 </r>
       <r>   -9.2222    1.0000 </r>
       <r>   -9.0986    1.0000 </r>
       <r>   -8.7947    1.0000 </r>
       <r>   -8.6695    1.0000 </r>
       <r>   -8.3512    1.0000 </r>
       <r>   -8.2036    1.0000 </r>
       <r>   -7.7714    1.0000 </r>
       <r>   -7.4907    1.0000 </r>
       <r>   -7.0836    1.0000 </r>
       <r>   -6.9554    1.0000 </r>
       <r>   -6.3224    1.0000 </r>
       <r>   -6.2412    1.0000 </r>
       <r>   -3.5188    1.0000 </r>
       <r>   -3.4291    1.0000 </r>
       <r>   -2.0868    0.0000 </r>
[...]
       <r>  -22.8142    1.0000 </r>
       <r>  -22.8140    1.0000 </r>
       <r>  -21.6459    1.0000 </r>
       <r>  -21.2610    1.0000 </r>
       <r>  -19.0227    1.0000 </r>
       <r>  -19.0225    1.0000 </r>
       <r>  -18.6720    1.0000 </r>
       <r>  -18.6716    1.0000 </r>
       <r>  -18.0393    1.0000 </r>
       <r>  -16.7999    1.0000 </r>
       <r>  -15.2439    1.0000 </r>
       <r>  -15.2395    1.0000 </r>
       <r>  -14.6347    1.0000 </r>
       <r>  -14.6301    1.0000 </r>
       <r>  -11.4281    1.0000 </r>
       <r>  -11.4226    1.0000 </r>
       <r>  -11.4178    1.0000 </r>
       <r>  -11.2507    1.0000 </r>
       <r>  -11.2457    1.0000 </r>
       <r>  -10.8157    1.0000 </r>
       <r>  -10.0244    1.0000 </r>
       <r>  -10.0239    1.0000 </r>
       <r>   -9.8850    1.0000 </r>
       <r>   -9.6631    1.0000 </r>
       <r>   -9.3684    1.0000 </r>
       <r>   -8.6483    1.0000 </r>
       <r>   -8.5479    1.0000 </r>
       <r>   -8.5467    1.0000 </r>
       <r>   -8.2017    1.0000 </r>
       <r>   -7.3256    1.0000 </r>
       <r>   -7.3243    1.0000 </r>
       <r>   -5.7446    1.0000 </r>
       <r>   -5.7418    1.0000 </r>
       <r>   -5.4330    1.0000 </r>
       <r>   -5.4294    1.0000 </r>
       <r>   -5.2645    1.0000 </r>
       <r>   -0.9714    0.0000 </r>
       <r>   -0.2832    0.0000 </r>
       <r>   -0.2765    0.0000 </r>
       <r>    0.1812    0.0000 </r>
       <r>    0.1871    0.0000 </r>
       <r>    1.6758    0.0000 </r>
       <r>    1.6758    0.0000 </r>
       <r>    2.4764    0.0000 </r>
       <r>    2.4766    0.0000 </r>
       <r>    2.6947    0.0000 </r>
       <r>    2.6947    0.0000 </r>
       <r>    3.2284    0.0000 </r>
      </set>
     </set>
    </set>
   </array>
  </eigenvalues>
  <separator name="orbital magnetization" >
   <v name="MAGDIPOLOUT">      0.00000000      0.00000000      0.00000000</v>
  </separator>
  <dos>
   <i name="efermi">     -2.74634072 </i>
   <total>
    <array>
     <dimension dim="1">gridpoints</dimension>
     <dimension dim="2">spin</dimension>
     <field>energy</field>
     <field>total</field>
     <field>integrated</field>
     <set>
      <set comment="spin 1">
       <r>   -24.8667     0.0000     0.0000 </r>
       <r>   -24.7671     0.0000     0.0000 </r>
       <r>   -24.6675     0.0000     0.0000 </r>
       <r>   -24.5679     0.0000     0.0000 </r>
       <r>   -24.4683     0.0000     0.0000 </r>
       <r>   -24.3686     0.0000     0.0000 </r>
       <r>   -24.2690     0.0000     0.0000 </r>
       <r>   -24.1694     0.0000     0.0000 </r>
       <r>   -24.0698     0.0000     0.0000 </r>
       <r>   -23.9702     0.0000     0.0000 </r>
       <r>   -23.8706     0.0000     0.0000 </r>
       <r>   -23.7710     0.0000     0.0000 </r>
       <r>   -23.6714     0.0000     0.0000 </r>
       <r>   -23.5717     0.0000     0.0000 </r>
       <r>   -23.4721     0.9231     0.0920 </r>
       <r>   -23.3725     2.2994     0.3697 </r>
       <r>   -23.2729     2.3182     0.6165 </r>
       <r>   -23.1733     2.1326     0.8972 </r>
       <r>   -23.0737     2.4491     1.1465 </r>
       <r>   -22.9741     2.6676     1.4132 </r>
       <r>   -22.8745     2.4631     1.6649 </r>
       <r>   -22.7748     2.2425     1.9422 </r>
       <r>   -22.6752     2.5766     2.2204 </r>
       <r>   -22.5756     2.1428     2.4765 </r>
       <r>   -22.4760     1.6297     2.6975 </r>
       <r>   -22.3764     2.8636     2.9837 </r>
       <r>   -22.2768     2.1684     3.2682 </r>
       <r>   -22.1772     1.4528     3.4871 </r>
       <r>   -22.0776     3.3812     3.8245 </r>
       <r>   -21.9779     2.0819     4.0486 </r>
       <r>   -21.8783     1.9084     4.3307 </r>
       <r>   -21.7787     2.8165     4.6116 </r>
       <r>   -21.6791     1.9038     4.8472 </r>
       <r>   -21.5795     2.9877     5.1457 </r>
       <r>   -21.4799     1.6256     5.3637 </r>
       <r>   -21.3803     2.8658     5.6778 </r>
       <r>   -21.2807     1.2054     5.8389 </r>
       <r>   -21.1810     2.9133     6.2086 </r>
       <r>   -21.0814     1.6390     6.4263 </r>
       <r>   -20.9818     3.2677     6.7518 </r>
       <r>   -20.8822     1.1754     6.9516 </r>
       <r>   -20.7826     2.5460     7.3058 </r>
       <r>   -20.6830     1.5742     7.5355 </r>
       <r>   -20.5834     3.0060     7.8414 </r>
       <r>   -20.4838     2.4479     8.1123 </r>
       <r>   -20.3841     2.1046     8.3230 </r>
       <r>   -20.2845     1.8515     8.6516 </r>
       <r>   -20.1849     1.7966     8.8638 </r>
       <r>   -20.0853     3.0454     9.2331 </r>
       <r>   -19.9857     1.1961     9.4298 </r>
       <r>   -19.8861     2.7459     9.7747 </r>
       <r>   -19.7865     2.7078    10.0702 </r>
       <r>   -19.6869     1.8704    10.2589 </r>
       <r>   -19.5872     3.0109    10.6174 </r>
       <r>   -19.4876     2.3238    10.8755 </r>
       <r>   -19.3880     2.2013    11.1354 </r>
       <r>   -19.2884     2.1843    11.4602 </r>
       <r>   -19.1888     2.6216    11.7215 </r>
       <r>   -19.0892     3.0330    12.0345 </r>
       <r>   -18.9896     2.1854    12.3039 </r>
       <r>   -18.8899     2.6065    12.5726 </r>
       <r>   -18.7903     3.3216    12.9068 </r>
       <r>   -18.6907     1.6422    13.1749 </r>
       <r>   -18.5911     2.6246    13.4723 </r>
       <r>   -18.4915     2.7759    13.8321 </r>
       <r>   -18.3919     1.6465    14.0733 </r>
       <r>   -18.2923     3.2882    14.4545 </r>
       <r>   -18.1927     3.2901    14.8085 </r>
       <r>   -18.0930     2.6542    15.1533 </r>
       <r>   -17.9934     4.5849    15.6721 </r>
       <r>   -17.8938     2.4458    16.0305 </r>
       <r>   -17.7942     2.4281    16.2736 </r>
       <r>   -17.6946     2.4887    16.5246 </r>
       <r>   -17.5950     2.1848    16.7664 </r>
       <r>   -17.4954     0.2879    16.7951 </r>
       <r>   -17.3958     3.2780    17.1746 </r>
       <r>   -17.2961     0.2733    17.2018 </r>
       <r>   -17.1965     1.8854    17.3896 </r>
       <r>   -17.0969     0.2732    17.5283 </r>
       <r>   -16.9973     0.5463    17.5828 </r>
       <r>   -16.8977     1.6390    17.7460 </r>
       <r>   -16.7981     0.4356    17.7894 </r>
       <r>   -16.6985     2.5568    18.0642 </r>
       <r>   -16.5989     2.0182    18.3552 </r>
       <r>   -16.4992     2.6307    18.6612 </r>
       <r>   -16.3996     2.8592    18.9560 </r>
       <r>   -16.3000     1.3686    19.1341 </r>
       <r>   -16.2004     3.7298    19.5325 </r>
       <r>   -16.1008     2.6641    19.7983 </r>
       <r>   -16.0012     3.4130    20.1995 </r>
       <r>   -15.9016     4.0844    20.6835 </r>
       <r>   -15.8020     2.7949    21.0358 </r>
       <r>   -15.7023     3.3279    21.4426 </r>
       <r>   -15.6027     1.8181    21.6460 </r>
       <r>   -15.5031     3.3272    22.0412 </r>
       <r>   -15.4035     2.5997    22.3225 </r>
       <r>   -15.3039     3.2727    22.6616 </r>
       <r>   -15.2043     2.3577    22.9152 </r>
       <r>   -15.1047     3.4517    23.2781 </r>
       <r>   -15.0051     1.2859    23.4433 </r>
       <r>   -14.9054     2.0154    23.7065 </r>
       <r>   -14.8058     1.6115    24.0199 </r>
       <r>   -14.7062     2.5459    24.2763 </r>
       <r>   -14.6066     1.3657    24.5125 </r>
       <r>   -14.5070     2.7340    24.7848 </r>
       <r>   -14.4074     1.8993    25.0192 </r>
       <r>   -14.3078     2.0796    25.2638 </r>
       <r>   -14.2081     1.7061    25.4715 </r>
       <r>   -14.1085     1.9307    25.7116 </r>
       <r>   -14.0089     2.0198    25.9654 </r>
       <r>   -13.9093     1.8228    26.1634 </r>
       <r>   -13.8097     2.7317    26.4536 </r>
       <r>   -13.7101     2.8548    26.7379 </r>
       <r>   -13.6105     2.3148    27.0379 </r>
       <r>   -13.5109     1.8995    27.3230 </r>
       <r>   -13.4112     2.6526    27.6702 </r>
       <r>   -13.3116     3.2075    28.0247 </r>
       <r>   -13.2120     2.1993    28.2508 </r>
       <r>   -13.1124     3.6908    28.6806 </r>
       <r>   -13.0128     1.9313    28.8772 </r>
       <r>   -12.9132     1.9118    29.2018 </r>
       <r>   -12.8136     3.6074    29.5612 </r>
       <r>   -12.7140     2.8331    29.9194 </r>
       <r>   -12.6143     1.2792    30.0911 </r>
       <r>   -12.5147     3.9066    30.6159 </r>
       <r>   -12.4151     1.1960    30.7359 </r>
       <r>   -12.3155     3.3137    31.2190 </r>
       <r>   -12.2159     1.5719    31.4536 </r>
       <r>   -12.1163     4.6294    31.9487 </r>
       <r>   -12.0167     1.8180    32.1312 </r>
       <r>   -11.9171     4.9453    32.6332 </r>
       <r>   -11.8174     2.4052    32.8972 </r>
       <r>   -11.7178     3.9395    33.3221 </r>
       <r>   -11.6182     2.7555    33.6124 </r>
       <r>   -11.5186     3.1888    33.9548 </r>
       <r>   -11.4190     1.3063    34.2571 </r>
       <r>   -11.3194     3.1773    34.6612 </r>
       <r>   -11.2198     2.4894    35.0372 </r>
       <r>   -11.1202     1.8329    35.3164 </r>
       <r>   -11.0205     4.9163    35.8685 </r>
       <r>   -10.9209     2.7829    36.1457 </r>
       <r>   -10.8213     5.5508    36.7207 </r>
       <r>   -10.7217     4.9111    37.2875 </r>
       <r>   -10.6221     5.5524    37.9318 </r>
       <r>   -10.5225     5.8223    38.5936 </r>
       <r>   -10.4229     5.6155    39.2351 </r>
       <r>   -10.3233     5.2134    39.8935 </r>
       <r>   -10.2236     5.9135    40.5981 </r>
       <r>   -10.1240     5.5637    41.2889 </r>
       <r>   -10.0244     5.1304    41.9623 </r>
       <r>    -9.9248     6.8854    42.7630 </r>
       <r>    -9.8252     6.1982    43.5108 </r>
       <r>    -9.7256     6.8386    44.4091 </r>
       <r>    -9.6260     8.1139    45.3797 </r>
       <r>    -9.5264     8.1985    46.4313 </r>
       <r>    -9.4267     4.3621    47.1647 </r>
       <r>    -9.3271     7.7009    48.0415 </r>
       <r>    -9.2275     5.9475    48.7104 </r>
       <r>    -9.1279     5.2253    49.3732 </r>
       <r>    -9.0283     6.7438    50.1140 </r>
       <r>    -8.9287     6.6248    50.8459 </r>
       <r>    -8.8291     4.7122    51.3356 </r>
       <r>    -8.7294     4.1822    51.8996 </r>
       <r>    -8.6298     4.4576    52.5620 </r>
       <r>    -8.5302     4.9273    53.1711 </r>
       <r>    -8.4306     3.9039    53.6588 </r>
       <r>    -8.3310     6.6688    54.4421 </r>
       <r>    -8.2314     2.6190    54.7371 </r>
       <r>    -8.1318     5.9341    55.4301 </r>
       <r>    -8.0322     4.0133    55.9191 </r>
       <r>    -7.9325     4.0066    56.4626 </r>
       <r>    -7.8329     4.0513    56.9659 </r>
       <r>    -7.7333     2.8281    57.4519 </r>
       <r>    -7.6337     6.0352    58.1341 </r>
       <r>    -7.5341     2.1609    58.4556 </r>
       <r>    -7.4345     6.2886    59.1208 </r>
       <r>    -7.3349     3.2378    59.4881 </r>
       <r>    -7.2353     4.7816    60.0319 </r>
       <r>    -7.1356     4.0861    60.4705 </r>
       <r>    -7.0360     4.5704    60.9905 </r>
       <r>    -6.9364     2.9586    61.3923 </r>
       <r>    -6.8368     3.1355    61.8725 </r>
       <r>    -6.7372     3.4116    62.4170 </r>
       <r>    -6.6376     3.9225    62.8760 </r>
       <r>    -6.5380     2.1816    63.3285 </r>
       <r>    -6.4384     3.1986    63.7835 </r>
       <r>    -6.3387     4.2986    64.2740 </r>
       <r>    -6.2391     2.8644    64.7751 </r>
       <r>    -6.1395     2.8672    65.1564 </r>
       <r>    -6.0399     4.0850    65.5680 </r>
       <r>    -5.9403     2.3073    65.8534 </r>
       <r>    -5.8407     1.4243    66.0104 </r>
       <r>    -5.7411     3.6146    66.4463 </r>
       <r>    -5.6415     2.3718    66.7215 </r>
       <r>    -5.5418     1.8394    66.9860 </r>
       <r>    -5.4422     3.7757    67.4782 </r>
       <r>    -5.3426     2.3257    67.8689 </r>
       <r>    -5.2430     3.9023    68.3252 </r>
       <r>    -5.1434     5.8268    69.0431 </r>
       <r>    -5.0438     0.6518    69.1352 </r>
       <r>    -4.9442     3.2238    69.5093 </r>
       <r>    -4.8446     0.8578    69.8179 </r>
       <r>    -4.7449     1.2159    69.9624 </r>
       <r>    -4.6453     3.5749    70.3334 </r>
       <r>    -4.5457     1.0497    70.4628 </r>
       <r>    -4.4461     0.9868    70.5926 </r>
       <r>    -4.3465     2.0959    70.8664 </r>
       <r>    -4.2469     0.7380    70.9760 </r>
       <r>    -4.1473     0.9606    71.0798 </r>
       <r>    -4.0476     1.3682    71.2565 </r>
       <r>    -3.9480     0.4560    71.3380 </r>
       <r>    -3.8484     0.7104    71.4268 </r>
       <r>    -3.7488     1.3658    71.5828 </r>
       <r>    -3.6492     0.5462    71.6372 </r>
       <r>    -3.5496     0.8192    71.7188 </r>
       <r>    -3.4500     0.5473    71.7733 </r>
       <r>    -3.3504     0.3639    71.8277 </r>
       <r>    -3.2507     0.6120    71.8886 </r>
       <r>    -3.1511     0.2732    71.9365 </r>
       <r>    -3.0515     0.0000    71.9365 </r>
       <r>    -2.9519     0.5463    71.9909 </r>
       <r>    -2.8523     0.0000    71.9909 </r>
       <r>    -2.7527     0.0401    71.9949 </r>
       <r>    -2.6531     0.0000    72.0091 </r>
       <r>    -2.5535     0.0000    72.0091 </r>
       <r>    -2.4538     0.5451    72.0634 </r>
       <r>    -2.3542     0.0000    72.0635 </r>
       <r>    -2.2546     0.3819    72.1015 </r>
       <r>    -2.1550     0.5463    72.1723 </r>
       <r>    -2.0554     0.5463    72.2268 </r>
       <r>    -1.9558     0.5592    72.2825 </r>
       <r>    -1.8562     0.6722    72.4026 </r>
       <r>    -1.7566     0.1997    72.4371 </r>
       <r>    -1.6569     1.3656    72.6077 </r>
       <r>    -1.5573     1.3337    72.7406 </r>
       <r>    -1.4577     0.5474    72.7983 </r>
       <r>    -1.3581     2.8386    73.0991 </r>
       <r>    -1.2585     0.5466    73.2064 </r>
       <r>    -1.1589     3.4575    73.5508 </r>
       <r>    -1.0593     1.4121    73.8368 </r>
       <r>    -0.9597     4.6056    74.3726 </r>
       <r>    -0.8600     4.6734    74.9780 </r>
       <r>    -0.7604     2.6000    75.4517 </r>
       <r>    -0.6608     3.1294    75.7766 </r>
       <r>    -0.5612     2.6223    76.0798 </r>
       <r>    -0.4616     1.9260    76.3914 </r>
       <r>    -0.3620     2.4644    76.6899 </r>
       <r>    -0.2624     2.2201    76.9559 </r>
       <r>    -0.1628     2.5139    77.2845 </r>
       <r>    -0.0631     2.2729    77.5144 </r>
       <r>     0.0365     1.0481    77.6917 </r>
       <r>     0.1361     3.5493    78.0497 </r>
       <r>     0.2357     1.2379    78.1732 </r>
       <r>     0.3353     2.4565    78.4578 </r>
       <r>     0.4349     1.7758    78.6350 </r>
       <r>     0.5345     1.6388    78.8934 </r>
       <r>     0.6341     1.3468    79.0276 </r>
       <r>     0.7338     2.7913    79.3439 </r>
       <r>     0.8334     2.9573    79.6506 </r>
       <r>     0.9330     3.4056    80.0535 </r>
       <r>     1.0326     2.4429    80.3749 </r>
       <r>     1.1322     4.3059    80.8870 </r>
       <r>     1.2318     2.3583    81.2009 </r>
       <r>     1.3314     2.5266    81.5442 </r>
       <r>     1.4311     3.6080    81.9966 </r>
       <r>     1.5307     3.5950    82.3854 </r>
       <r>     1.6303     3.6670    82.8551 </r>
       <r>     1.7299     5.2467    83.3980 </r>
       <r>     1.8295     7.1676    84.2242 </r>
       <r>     1.9291     5.7807    84.8707 </r>
       <r>     2.0287     6.3577    85.6356 </r>
       <r>     2.1283     5.8312    86.3904 </r>
       <r>     2.2280     7.9371    87.2079 </r>
       <r>     2.3276     6.7633    87.9618 </r>
       <r>     2.4272     6.5001    88.6974 </r>
       <r>     2.5268     6.2014    89.3751 </r>
       <r>     2.6264     6.2183    90.2024 </r>
       <r>     2.7260     5.6154    90.9222 </r>
       <r>     2.8256     7.6930    91.8095 </r>
       <r>     2.9252     6.2320    92.6208 </r>
       <r>     3.0249     7.6211    93.4938 </r>
       <r>     3.1245     5.5515    94.1040 </r>
       <r>     3.2241     6.0674    94.8085 </r>
       <r>     3.3237     5.0145    95.5199 </r>
       <r>     3.4233     2.2911    95.8019 </r>
       <r>     3.5229     1.4338    95.9706 </r>
       <r>     3.6225     0.0002    95.9728 </r>
       <r>     3.7221     0.2729    96.0000 </r>
       <r>     3.8218     0.0000    96.0000 </r>
       <r>     3.9214     0.0000    96.0000 </r>
       <r>     4.0210     0.0000    96.0000 </r>
       <r>     4.1206     0.0000    96.0000 </r>
       <r>     4.2202     0.0000    96.0000 </r>
       <r>     4.3198     0.0000    96.0000 </r>
       <r>     4.4194     0.0000    96.0000 </r>
       <r>     4.5190     0.0000    96.0000 </r>
       <r>     4.6187     0.0000    96.0000 </r>
       <r>     4.7183     0.0000    96.0000 </r>
       <r>     4.8179     0.0000    96.0000 </r>
       <r>     4.9175     0.0000    96.0000 </r>
       <r>     5.0171     0.0000    96.0000 </r>
      </set>
     </set>
    </array>
   </total>
  </dos>
 </calculation>
 <structure name="finalpos" >
  <crystal>
   <varray name="basis" >
    <v>       6.39000000      -3.68926800       0.00000000 </v>
    <v>       6.39000000       3.68926800       0.00000000 </v>
    <v>       0.00000000       0.00000000      20.00000000 </v>
   </varray>
   <i name="volume">    942.97690080 </i>
   <varray name="rec_basis" >
    <v>       0.07824726      -0.13552824       0.00000000 </v>
    <v>       0.07824726       0.13552824       0.00000000 </v>
    <v>       0.00000000       0.00000000       0.05000000 </v>
   </varray>
  </crystal>
  <varray name="positions" >
   <v>       0.00046909       0.00000000       0.00046909 </v>
   <v>       0.33333333       0.00000000       0.00000000 </v>
   <v>       0.66666667       0.00000000       0.00000000 </v>
   <v>       0.00000000       0.33333333       0.00000000 </v>
   <v>       0.33333333       0.33333333       0.00000000 </v>
   <v>       0.66666667       0.33333333       0.00000000 </v>
   <v>       0.00000000       0.66666667       0.00000000 </v>
   <v>       0.33333333       0.66666667       0.00000000 </v>
   <v>       0.66666667       0.66666667       0.00000000 </v>
   <v>       0.11111100       0.11111100       0.00000000 </v>
   <v>       0.44444433       0.11111100       0.00000000 </v>
   <v>       0.77777767       0.11111100       0.00000000 </v>
   <v>       0.11111100       0.44444433       0.00000000 </v>
   <v>       0.44444433       0.44444433       0.00000000 </v>
   <v>       0.77777767       0.44444433       0.00000000 </v>
   <v>       0.11111100       0.77777767       0.00000000 </v>
   <v>       0.44444433       0.77777767       0.00000000 </v>
   <v>       0.77777767       0.77777767       0.00000000 </v>
  </varray>
  <varray name="velocities" >
   <v>       0.00000000       0.00000000       0.00000000 </v>
   <v>       0.00000000       0.00000000       0.00000000 </v>
   <v>       0.00000000       0.00000000       0.00000000 </v>
   <v>       0.00000000       0.00000000       0.00000000 </v>
   <v>       0.00000000       0.00000000       0.00000000 </v>
   <v>       0.00000000       0.00000000       0.00000000 </v>
   <v>       0.00000000       0.00000000       0.00000000 </v>
   <v>       0.00000000       0.00000000       0.00000000 </v>
   <v>       0.00000000       0.00000000       0.00000000 </v>
   <v>       0.00000000       0.00000000       0.00000000 </v>
   <v>       0.00000000       0.00000000       0.00000000 </v>
   <v>       0.00000000       0.00000000       0.00000000 </v>
   <v>       0.00000000       0.00000000       0.00000000 </v>
   <v>       0.00000000       0.00000000       0.00000000 </v>
   <v>       0.00000000       0.00000000       0.00000000 </v>
   <v>       0.00000000       0.00000000       0.00000000 </v>
   <v>       0.00000000       0.00000000       0.00000000 </v>
   <v>       0.00000000       0.00000000       0.00000000 </v>
  </varray>
 </structure>
</modeling>
