    4    4   40    1
  0.2619380E+02  0.2459512E-09  0.2459512E-09  0.2000000E-08  0.5000000E-15
  1.000000000000000E-004
  CAR 
 bilayer_graphene_AA                     
     16     48     12
 
  0.3742002E-15  0.3742002E-15  0.1262379E-14  0.2267574E-02
    1      -20.800222   1.000000
    2      -20.788551   1.000000
    3       -8.979020   1.000000
    4       -8.798078   1.000000
    5       -4.248007   1.000000
    6       -4.247949   1.000000
    7       -4.247542   1.000000
    8       -4.247483   1.000000
    9        1.923365   0.000000
   10        2.481660   0.000000
   11        3.101528   0.000000
   12        3.994147   0.000000
 
  0.4761905E-01  0.3771171E-15  0.1262379E-14  0.1360544E-01
    1      -20.746363   1.000000
    2      -20.734740   1.000000
    3       -8.914348   1.000000
    4       -8.733927   1.000000
    5       -4.468933   1.000000
    6       -4.468292   1.000000
    7       -4.364871   1.000000
    8       -4.364332   1.000000
    9        1.995441   0.000000
   10        2.554877   0.000000
   11        3.174875   0.000000
   12        4.066503   0.000000
 
  0.9523810E-01  0.3768972E-15  0.1262379E-14  0.1360544E-01
    1      -20.584965   1.000000
    2      -20.573490   1.000000
    3       -8.720798   1.000000
    4       -8.541984   1.000000
    5       -5.088969   1.000000
    6       -5.087940   1.000000
    7       -4.684705   1.000000
    8       -4.684035   1.000000
    9        2.211733   0.000000
   10        2.774480   0.000000
   11        3.394843   0.000000
   12        4.283375   0.000000
 
  0.1428571E+00  0.3593300E-15  0.1262379E-14  0.1360544E-01
    1      -20.316592   1.000000
    2      -20.305367   1.000000
    3       -8.400093   1.000000
    4       -8.223968   1.000000
    5       -6.008573   1.000000
    6       -6.007025   1.000000
    7       -5.136366   1.000000
    8       -5.135589   1.000000
    9        2.572203   0.000000
   10        3.140182   0.000000
   11        3.761039   0.000000
   12        4.643907   0.000000
 
  0.1904762E+00  0.3695184E-15  0.1262379E-14  0.1360544E-01
    1      -19.942245   1.000000
    2      -19.931378   1.000000
    3       -7.955289   1.000000
    4       -7.783103   1.000000
    5       -7.121412   1.000000
    6       -7.119349   1.000000
    7       -5.645138   1.000000
    8       -5.644276   1.000000
    9        3.076364   0.000000
   10        3.651069   0.000000
   11        4.272099   0.000000
   12        5.145027   0.000000
 
  0.2380952E+00  0.1267399E-14  0.1262379E-14  0.1360544E-01
    1      -19.463439   1.000000
    2      -19.453014   1.000000
    3       -8.341321   1.000000
    4       -8.338639   1.000000
    5       -7.391663   1.000000
    6       -7.224795   1.000000
    7       -6.152152   1.000000
    8       -6.151212   1.000000
    9        3.723047   0.000000
   10        4.303814   0.000000
   11        4.920690   0.000000
   12        5.751915   0.000000
 
  0.2857143E+00  0.3625559E-15  0.1262379E-14  0.1360544E-01
    1      -18.882437   1.000000
    2      -18.872532   1.000000
    3       -9.605555   1.000000
    4       -9.602205   1.000000
    5       -6.718229   1.000000
    6       -6.616536   1.000000
    7       -6.615522   1.000000
    8       -6.558358   1.000000
    9        4.508033   0.000000
   10        4.966722   0.000000
   11        4.974494   0.000000
   12        5.261336   0.000000
 
  0.3333333E+00  0.3588666E-15  0.1262379E-14  0.1360544E-01
    1      -18.202721   1.000000
    2      -18.193392   1.000000
    3      -10.869507   1.000000
    4      -10.865418   1.000000
    5       -7.011440   1.000000
    6       -7.010391   1.000000
    7       -5.951346   1.000000
    8       -5.800610   1.000000
    9        3.658714   0.000000
   10        3.773270   0.000000
   11        5.432729   0.000000
   12        6.056936   0.000000
 
  0.3809524E+00  0.3551772E-15  0.1262379E-14  0.1360544E-01
    1      -17.430416   1.000000
    2      -17.421724   1.000000
    3      -12.099668   1.000000
    4      -12.094855   1.000000
    5       -7.319609   1.000000
    6       -7.318522   1.000000
    7       -5.124521   1.000000
    8       -4.985728   1.000000
    9        2.368711   0.000000
   10        2.500126   0.000000
   11        6.304308   0.000000
   12        6.400293   0.000000
 
  0.4285714E+00  0.3810475E-15  0.1262379E-14  0.1360544E-01
    1      -16.580656   1.000000
    2      -16.572629   1.000000
    3      -13.263309   1.000000
    4      -13.257783   1.000000
    5       -7.530236   1.000000
    6       -7.529126   1.000000
    7       -4.317401   1.000000
    8       -4.194180   1.000000
    9        1.234819   0.000000
   10        1.385768   0.000000
   11        6.281658   0.000000
   12        6.303083   0.000000
 
  0.4761905E+00  0.3496025E-15  0.1262379E-14  0.1360544E-01
    1      -15.735592   1.000000
    2      -15.728121   1.000000
    3      -14.267753   1.000000
    4      -14.261645   1.000000
    5       -7.636986   1.000000
    6       -7.635871   1.000000
    7       -3.736807   1.000000
    8       -3.629486   1.000000
    9        0.485840   0.000000
   10        0.654975   0.000000
   11        6.232071   0.000000
   12        6.249991   0.000000
 
  0.9523810E-01  0.4761905E-01  0.1262379E-14  0.1360544E-01
    1      -20.638733   1.000000
    2      -20.627210   1.000000
    3       -8.785240   1.000000
    4       -8.605872   1.000000
    5       -4.874026   1.000000
    6       -4.873125   1.000000
    7       -4.598718   1.000000
    8       -4.598092   1.000000
    9        2.139643   0.000000
   10        2.701297   0.000000
   11        3.321543   0.000000
   12        4.211128   0.000000
 
  0.1428571E+00  0.4761905E-01  0.1262379E-14  0.2721088E-01
    1      -20.423852   1.000000
    2      -20.412526   1.000000
    3       -8.528070   1.000000
    4       -8.350866   1.000000
    5       -5.611017   1.000000
    6       -5.609731   1.000000
    7       -5.017855   1.000000
    8       -5.017036   1.000000
    9        2.428127   0.000000
   10        2.994015   0.000000
   11        3.614701   0.000000
   12        4.499946   0.000000
 
  0.1904762E+00  0.4761905E-01  0.1262379E-14  0.2721088E-01
    1      -20.102495   1.000000
    2      -20.091474   1.000000
    3       -8.145187   1.000000
    4       -7.971312   1.000000
    5       -6.597305   1.000000
    6       -6.595513   1.000000
    7       -5.528835   1.000000
    8       -5.527858   1.000000
    9        2.860649   0.000000
   10        3.432518   0.000000
   11        4.053633   0.000000
   12        4.931512   0.000000
 
  0.2380952E+00  0.4761905E-01  0.1262379E-14  0.2721088E-01
    1      -19.675920   1.000000
    2      -19.665300   1.000000
    3       -7.742361   1.000000
    4       -7.740005   1.000000
    5       -7.640624   1.000000
    6       -7.471355   1.000000
    7       -6.058712   1.000000
    8       -6.057635   1.000000
    9        3.436421   0.000000
   10        4.015244   0.000000
   11        4.635694   0.000000
   12        5.498467   0.000000
 
  0.2857143E+00  0.4761905E-01  0.1262379E-14  0.2721088E-01
    1      -19.146002   1.000000
    2      -19.135869   1.000000
    3       -8.970590   1.000000
    4       -8.967610   1.000000
    5       -7.021240   1.000000
    6       -6.858086   1.000000
    7       -6.558593   1.000000
    8       -6.557444   1.000000
    9        4.153688   0.000000
   10        4.732152   0.000000
   11        5.306805   0.000000
   12        5.660992   0.000000
 
  0.3333333E+00  0.4761905E-01  0.1262379E-14  0.2721088E-01
    1      -18.515568   1.000000
    2      -18.505984   1.000000
    3      -10.226109   1.000000
    4      -10.222422   1.000000
    5       -6.996940   1.000000
    6       -6.995729   1.000000
    7       -6.298921   1.000000
    8       -6.143749   1.000000
    9        4.287909   0.000000
   10        4.389494   0.000000
   11        5.012749   0.000000
   12        5.636403   0.000000
 
  0.3809524E+00  0.4761905E-01  0.1262379E-14  0.2721088E-01
    1      -17.789163   1.000000
    2      -17.780175   1.000000
    3      -11.468281   1.000000
    4      -11.463853   1.000000
    5       -7.353621   1.000000
    6       -7.352355   1.000000
    7       -5.496475   1.000000
    8       -5.351723   1.000000
    9        2.980370   0.000000
   10        3.098847   0.000000
   11        5.993207   0.000000
   12        6.584122   0.000000
 
  0.4285714E+00  0.4761905E-01  0.1262379E-14  0.2721088E-01
    1      -16.975912   1.000000
    2      -16.967591   1.000000
    3      -12.664271   1.000000
    4      -12.659141   1.000000
    5       -7.615901   1.000000
    6       -7.614627   1.000000
    7       -4.664123   1.000000
    8       -4.532975   1.000000
    9        1.758305   0.000000
   10        1.895439   0.000000
   11        6.553539   0.000000
   12        6.590550   0.000000
 
  0.4761905E+00  0.4761905E-01  0.1262379E-14  0.2721088E-01
    1      -16.106517   1.000000
    2      -16.098830   1.000000
    3      -13.768688   1.000000
    4      -13.762861   1.000000
    5       -7.776055   1.000000
    6       -7.774762   1.000000
    7       -3.929938   1.000000
    8       -3.815516   1.000000
    9        0.780138   0.000000
   10        0.937372   0.000000
   11        6.493515   0.000000
   12        6.513769   0.000000
 
 -0.4761905E+00  0.4761905E-01  0.1262379E-14  0.1360544E-01
    1      -15.487429   1.000000
    2      -15.480095   1.000000
    3      -14.466967   1.000000
    4      -14.460781   1.000000
    5       -7.829868   1.000000
    6       -7.828581   1.000000
    7       -3.598704   1.000000
    8       -3.494579   1.000000
    9        0.365910   0.000000
   10        0.534690   0.000000
   11        6.467996   0.000000
   12        6.486910   0.000000
 
  0.1904762E+00  0.9523810E-01  0.1262379E-14  0.1360544E-01
    1      -20.155985   1.000000
    2      -20.144912   1.000000
    3       -8.208676   1.000000
    4       -8.034221   1.000000
    5       -6.353318   1.000000
    6       -6.351700   1.000000
    7       -5.558418   1.000000
    8       -5.557334   1.000000
    9        2.788841   0.000000
   10        3.359680   0.000000
   11        3.980787   0.000000
   12        4.860193   0.000000
 
  0.2380952E+00  0.9523810E-01  0.1262379E-14  0.2721088E-01
    1      -19.782409   1.000000
    2      -19.771692   1.000000
    3       -7.765715   1.000000
    4       -7.595244   1.000000
    5       -7.296320   1.000000
    6       -7.294280   1.000000
    7       -6.167183   1.000000
    8       -6.165879   1.000000
    9        3.293342   0.000000
   10        3.870668   0.000000
   11        4.491936   0.000000
   12        5.361940   0.000000
 
  0.2857143E+00  0.9523810E-01  0.1262379E-14  0.2721088E-01
    1      -19.304723   1.000000
    2      -19.294449   1.000000
    3       -8.396396   1.000000
    4       -8.393795   1.000000
    5       -7.204408   1.000000
    6       -7.039311   1.000000
    7       -6.744275   1.000000
    8       -6.742794   1.000000
    9        3.940441   0.000000
   10        4.524169   0.000000
   11        5.141632   0.000000
   12        5.935738   0.000000
 
  0.3333333E+00  0.9523810E-01  0.1262379E-14  0.2721088E-01
    1      -18.725314   1.000000
    2      -18.715552   1.000000
    3       -9.584451   1.000000
    4       -9.581193   1.000000
    5       -7.250094   1.000000
    6       -7.248508   1.000000
    7       -6.533530   1.000000
    8       -6.375434   1.000000
    9        4.720744   0.000000
   10        4.816457   0.000000
   11        4.879591   0.000000
   12        5.352002   0.000000
 
  0.3809524E+00  0.9523810E-01  0.1262379E-14  0.2721088E-01
    1      -18.047838   1.000000
    2      -18.038649   1.000000
    3      -10.800554   1.000000
    4      -10.796595   1.000000
    5       -7.668264   1.000000
    6       -7.666601   1.000000
    7       -5.768971   1.000000
    8       -5.619935   1.000000
    9        3.534973   0.000000
   10        3.633243   0.000000
   11        5.654466   0.000000
   12        6.273074   0.000000
 
  0.4285714E+00  0.9523810E-01  0.1262379E-14  0.2721088E-01
    1      -17.278665   1.000000
    2      -17.270115   1.000000
    3      -12.000162   1.000000
    4      -11.995475   1.000000
    5       -7.989067   1.000000
    6       -7.987367   1.000000
    7       -4.942869   1.000000
    8       -4.805578   1.000000
    9        2.289660   0.000000
   10        2.406224   0.000000
   11        6.700769   0.000000
   12        7.261871   0.000000
 
  0.4761905E+00  0.9523810E-01  0.1262379E-14  0.2721088E-01
    1      -16.433408   1.000000
    2      -16.425500   1.000000
    3      -13.143806   1.000000
    4      -13.138388   1.000000
    5       -8.206199   1.000000
    6       -8.204436   1.000000
    7       -4.132063   1.000000
    8       -4.009883   1.000000
    9        1.182545   0.000000
   10        1.319100   0.000000
   11        7.200939   0.000000
   12        7.234821   0.000000
 
 -0.4761905E+00  0.9523810E-01  0.1262379E-14  0.2721088E-01
    1      -15.594812   1.000000
    2      -15.587489   1.000000
    3      -14.134777   1.000000
    4      -14.128771   1.000000
    5       -8.315691   1.000000
    6       -8.313932   1.000000
    7       -3.542065   1.000000
    8       -3.435499   1.000000
    9        0.439440   0.000000
   10        0.594152   0.000000
   11        7.158991   0.000000
   12        7.182856   0.000000
 
  0.2857143E+00  0.1428571E+00  0.1262379E-14  0.1360544E-01
    1      -19.357723   1.000000
    2      -19.347400   1.000000
    3       -8.111606   1.000000
    4       -8.109221   1.000000
    5       -7.265663   1.000000
    6       -7.099930   1.000000
    7       -6.906297   1.000000
    8       -6.904602   1.000000
    9        3.869327   0.000000
   10        4.453535   0.000000
   11        5.074361   0.000000
   12        5.933416   0.000000
 
  0.3333333E+00  0.1428571E+00  0.1262379E-14  0.2721088E-01
    1      -18.830526   1.000000
    2      -18.820679   1.000000
    3       -9.078285   1.000000
    4       -9.075403   1.000000
    5       -7.583117   1.000000
    6       -7.581124   1.000000
    7       -6.651680   1.000000
    8       -6.492146   1.000000
    9        4.586790   0.000000
   10        5.123987   0.000000
   11        5.144955   0.000000
   12        5.222937   0.000000
 
  0.3809524E+00  0.1428571E+00  0.1262379E-14  0.2721088E-01
    1      -18.203930   1.000000
    2      -18.194620   1.000000
    3      -10.170217   1.000000
    4      -10.166730   1.000000
    5       -8.126074   1.000000
    6       -8.123900   1.000000
    7       -5.935013   1.000000
    8       -5.783432   1.000000
    9        3.942842   0.000000
   10        4.018748   0.000000
   11        5.444014   0.000000
   12        6.049060   0.000000
 
  0.4285714E+00  0.1428571E+00  0.1262379E-14  0.2721088E-01
    1      -17.482904   1.000000
    2      -17.474198   1.000000
    3      -11.315947   1.000000
    4      -11.311773   1.000000
    5       -8.537234   1.000000
    6       -8.534970   1.000000
    7       -5.136702   1.000000
    8       -4.995269   1.000000
    9        2.744247   0.000000
   10        2.836823   0.000000
   11        6.435290   0.000000
   12        7.051287   0.000000
 
  0.4761905E+00  0.1428571E+00  0.1262379E-14  0.2721088E-01
    1      -16.677318   1.000000
    2      -16.669241   1.000000
    3      -12.453629   1.000000
    4      -12.448699   1.000000
    5       -8.827025   1.000000
    6       -8.824673   1.000000
    7       -4.302492   1.000000
    8       -4.174063   1.000000
    9        1.601378   0.000000
   10        1.712360   0.000000
   11        7.547018   0.000000
   12        8.151504   0.000000
 
 -0.4761905E+00  0.1428571E+00  0.1262379E-14  0.2721088E-01
    1      -15.818801   1.000000
    2      -15.811368   1.000000
    3      -13.521411   1.000000
    4      -13.515796   1.000000
    5       -8.999992   1.000000
    6       -8.997611   1.000000
    7       -3.553104   1.000000
    8       -3.440448   1.000000
    9        0.657137   0.000000
   10        0.787568   0.000000
   11        8.191011   0.000000
   12        8.235067   0.000000
 
 -0.4285714E+00  0.1428571E+00  0.1262379E-14  0.1360544E-01
    1      -15.211088   1.000000
    2      -15.204027   1.000000
    3      -14.200422   1.000000
    4      -14.194441   1.000000
    5       -9.057588   1.000000
    6       -9.055200   1.000000
    7       -3.205123   1.000000
    8       -3.102536   1.000000
    9        0.242546   0.000000
   10        0.384288   0.000000
   11        8.174121   0.000000
   12        8.209172   0.000000
 
  0.3809524E+00  0.1904762E+00  0.1262379E-14  0.1360544E-01
    1      -18.256091   1.000000
    2      -18.246749   1.000000
    3       -9.840656   1.000000
    4       -9.837459   1.000000
    5       -8.405488   1.000000
    6       -8.403023   1.000000
    7       -5.990770   1.000000
    8       -5.838337   1.000000
    9        4.097156   0.000000
   10        4.162357   0.000000
   11        5.373150   0.000000
   12        5.971676   0.000000
 
  0.4285714E+00  0.1904762E+00  0.1262379E-14  0.2721088E-01
    1      -17.585667   1.000000
    2      -17.576875   1.000000
    3      -10.750680   1.000000
    4      -10.746951   1.000000
    5       -9.053632   1.000000
    6       -9.050854   1.000000
    7       -5.235840   1.000000
    8       -5.092352   1.000000
    9        3.015387   0.000000
   10        3.089921   0.000000
   11        6.295157   0.000000
   12        6.899222   0.000000
 
  0.4761905E+00  0.1904762E+00  0.1262379E-14  0.2721088E-01
    1      -16.826538   1.000000
    2      -16.818347   1.000000
    3      -11.776761   1.000000
    4      -11.772343   1.000000
    5       -9.493510   1.000000
    6       -9.490557   1.000000
    7       -4.414371   1.000000
    8       -4.281997   1.000000
    9        1.926756   0.000000
   10        2.014407   0.000000
   11        7.345226   0.000000
   12        7.950030   0.000000
 
 -0.4761905E+00  0.1904762E+00  0.1262379E-14  0.2721088E-01
    1      -15.995443   1.000000
    2      -15.987908   1.000000
    3      -12.825397   1.000000
    4      -12.820277   1.000000
    5       -9.764795   1.000000
    6       -9.761770   1.000000
    7       -3.591756   1.000000
    8       -3.473127   1.000000
    9        0.913636   0.000000
   10        1.017338   0.000000
   11        8.502253   0.000000
   12        9.088006   0.000000
 
 -0.4285714E+00  0.1904762E+00  0.1262379E-14  0.2721088E-01
    1      -15.175246   1.000000
    2      -15.168295   1.000000
    3      -13.764466   1.000000
    4      -13.758733   1.000000
    5       -9.895321   1.000000
    6       -9.892257   1.000000
    7       -2.964161   1.000000
    8       -2.859940   1.000000
    9        0.186549   0.000000
   10        0.306125   0.000000
   11        9.390505   0.000000
   12        9.467681   0.000000
 
  0.4761905E+00  0.2380952E+00  0.1262379E-14  0.1360544E-01
    1      -16.876661   1.000000
    2      -16.868438   1.000000
    3      -11.405798   1.000000
    4      -11.401712   1.000000
    5       -9.866319   1.000000
    6       -9.863037   1.000000
    7       -4.453166   1.000000
    8       -4.319473   1.000000
    9        2.051416   0.000000
   10        2.129131   0.000000
   11        7.274858   0.000000
   12        7.870811   0.000000
 
 -0.4761905E+00  0.2380952E+00  0.1262379E-14  0.2721088E-01
    1      -16.088283   1.000000
    2      -16.080702   1.000000
    3      -12.220267   1.000000
    4      -12.215611   1.000000
    5      -10.414234   1.000000
    6      -10.410683   1.000000
    7       -3.620981   1.000000
    8       -3.498904   1.000000
    9        1.085887   0.000000
   10        1.171359   0.000000
   11        8.361019   0.000000
   12        8.919863   0.000000
 
 -0.4285714E+00  0.2380952E+00  0.1262379E-14  0.2721088E-01
    1      -15.253044   1.000000
    2      -15.246092   1.000000
    3      -13.126432   1.000000
    4      -13.121152   1.000000
    5      -10.699425   1.000000
    6      -10.695748   1.000000
    7       -2.831989   1.000000
    8       -2.723291   1.000000
    9        0.214171   0.000000
   10        0.311222   0.000000
   11        9.285417   0.000000
   12        9.684587   0.000000
 
 -0.3809524E+00  0.2380952E+00  0.1262379E-14  0.1360544E-01
    1      -14.659599   1.000000
    2      -14.653064   1.000000
    3      -13.753225   1.000000
    4      -13.747508   1.000000
    5      -10.786666   1.000000
    6      -10.782960   1.000000
    7       -2.423843   1.000000
    8       -2.324373   1.000000
    9       -0.222184   0.000000
   10       -0.116371   0.000000
   11        9.400948   0.000000
   12       10.193540   0.000000
 
 -0.4285714E+00  0.2857143E+00  0.1262379E-14  0.1360544E-01
    1      -15.287660   1.000000
    2      -15.280702   1.000000
    3      -12.746950   1.000000
    4      -12.741950   1.000000
    5      -11.129521   1.000000
    6      -11.125503   1.000000
    7       -2.791883   1.000000
    8       -2.680956   1.000000
    9        0.237843   0.000000
   10        0.325201   0.000000
   11        9.135384   0.000000
   12        9.603273   0.000000
 
 -0.3809524E+00  0.2857143E+00  0.1262379E-14  0.2721088E-01
    1      -14.495857   1.000000
    2      -14.489503   1.000000
    3      -13.411115   1.000000
    4      -13.405630   1.000000
    5      -11.484480   1.000000
    6      -11.480262   1.000000
    7       -2.048617   1.000000
    8       -1.948578   1.000000
    9       -0.511057   0.000000
   10       -0.417602   0.000000
   11        9.117104   0.000000
   12        9.937933   0.000000
 
 -0.3333333E+00  0.3333333E+00  0.1262379E-14  0.4535147E-02
    1      -13.836022   1.000000
    2      -13.835989   1.000000
    3      -13.830186   1.000000
    4      -13.830154   1.000000
    5      -11.826282   1.000000
    6      -11.821815   1.000000
    7       -1.268100   1.000000
    8       -1.268074   1.000000
    9       -1.173639   0.000000
   10       -1.173612   0.000000
   11        9.006158   0.000000
   12        9.848300   0.000000
