36   
2    

1    
  0.0029975141742964  -0.0017306155121718   0.0093818909993627
  -0.1893940500    0.1081970900   -0.1340824000
   0.0128071800   -0.0103150900   -0.0055199700
   0.0150527700   -0.0056312400   -0.0053530600
   0.0040050700    0.0137225400   -0.0054524700
   0.0042692700   -0.0024301400    0.0013168600
  -0.0100338700   -0.0100343600   -0.0054202200
   0.0012945700    0.0090776500   -0.0053687800
  -0.0075221000   -0.0060766400   -0.0055034800
   0.0039504700   -0.0024284000    0.0013167300
   0.0776760200   -0.0187960200    0.0568226900
   0.0000810700   -0.0001608300   -0.0093855800
   0.0549508900   -0.0573387100    0.0576703400
  -0.0012289500    0.0024649200   -0.0093675300
  -0.0023971400    0.0000174300   -0.0094040900
   0.0069654800   -0.0037524100    0.0025207700
   0.0329605400   -0.0183470000    0.0572528800
   0.0012532400    0.0057684000    0.0025166400
  -0.0046873600   -0.0039388400    0.0025246500
  -0.0003798900    0.0002215300    0.0007736400
   0.0000452400    0.0001539100    0.0007049500
  -0.0002688700    0.0000847100    0.0007079300
  -0.0001228700   -0.0000667100    0.0007026900
  -0.0003045300    0.0001976600    0.0007130200
  -0.0001328600    0.0003755700    0.0007102900
  -0.0001224300    0.0000024700    0.0007041600
  -0.0002901400   -0.0003071100    0.0007088300
  -0.0006236200    0.0001976100    0.0007130500
   0.0002962900    0.0000073200    0.0007195400
   0.0001467500   -0.0001806300    0.0007152900
   0.0001545000   -0.0002942800    0.0007417500
   0.0003131800   -0.0001166500    0.0007167900
   0.0006190600   -0.0000045100    0.0007140900
   0.0000987100    0.0002197300    0.0007130600
  -0.0000183400    0.0000095000    0.0007305900
   0.0002813500   -0.0005109900    0.0007128600
   0.0003053600    0.0000125400    0.0007135000

1    
 -0.0029975141742964   0.0017306155121718  -0.0093818909993627
   0.1884059700   -0.1099258700    0.1326560800
  -0.0126002700    0.0102132700    0.0039235100
  -0.0154509100    0.0061050400    0.0040969800
  -0.0038857000   -0.0136695700    0.0039900500
  -0.0041806900    0.0024484600   -0.0027434000
   0.0097566200    0.0105125300    0.0040300300
  -0.0015308100   -0.0095228700    0.0040765100
   0.0071873500    0.0056528300    0.0039430000
  -0.0044987000    0.0024496800   -0.0027433400
  -0.0771883700    0.0189257700   -0.0590918000
   0.0001802900   -0.0002195500    0.0079591500
  -0.0551320400    0.0578870500   -0.0582551200
   0.0014903800   -0.0021298300    0.0079779400
   0.0029442400   -0.0000401100    0.0079405700
  -0.0067321800    0.0041532400   -0.0039471300
  -0.0323713000    0.0193924300   -0.0586798100
  -0.0009679800   -0.0061995600   -0.0039504700
   0.0045713100    0.0039687900   -0.0039440100
   0.0003916700   -0.0002239400    0.0006544700
   0.0000041200   -0.0002095800    0.0007214600
  -0.0000075600    0.0002769700    0.0007186300
   0.0001739400    0.0001210900    0.0007238300
   0.0003842600   -0.0002000200    0.0007125300
  -0.0001088100    0.0000406100    0.0007163500
  -0.0001557000   -0.0003655000    0.0007223900
   0.0000501100   -0.0001103400    0.0007177800
   0.0000651500   -0.0002001000    0.0007125500
  -0.0003036300   -0.0000070000    0.0007079800
   0.0001267900   -0.0001788500    0.0007107100
  -0.0002032100    0.0003538600    0.0006854800
  -0.0000416100    0.0004797200    0.0007095300
  -0.0000579000    0.0000046200    0.0007121800
   0.0001431000    0.0001966600    0.0007128300
  -0.0000286200   -0.0000654900    0.0006966600
  -0.0000414400    0.0000980700    0.0007133100
  -0.0003878700   -0.0000124600    0.0007126000