  36  36   0   0
  0.2619380E+02  0.7378536E-09  0.7378536E-09  0.2000000E-08  0.5000000E-15
  1.000000000000000E-004
  CAR 
 C-4                                     
      7.18475674    -22.12719743  301     -1.21189680      1.00000000
    -22.127  0.0000E+00  0.0000E+00
    -22.029  0.0000E+00  0.0000E+00
    -21.932  0.0000E+00  0.0000E+00
    -21.834  0.0000E+00  0.0000E+00
    -21.736  0.0000E+00  0.0000E+00
    -21.639  0.0000E+00  0.0000E+00
    -21.541  0.0000E+00  0.0000E+00
    -21.443  0.0000E+00  0.0000E+00
    -21.346  0.0000E+00  0.0000E+00
    -21.248  0.0000E+00  0.0000E+00
    -21.150  0.0000E+00  0.0000E+00
    -21.052  0.0000E+00  0.0000E+00
    -20.955  0.0000E+00  0.0000E+00
    -20.857  0.0000E+00  0.0000E+00
    -20.759  0.1654E+01  0.1616E+00
    -20.662  0.5016E+01  0.7173E+00
    -20.564  0.4493E+01  0.1237E+01
    -20.466  0.4376E+01  0.1797E+01
    -20.368  0.4495E+01  0.2299E+01
    -20.271  0.4984E+01  0.2836E+01
    -20.173  0.5635E+01  0.3390E+01
    -20.075  0.5092E+01  0.3935E+01
    -19.978  0.5569E+01  0.4526E+01
    -19.880  0.4873E+01  0.5057E+01
    -19.782  0.3869E+01  0.5503E+01
    -19.685  0.3874E+01  0.6102E+01
    -19.587  0.5882E+01  0.6733E+01
    -19.489  0.4728E+01  0.7219E+01
    -19.391  0.4071E+01  0.7700E+01
    -19.294  0.5591E+01  0.8338E+01
    -19.196  0.3605E+01  0.8742E+01
    -19.098  0.6064E+01  0.9418E+01
    -19.001  0.4818E+01  0.9922E+01
    -18.903  0.4424E+01  0.1051E+02
    -18.805  0.5571E+01  0.1106E+02
    -18.707  0.4217E+01  0.1163E+02
    -18.610  0.5516E+01  0.1219E+02
    -18.512  0.3958E+01  0.1267E+02
    -18.414  0.4842E+01  0.1333E+02
    -18.317  0.3492E+01  0.1379E+02
    -18.219  0.4690E+01  0.1434E+02
    -18.121  0.5095E+01  0.1493E+02
    -18.024  0.5061E+01  0.1552E+02
    -17.926  0.4751E+01  0.1609E+02
    -17.828  0.2320E+01  0.1645E+02
    -17.730  0.5806E+01  0.1718E+02
    -17.633  0.3412E+01  0.1765E+02
    -17.535  0.6388E+01  0.1835E+02
    -17.437  0.3273E+01  0.1883E+02
    -17.340  0.5670E+01  0.1947E+02
    -17.242  0.5213E+01  0.2011E+02
    -17.144  0.3439E+01  0.2048E+02
    -17.046  0.6624E+01  0.2123E+02
    -16.949  0.4782E+01  0.2176E+02
    -16.851  0.4750E+01  0.2230E+02
    -16.753  0.4456E+01  0.2292E+02
    -16.656  0.5488E+01  0.2346E+02
    -16.558  0.6577E+01  0.2411E+02
    -16.460  0.3437E+01  0.2462E+02
    -16.363  0.4605E+01  0.2517E+02
    -16.265  0.6194E+01  0.2592E+02
    -16.167  0.3726E+01  0.2639E+02
    -16.069  0.6635E+01  0.2711E+02
    -15.972  0.5682E+01  0.2778E+02
    -15.874  0.4037E+01  0.2821E+02
    -15.776  0.7896E+01  0.2903E+02
    -15.679  0.5984E+01  0.2967E+02
    -15.581  0.5868E+01  0.3035E+02
    -15.483  0.9607E+01  0.3137E+02
    -15.385  0.4837E+01  0.3208E+02
    -15.288  0.3797E+01  0.3254E+02
    -15.190  0.4535E+01  0.3316E+02
    -15.092  0.3341E+01  0.3353E+02
    -14.995  0.2965E+01  0.3382E+02
    -14.897  0.2784E+01  0.3435E+02
    -14.799  0.6638E+00  0.3441E+02
    -14.702  0.5013E+01  0.3500E+02
    -14.604  0.5570E+00  0.3506E+02
    -14.506  0.1922E+01  0.3524E+02
    -14.408  0.4655E+01  0.3581E+02
    -14.311  0.3701E+01  0.3634E+02
    -14.213  0.5532E+01  0.3701E+02
    -14.115  0.3199E+01  0.3748E+02
    -14.018  0.6344E+01  0.3822E+02
    -13.920  0.5022E+01  0.3876E+02
    -13.822  0.3636E+01  0.3923E+02
    -13.724  0.7082E+01  0.3998E+02
    -13.627  0.6034E+01  0.4061E+02
    -13.529  0.6252E+01  0.4150E+02
    -13.431  0.5138E+01  0.4224E+02
    -13.334  0.7223E+01  0.4298E+02
    -13.236  0.5782E+01  0.4371E+02
    -13.138  0.6048E+01  0.4434E+02
    -13.040  0.5182E+01  0.4499E+02
    -12.943  0.2956E+01  0.4545E+02
    -12.845  0.3342E+01  0.4603E+02
    -12.747  0.6183E+01  0.4669E+02
    -12.650  0.5730E+01  0.4730E+02
    -12.552  0.3599E+01  0.4774E+02
    -12.454  0.4617E+01  0.4833E+02
    -12.357  0.3396E+01  0.4887E+02
    -12.259  0.3886E+01  0.4935E+02
    -12.161  0.3481E+01  0.4980E+02
    -12.063  0.5280E+01  0.5041E+02
    -11.966  0.2773E+01  0.5082E+02
    -11.868  0.5259E+01  0.5133E+02
    -11.770  0.3993E+01  0.5181E+02
    -11.673  0.4673E+01  0.5244E+02
    -11.575  0.6280E+01  0.5320E+02
    -11.477  0.3605E+01  0.5359E+02
    -11.379  0.6018E+01  0.5444E+02
    -11.282  0.3387E+01  0.5487E+02
    -11.184  0.5759E+01  0.5563E+02
    -11.086  0.3528E+01  0.5611E+02
    -10.989  0.6291E+01  0.5690E+02
    -10.891  0.6432E+01  0.5767E+02
    -10.793  0.4441E+01  0.5813E+02
    -10.696  0.6483E+01  0.5887E+02
    -10.598  0.6022E+01  0.5959E+02
    -10.500  0.5614E+01  0.6015E+02
    -10.402  0.6944E+01  0.6093E+02
    -10.305  0.4564E+01  0.6160E+02
    -10.207  0.5023E+01  0.6211E+02
    -10.109  0.6422E+01  0.6304E+02
    -10.012  0.3770E+01  0.6345E+02
     -9.914  0.4302E+01  0.6418E+02
     -9.816  0.5398E+01  0.6486E+02
     -9.718  0.4825E+01  0.6575E+02
     -9.621  0.3566E+01  0.6610E+02
     -9.523  0.1000E+02  0.6731E+02
     -9.425  0.3821E+01  0.6776E+02
     -9.328  0.8699E+01  0.6867E+02
     -9.230  0.4272E+01  0.6934E+02
     -9.132  0.8207E+01  0.7024E+02
     -9.035  0.5821E+01  0.7095E+02
     -8.937  0.9686E+01  0.7203E+02
     -8.839  0.6908E+01  0.7277E+02
     -8.741  0.1159E+02  0.7410E+02
     -8.644  0.8063E+01  0.7523E+02
     -8.546  0.1083E+02  0.7651E+02
     -8.448  0.8993E+01  0.7778E+02
     -8.351  0.1104E+02  0.7918E+02
     -8.253  0.1122E+02  0.8066E+02
     -8.155  0.7296E+01  0.8177E+02
     -8.057  0.1437E+02  0.8372E+02
     -7.960  0.1005E+02  0.8486E+02
     -7.862  0.1399E+02  0.8666E+02
     -7.764  0.1589E+02  0.8843E+02
     -7.667  0.1462E+02  0.9013E+02
     -7.569  0.1761E+02  0.9231E+02
     -7.471  0.1602E+02  0.9418E+02
     -7.374  0.1484E+02  0.9580E+02
     -7.276  0.1246E+02  0.9736E+02
     -7.178  0.1344E+02  0.9886E+02
     -7.080  0.1227E+02  0.1002E+03
     -6.983  0.9877E+01  0.1014E+03
     -6.885  0.1233E+02  0.1027E+03
     -6.787  0.1146E+02  0.1040E+03
     -6.690  0.1200E+02  0.1053E+03
     -6.592  0.1076E+02  0.1065E+03
     -6.494  0.8665E+01  0.1076E+03
     -6.396  0.1067E+02  0.1088E+03
     -6.299  0.7352E+01  0.1099E+03
     -6.201  0.9574E+01  0.1111E+03
     -6.103  0.8064E+01  0.1122E+03
     -6.006  0.1159E+02  0.1133E+03
     -5.908  0.1050E+02  0.1144E+03
     -5.810  0.8751E+01  0.1154E+03
     -5.713  0.8794E+01  0.1165E+03
     -5.615  0.5284E+01  0.1174E+03
     -5.517  0.1228E+02  0.1188E+03
     -5.419  0.4988E+01  0.1194E+03
     -5.322  0.1148E+02  0.1208E+03
     -5.224  0.7451E+01  0.1216E+03
     -5.126  0.7739E+01  0.1226E+03
     -5.029  0.8024E+01  0.1236E+03
     -4.931  0.8414E+01  0.1246E+03
     -4.833  0.1004E+02  0.1257E+03
     -4.735  0.5885E+01  0.1264E+03
     -4.638  0.9167E+01  0.1275E+03
     -4.540  0.8126E+01  0.1285E+03
     -4.442  0.7096E+01  0.1294E+03
     -4.345  0.7656E+01  0.1304E+03
     -4.247  0.9327E+01  0.1315E+03
     -4.149  0.5531E+01  0.1321E+03
     -4.051  0.5620E+01  0.1327E+03
     -3.954  0.5235E+01  0.1334E+03
     -3.856  0.5559E+01  0.1341E+03
     -3.758  0.5906E+01  0.1349E+03
     -3.661  0.6316E+01  0.1357E+03
     -3.563  0.9008E+01  0.1368E+03
     -3.465  0.7078E+01  0.1377E+03
     -3.368  0.5125E+01  0.1384E+03
     -3.270  0.5932E+01  0.1390E+03
     -3.172  0.6127E+01  0.1397E+03
     -3.074  0.4381E+01  0.1401E+03
     -2.977  0.3072E+01  0.1406E+03
     -2.879  0.3231E+01  0.1410E+03
     -2.781  0.3505E+01  0.1414E+03
     -2.684  0.2373E+01  0.1417E+03
     -2.586  0.1568E+01  0.1420E+03
     -2.488  0.2444E+01  0.1423E+03
     -2.390  0.2141E+01  0.1426E+03
     -2.293  0.1366E+01  0.1428E+03
     -2.195  0.2397E+01  0.1430E+03
     -2.097  0.1950E+01  0.1432E+03
     -2.000  0.1462E+01  0.1434E+03
     -1.902  0.1229E+01  0.1435E+03
     -1.804  0.3514E+00  0.1436E+03
     -1.707  0.8365E+00  0.1437E+03
     -1.609  0.1114E+01  0.1438E+03
     -1.511  0.6869E+00  0.1439E+03
     -1.413  0.5166E+00  0.1440E+03
     -1.316  0.1350E-13  0.1440E+03
     -1.218  0.1857E+00  0.1440E+03
     -1.120  0.1857E+00  0.1440E+03
     -1.023  0.6067E-02  0.1440E+03
     -0.925  0.1122E+00  0.1441E+03
     -0.827  0.2774E+00  0.1442E+03
     -0.729  0.1114E+01  0.1443E+03
     -0.632  0.1360E+01  0.1444E+03
     -0.534  0.1062E+01  0.1445E+03
     -0.436  0.1507E+01  0.1447E+03
     -0.339  0.1055E+01  0.1448E+03
     -0.241  0.1426E+01  0.1450E+03
     -0.143  0.2777E+01  0.1454E+03
     -0.046  0.1896E+01  0.1455E+03
      0.052  0.3532E+01  0.1459E+03
      0.150  0.2702E+01  0.1463E+03
      0.248  0.5217E+01  0.1469E+03
      0.345  0.7094E+01  0.1476E+03
      0.443  0.7114E+01  0.1485E+03
      0.541  0.8320E+01  0.1495E+03
      0.638  0.9366E+01  0.1506E+03
      0.736  0.6389E+01  0.1513E+03
      0.834  0.6232E+01  0.1521E+03
      0.932  0.5313E+01  0.1528E+03
      1.029  0.3452E+01  0.1533E+03
      1.127  0.6114E+01  0.1539E+03
      1.225  0.4409E+01  0.1545E+03
      1.322  0.2418E+01  0.1549E+03
      1.420  0.6089E+01  0.1557E+03
      1.518  0.4020E+01  0.1561E+03
      1.615  0.4657E+01  0.1566E+03
      1.713  0.3270E+01  0.1569E+03
      1.811  0.4679E+01  0.1575E+03
      1.909  0.3140E+01  0.1579E+03
      2.006  0.5681E+01  0.1585E+03
      2.104  0.6444E+01  0.1592E+03
      2.202  0.5023E+01  0.1598E+03
      2.299  0.4254E+01  0.1603E+03
      2.397  0.6071E+01  0.1611E+03
      2.495  0.5694E+01  0.1617E+03
      2.593  0.7288E+01  0.1625E+03
      2.690  0.5721E+01  0.1631E+03
      2.788  0.7229E+01  0.1640E+03
      2.886  0.6001E+01  0.1647E+03
      2.983  0.6230E+01  0.1655E+03
      3.081  0.5585E+01  0.1662E+03
      3.179  0.9335E+01  0.1672E+03
      3.276  0.6824E+01  0.1680E+03
      3.374  0.7604E+01  0.1690E+03
      3.472  0.8443E+01  0.1700E+03
      3.570  0.8565E+01  0.1710E+03
      3.667  0.7227E+01  0.1718E+03
      3.765  0.8458E+01  0.1728E+03
      3.863  0.6803E+01  0.1736E+03
      3.960  0.7403E+01  0.1746E+03
      4.058  0.7730E+01  0.1755E+03
      4.156  0.1085E+02  0.1768E+03
      4.254  0.8314E+01  0.1779E+03
      4.351  0.9676E+01  0.1790E+03
      4.449  0.9026E+01  0.1800E+03
      4.547  0.1128E+02  0.1813E+03
      4.644  0.8406E+01  0.1822E+03
      4.742  0.1061E+02  0.1835E+03
      4.840  0.1075E+02  0.1848E+03
      4.938  0.1148E+02  0.1861E+03
      5.035  0.1153E+02  0.1875E+03
      5.133  0.9868E+01  0.1885E+03
      5.231  0.1012E+02  0.1897E+03
      5.328  0.8965E+01  0.1906E+03
      5.426  0.5741E+01  0.1913E+03
      5.524  0.2584E+01  0.1917E+03
      5.621  0.1578E+01  0.1918E+03
      5.719  0.8355E+00  0.1919E+03
      5.817  0.2785E+00  0.1920E+03
      5.915  0.2785E+00  0.1920E+03
      6.012  0.0000E+00  0.1920E+03
      6.110  0.0000E+00  0.1920E+03
      6.208  0.0000E+00  0.1920E+03
      6.305  0.0000E+00  0.1920E+03
      6.403  0.0000E+00  0.1920E+03
      6.501  0.0000E+00  0.1920E+03
      6.599  0.0000E+00  0.1920E+03
      6.696  0.0000E+00  0.1920E+03
      6.794  0.0000E+00  0.1920E+03
      6.892  0.0000E+00  0.1920E+03
      6.989  0.0000E+00  0.1920E+03
      7.087  0.0000E+00  0.1920E+03
      7.185  0.0000E+00  0.1920E+03
