       N       E                     dE             d eps       ncg     rms          rms(c)
DAV:   1     0.139413156868E+04    0.13941E+04   -0.73436E+04 42432   0.170E+03
DAV:   2    -0.138032933917E+03   -0.15322E+04   -0.14615E+04 63564   0.326E+02
DAV:   3    -0.348846209447E+03   -0.21081E+03   -0.20960E+03 51264   0.121E+02
DAV:   4    -0.355495116025E+03   -0.66489E+01   -0.66309E+01 53088   0.262E+01
DAV:   5    -0.355710547609E+03   -0.21543E+00   -0.21530E+00 61380   0.415E+00    0.237E+01
DAV:   6    -0.338645346361E+03    0.17065E+02   -0.16442E+01 47700   0.105E+01    0.125E+01
DAV:   7    -0.332388363146E+03    0.62570E+01   -0.19255E+01 48060   0.112E+01    0.216E+00
DAV:   8    -0.332374801690E+03    0.13561E-01   -0.44460E-01 50916   0.188E+00    0.349E-01
DAV:   9    -0.332345533198E+03    0.29268E-01   -0.42559E-02 49908   0.549E-01    0.239E-01
DAV:  10    -0.332305160737E+03    0.40372E-01   -0.18458E-02 45924   0.329E-01    0.161E-01
DAV:  11    -0.332273633331E+03    0.31527E-01   -0.19316E-02 44196   0.290E-01    0.146E-01
DAV:  12    -0.332252811370E+03    0.20822E-01   -0.12844E-02 42984   0.254E-01    0.972E-02
DAV:  13    -0.332262490783E+03   -0.96794E-02   -0.49258E-03 44064   0.199E-01    0.867E-02
DAV:  14    -0.332268982526E+03   -0.64917E-02   -0.65740E-03 44484   0.181E-01    0.827E-02
DAV:  15    -0.332275002744E+03   -0.60202E-02   -0.46697E-03 45396   0.143E-01    0.442E-02
DAV:  16    -0.332276499386E+03   -0.14966E-02   -0.40648E-04 45216   0.537E-02    0.126E-02
DAV:  17    -0.332276967764E+03   -0.46838E-03   -0.31716E-05 45708   0.179E-02    0.483E-03
DAV:  18    -0.332277088847E+03   -0.12108E-03   -0.42551E-06 48648   0.618E-03    0.258E-03
DAV:  19    -0.332277152186E+03   -0.63339E-04   -0.24202E-06 45684   0.366E-03    0.109E-03
DAV:  20    -0.332277191138E+03   -0.38952E-04   -0.94370E-07 45552   0.230E-03    0.740E-04
DAV:  21    -0.332277192700E+03   -0.15622E-05   -0.62142E-08 47496   0.684E-04    0.267E-04
DAV:  22    -0.332277193335E+03   -0.63490E-06   -0.28037E-08 43584   0.423E-04    0.598E-05
DAV:  23    -0.332277193312E+03    0.23058E-07   -0.76182E-10 34428   0.961E-05    0.268E-05
DAV:  24    -0.332277193327E+03   -0.14988E-07   -0.24325E-10 31896   0.598E-05    0.159E-05
DAV:  25    -0.332277193335E+03   -0.86493E-08    0.10735E-11 30252   0.328E-05
   1 F= -.33227719E+03 E0= -.33227719E+03  d E =-.226267E-12
