<?xml version="1.0" encoding="ISO-8859-1"?>
<modeling>
 <generator>
  <i name="program" type="string">vasp </i>
  <i name="version" type="string">5.4.4.18Apr17-6-g9f103f2a35  </i>
  <i name="subversion" type="string">(build May 31 2018 21:15:54) complex            parallel </i>
  <i name="platform" type="string">c7_intel_O1 </i>
  <i name="date" type="string">2020 08 17 </i>
  <i name="time" type="string">20:04:51 </i>
 </generator>
 <incar>
  <i type="string" name="SYSTEM"> C-4</i>
  <i type="int" name="ISTART">     0</i>
  <i type="string" name="PREC">accurate</i>
  <i type="string" name="ALGO"> N</i>
  <i type="logical" name="ADDGRID"> T  </i>
  <i name="AMIN">      0.01000000</i>
  <i type="int" name="ICHARG">     2</i>
  <i type="int" name="NELMIN">     5</i>
  <i type="int" name="IBRION">    -1</i>
  <i name="EDIFF">      0.00000001</i>
  <i name="EDIFFG">     -0.00000001</i>
  <i type="int" name="NSW">     0</i>
  <i name="SYMPREC">      0.00010000</i>
  <i name="ENCUT">    800.00000000</i>
  <i type="logical" name="LREAL"> F  </i>
  <i type="int" name="ISMEAR">     0</i>
  <i name="SIGMA">      0.01000000</i>
  <i type="logical" name="LWAVE"> F  </i>
  <i type="logical" name="LCHARG"> F  </i>
  <v type="int" name="KPOINT_BSE">    -1     0     0     0</v>
 </incar>
 <structure name="primitive_cell" >
  <crystal>
   <varray name="basis" >
    <v>       6.39000000      -3.68926800       0.00000000 </v>
    <v>       6.39000000       3.68926800       0.00000000 </v>
    <v>       0.00000000       0.00000000      20.00000000 </v>
   </varray>
   <i name="volume">    942.97690080 </i>
   <varray name="rec_basis" >
    <v>       0.07824726      -0.13552824       0.00000000 </v>
    <v>       0.07824726       0.13552824       0.00000000 </v>
    <v>       0.00000000       0.00000000       0.05000000 </v>
   </varray>
  </crystal>
  <varray name="positions" >
   <v>       0.00046900       0.00000000       0.00046900 </v>
   <v>       0.11111100       0.11111100       0.00000000 </v>
   <v>       0.11111100      -0.22222200       0.00000000 </v>
   <v>      -0.22222200       0.11111100       0.00000000 </v>
   <v>       0.33333300       0.00000000       0.00000000 </v>
   <v>       0.33333300      -0.33333300       0.00000000 </v>
   <v>       0.00000000       0.33333300       0.00000000 </v>
   <v>      -0.33333300       0.33333300       0.00000000 </v>
   <v>       0.00000000      -0.33333300       0.00000000 </v>
   <v>      -0.33333300       0.00000000       0.00000000 </v>
   <v>       0.44444400      -0.22222200       0.00000000 </v>
   <v>      -0.22222200       0.44444400       0.00000000 </v>
   <v>      -0.22222200      -0.22222200       0.00000000 </v>
   <v>       0.44444400       0.11111100       0.00000000 </v>
   <v>       0.11111100       0.44444400       0.00000000 </v>
   <v>       0.44444400       0.44444400       0.00000000 </v>
   <v>       0.33333300       0.33333300       0.00000000 </v>
   <v>      -0.33333300      -0.33333300       0.00000000 </v>
   <v>       0.00000000       0.00000000       0.22193400 </v>
   <v>       0.11111100       0.11111100       0.22193400 </v>
   <v>       0.11111100      -0.22222200       0.22193400 </v>
   <v>      -0.22222200       0.11111100       0.22193400 </v>
   <v>       0.33333300       0.00000000       0.22193400 </v>
   <v>       0.33333300      -0.33333300       0.22193400 </v>
   <v>       0.00000000       0.33333300       0.22193400 </v>
   <v>      -0.33333300       0.33333300       0.22193400 </v>
   <v>       0.00000000      -0.33333300       0.22193400 </v>
   <v>      -0.33333300       0.00000000       0.22193400 </v>
   <v>       0.44444400      -0.22222200       0.22193400 </v>
   <v>      -0.22222200       0.44444400       0.22193400 </v>
   <v>      -0.22222200      -0.22222200       0.22193400 </v>
   <v>       0.44444400       0.11111100       0.22193400 </v>
   <v>       0.11111100       0.44444400       0.22193400 </v>
   <v>       0.44444400       0.44444400       0.22193400 </v>
   <v>       0.33333300       0.33333300       0.22193400 </v>
   <v>      -0.33333300      -0.33333300       0.22193400 </v>
  </varray>
 </structure>
 <varray name="primitive_index" >
  <v type="int" >        1 </v>
  <v type="int" >       10 </v>
  <v type="int" >       16 </v>
  <v type="int" >       12 </v>
  <v type="int" >        2 </v>
  <v type="int" >        8 </v>
  <v type="int" >        4 </v>
  <v type="int" >        6 </v>
  <v type="int" >        7 </v>
  <v type="int" >        3 </v>
  <v type="int" >       17 </v>
  <v type="int" >       15 </v>
  <v type="int" >       18 </v>
  <v type="int" >       11 </v>
  <v type="int" >       13 </v>
  <v type="int" >       14 </v>
  <v type="int" >        5 </v>
  <v type="int" >        9 </v>
  <v type="int" >       19 </v>
  <v type="int" >       28 </v>
  <v type="int" >       34 </v>
  <v type="int" >       30 </v>
  <v type="int" >       20 </v>
  <v type="int" >       26 </v>
  <v type="int" >       22 </v>
  <v type="int" >       24 </v>
  <v type="int" >       25 </v>
  <v type="int" >       21 </v>
  <v type="int" >       35 </v>
  <v type="int" >       33 </v>
  <v type="int" >       36 </v>
  <v type="int" >       29 </v>
  <v type="int" >       31 </v>
  <v type="int" >       32 </v>
  <v type="int" >       23 </v>
  <v type="int" >       27 </v>
 </varray>
 <kpoints>
  <generation param="Gamma">
   <v type="int" name="divisions">      21       21        1 </v>
   <v name="usershift">      0.00000000       0.00000000       0.00000000 </v>
   <v name="genvec1">      0.04761905      -0.00000000       0.00000000 </v>
   <v name="genvec2">     -0.00000000       0.04761905       0.00000000 </v>
   <v name="genvec3">      0.00000000       0.00000000       1.00000000 </v>
   <v name="shift">      0.00000000       0.00000000       0.00000000 </v>
  </generation>
  <varray name="kpointlist" >
   <v>       0.00000000       0.00000000       0.00000000 </v>
   <v>       0.04761905       0.00000000       0.00000000 </v>
   <v>       0.09523810       0.00000000       0.00000000 </v>
   <v>       0.14285714       0.00000000       0.00000000 </v>
   <v>       0.19047619       0.00000000       0.00000000 </v>
   <v>       0.23809524       0.00000000       0.00000000 </v>
   <v>       0.28571429       0.00000000       0.00000000 </v>
   <v>       0.33333333       0.00000000       0.00000000 </v>
   <v>       0.38095238       0.00000000       0.00000000 </v>
   <v>       0.42857143       0.00000000       0.00000000 </v>
   <v>       0.47619048       0.00000000       0.00000000 </v>
   <v>       0.00000000       0.04761905       0.00000000 </v>
   <v>       0.04761905       0.04761905       0.00000000 </v>
   <v>       0.09523810       0.04761905       0.00000000 </v>
   <v>       0.14285714       0.04761905       0.00000000 </v>
   <v>       0.19047619       0.04761905       0.00000000 </v>
   <v>       0.23809524       0.04761905       0.00000000 </v>
   <v>       0.28571429       0.04761905       0.00000000 </v>
   <v>       0.33333333       0.04761905       0.00000000 </v>
   <v>       0.38095238       0.04761905       0.00000000 </v>
   <v>       0.42857143       0.04761905       0.00000000 </v>
   <v>       0.47619048       0.04761905       0.00000000 </v>
   <v>      -0.47619048       0.04761905       0.00000000 </v>
   <v>      -0.42857143       0.04761905       0.00000000 </v>
   <v>      -0.38095238       0.04761905       0.00000000 </v>
   <v>      -0.33333333       0.04761905       0.00000000 </v>
   <v>      -0.28571429       0.04761905       0.00000000 </v>
   <v>      -0.23809524       0.04761905       0.00000000 </v>
   <v>      -0.19047619       0.04761905       0.00000000 </v>
   <v>      -0.14285714       0.04761905       0.00000000 </v>
   <v>      -0.09523810       0.04761905       0.00000000 </v>
   <v>      -0.04761905       0.04761905       0.00000000 </v>
   <v>       0.00000000       0.09523810       0.00000000 </v>
   <v>       0.04761905       0.09523810       0.00000000 </v>
   <v>       0.09523810       0.09523810       0.00000000 </v>
   <v>       0.14285714       0.09523810       0.00000000 </v>
   <v>       0.19047619       0.09523810       0.00000000 </v>
   <v>       0.23809524       0.09523810       0.00000000 </v>
   <v>       0.28571429       0.09523810       0.00000000 </v>
   <v>       0.33333333       0.09523810       0.00000000 </v>
   <v>       0.38095238       0.09523810       0.00000000 </v>
   <v>       0.42857143       0.09523810       0.00000000 </v>
   <v>       0.47619048       0.09523810       0.00000000 </v>
   <v>      -0.47619048       0.09523810       0.00000000 </v>
   <v>      -0.42857143       0.09523810       0.00000000 </v>
   <v>      -0.38095238       0.09523810       0.00000000 </v>
   <v>      -0.33333333       0.09523810       0.00000000 </v>
   <v>      -0.28571429       0.09523810       0.00000000 </v>
   <v>      -0.23809524       0.09523810       0.00000000 </v>
   <v>      -0.19047619       0.09523810       0.00000000 </v>
   <v>      -0.14285714       0.09523810       0.00000000 </v>
   <v>      -0.09523810       0.09523810       0.00000000 </v>
   <v>      -0.04761905       0.09523810       0.00000000 </v>
   <v>       0.00000000       0.14285714       0.00000000 </v>
   <v>       0.04761905       0.14285714       0.00000000 </v>
   <v>       0.09523810       0.14285714       0.00000000 </v>
   <v>       0.14285714       0.14285714       0.00000000 </v>
   <v>       0.19047619       0.14285714       0.00000000 </v>
   <v>       0.23809524       0.14285714       0.00000000 </v>
   <v>       0.28571429       0.14285714       0.00000000 </v>
   <v>       0.33333333       0.14285714       0.00000000 </v>
   <v>       0.38095238       0.14285714       0.00000000 </v>
   <v>       0.42857143       0.14285714       0.00000000 </v>
   <v>       0.47619048       0.14285714       0.00000000 </v>
   <v>      -0.47619048       0.14285714       0.00000000 </v>
   <v>      -0.42857143       0.14285714       0.00000000 </v>
   <v>      -0.38095238       0.14285714       0.00000000 </v>
   <v>      -0.33333333       0.14285714       0.00000000 </v>
   <v>      -0.28571429       0.14285714       0.00000000 </v>
   <v>      -0.23809524       0.14285714       0.00000000 </v>
   <v>      -0.19047619       0.14285714       0.00000000 </v>
   <v>      -0.14285714       0.14285714       0.00000000 </v>
   <v>      -0.09523810       0.14285714       0.00000000 </v>
   <v>      -0.04761905       0.14285714       0.00000000 </v>
   <v>       0.00000000       0.19047619       0.00000000 </v>
   <v>       0.04761905       0.19047619       0.00000000 </v>
   <v>       0.09523810       0.19047619       0.00000000 </v>
   <v>       0.14285714       0.19047619       0.00000000 </v>
   <v>       0.19047619       0.19047619       0.00000000 </v>
   <v>       0.23809524       0.19047619       0.00000000 </v>
   <v>       0.28571429       0.19047619       0.00000000 </v>
   <v>       0.33333333       0.19047619       0.00000000 </v>
   <v>       0.38095238       0.19047619       0.00000000 </v>
   <v>       0.42857143       0.19047619       0.00000000 </v>
   <v>       0.47619048       0.19047619       0.00000000 </v>
   <v>      -0.47619048       0.19047619       0.00000000 </v>
   <v>      -0.42857143       0.19047619       0.00000000 </v>
   <v>      -0.38095238       0.19047619       0.00000000 </v>
   <v>      -0.33333333       0.19047619       0.00000000 </v>
   <v>      -0.28571429       0.19047619       0.00000000 </v>
   <v>      -0.23809524       0.19047619       0.00000000 </v>
   <v>      -0.19047619       0.19047619       0.00000000 </v>
   <v>      -0.14285714       0.19047619       0.00000000 </v>
   <v>      -0.09523810       0.19047619       0.00000000 </v>
   <v>      -0.04761905       0.19047619       0.00000000 </v>
   <v>       0.00000000       0.23809524       0.00000000 </v>
   <v>       0.04761905       0.23809524       0.00000000 </v>
   <v>       0.09523810       0.23809524       0.00000000 </v>
   <v>       0.14285714       0.23809524       0.00000000 </v>
   <v>       0.19047619       0.23809524       0.00000000 </v>
   <v>       0.23809524       0.23809524       0.00000000 </v>
   <v>       0.28571429       0.23809524       0.00000000 </v>
   <v>       0.33333333       0.23809524       0.00000000 </v>
   <v>       0.38095238       0.23809524       0.00000000 </v>
   <v>       0.42857143       0.23809524       0.00000000 </v>
   <v>       0.47619048       0.23809524       0.00000000 </v>
   <v>      -0.47619048       0.23809524       0.00000000 </v>
   <v>      -0.42857143       0.23809524       0.00000000 </v>
   <v>      -0.38095238       0.23809524       0.00000000 </v>
   <v>      -0.33333333       0.23809524       0.00000000 </v>
   <v>      -0.28571429       0.23809524       0.00000000 </v>
   <v>      -0.23809524       0.23809524       0.00000000 </v>
   <v>      -0.19047619       0.23809524       0.00000000 </v>
   <v>      -0.14285714       0.23809524       0.00000000 </v>
   <v>      -0.09523810       0.23809524       0.00000000 </v>
   <v>      -0.04761905       0.23809524       0.00000000 </v>
   <v>       0.00000000       0.28571429       0.00000000 </v>
   <v>       0.04761905       0.28571429       0.00000000 </v>
   <v>       0.09523810       0.28571429       0.00000000 </v>
   <v>       0.14285714       0.28571429       0.00000000 </v>
   <v>       0.19047619       0.28571429       0.00000000 </v>
   <v>       0.23809524       0.28571429       0.00000000 </v>
   <v>       0.28571429       0.28571429       0.00000000 </v>
   <v>       0.33333333       0.28571429       0.00000000 </v>
   <v>       0.38095238       0.28571429       0.00000000 </v>
   <v>       0.42857143       0.28571429       0.00000000 </v>
   <v>       0.47619048       0.28571429       0.00000000 </v>
   <v>      -0.47619048       0.28571429       0.00000000 </v>
   <v>      -0.42857143       0.28571429       0.00000000 </v>
   <v>      -0.38095238       0.28571429       0.00000000 </v>
   <v>      -0.33333333       0.28571429       0.00000000 </v>
   <v>      -0.28571429       0.28571429       0.00000000 </v>
   <v>      -0.23809524       0.28571429       0.00000000 </v>
   <v>      -0.19047619       0.28571429       0.00000000 </v>
   <v>      -0.14285714       0.28571429       0.00000000 </v>
   <v>      -0.09523810       0.28571429       0.00000000 </v>
   <v>      -0.04761905       0.28571429       0.00000000 </v>
   <v>       0.00000000       0.33333333       0.00000000 </v>
   <v>       0.04761905       0.33333333       0.00000000 </v>
   <v>       0.09523810       0.33333333       0.00000000 </v>
   <v>       0.14285714       0.33333333       0.00000000 </v>
   <v>       0.19047619       0.33333333       0.00000000 </v>
   <v>       0.23809524       0.33333333       0.00000000 </v>
   <v>       0.28571429       0.33333333       0.00000000 </v>
   <v>       0.33333333       0.33333333       0.00000000 </v>
   <v>       0.38095238       0.33333333       0.00000000 </v>
   <v>       0.42857143       0.33333333       0.00000000 </v>
   <v>       0.47619048       0.33333333       0.00000000 </v>
   <v>      -0.47619048       0.33333333       0.00000000 </v>
   <v>      -0.42857143       0.33333333       0.00000000 </v>
   <v>      -0.38095238       0.33333333       0.00000000 </v>
   <v>      -0.33333333       0.33333333       0.00000000 </v>
   <v>      -0.28571429       0.33333333       0.00000000 </v>
   <v>      -0.23809524       0.33333333       0.00000000 </v>
   <v>      -0.19047619       0.33333333       0.00000000 </v>
   <v>      -0.14285714       0.33333333       0.00000000 </v>
   <v>      -0.09523810       0.33333333       0.00000000 </v>
   <v>      -0.04761905       0.33333333       0.00000000 </v>
   <v>       0.00000000       0.38095238       0.00000000 </v>
   <v>       0.04761905       0.38095238       0.00000000 </v>
   <v>       0.09523810       0.38095238       0.00000000 </v>
   <v>       0.14285714       0.38095238       0.00000000 </v>
   <v>       0.19047619       0.38095238       0.00000000 </v>
   <v>       0.23809524       0.38095238       0.00000000 </v>
   <v>       0.28571429       0.38095238       0.00000000 </v>
   <v>       0.33333333       0.38095238       0.00000000 </v>
   <v>       0.38095238       0.38095238       0.00000000 </v>
   <v>       0.42857143       0.38095238       0.00000000 </v>
   <v>       0.47619048       0.38095238       0.00000000 </v>
   <v>      -0.47619048       0.38095238       0.00000000 </v>
   <v>      -0.42857143       0.38095238       0.00000000 </v>
   <v>      -0.38095238       0.38095238       0.00000000 </v>
   <v>      -0.33333333       0.38095238       0.00000000 </v>
   <v>      -0.28571429       0.38095238       0.00000000 </v>
   <v>      -0.23809524       0.38095238       0.00000000 </v>
   <v>      -0.19047619       0.38095238       0.00000000 </v>
   <v>      -0.14285714       0.38095238       0.00000000 </v>
   <v>      -0.09523810       0.38095238       0.00000000 </v>
   <v>      -0.04761905       0.38095238       0.00000000 </v>
   <v>       0.00000000       0.42857143       0.00000000 </v>
   <v>       0.04761905       0.42857143       0.00000000 </v>
   <v>       0.09523810       0.42857143       0.00000000 </v>
   <v>       0.14285714       0.42857143       0.00000000 </v>
   <v>       0.19047619       0.42857143       0.00000000 </v>
   <v>       0.23809524       0.42857143       0.00000000 </v>
   <v>       0.28571429       0.42857143       0.00000000 </v>
   <v>       0.33333333       0.42857143       0.00000000 </v>
   <v>       0.38095238       0.42857143       0.00000000 </v>
   <v>       0.42857143       0.42857143       0.00000000 </v>
   <v>       0.47619048       0.42857143       0.00000000 </v>
   <v>      -0.47619048       0.42857143       0.00000000 </v>
   <v>      -0.42857143       0.42857143       0.00000000 </v>
   <v>      -0.38095238       0.42857143       0.00000000 </v>
   <v>      -0.33333333       0.42857143       0.00000000 </v>
   <v>      -0.28571429       0.42857143       0.00000000 </v>
   <v>      -0.23809524       0.42857143       0.00000000 </v>
   <v>      -0.19047619       0.42857143       0.00000000 </v>
   <v>      -0.14285714       0.42857143       0.00000000 </v>
   <v>      -0.09523810       0.42857143       0.00000000 </v>
   <v>      -0.04761905       0.42857143       0.00000000 </v>
   <v>       0.00000000       0.47619048       0.00000000 </v>
   <v>       0.04761905       0.47619048       0.00000000 </v>
   <v>       0.09523810       0.47619048       0.00000000 </v>
   <v>       0.14285714       0.47619048       0.00000000 </v>
   <v>       0.19047619       0.47619048       0.00000000 </v>
   <v>       0.23809524       0.47619048       0.00000000 </v>
   <v>       0.28571429       0.47619048       0.00000000 </v>
   <v>       0.33333333       0.47619048       0.00000000 </v>
   <v>       0.38095238       0.47619048       0.00000000 </v>
   <v>       0.42857143       0.47619048       0.00000000 </v>
   <v>       0.47619048       0.47619048       0.00000000 </v>
   <v>      -0.47619048       0.47619048       0.00000000 </v>
   <v>      -0.42857143       0.47619048       0.00000000 </v>
   <v>      -0.38095238       0.47619048       0.00000000 </v>
   <v>      -0.33333333       0.47619048       0.00000000 </v>
   <v>      -0.28571429       0.47619048       0.00000000 </v>
   <v>      -0.23809524       0.47619048       0.00000000 </v>
   <v>      -0.19047619       0.47619048       0.00000000 </v>
   <v>      -0.14285714       0.47619048       0.00000000 </v>
   <v>      -0.09523810       0.47619048       0.00000000 </v>
   <v>      -0.04761905       0.47619048       0.00000000 </v>
  </varray>
  <varray name="weights" >
   <v>       0.00226757 </v>
   <v>       0.00453515 </v>
   <v>       0.00453515 </v>
   <v>       0.00453515 </v>
   <v>       0.00453515 </v>
   <v>       0.00453515 </v>
   <v>       0.00453515 </v>
   <v>       0.00453515 </v>
   <v>       0.00453515 </v>
   <v>       0.00453515 </v>
   <v>       0.00453515 </v>
   <v>       0.00453515 </v>
   <v>       0.00453515 </v>
   <v>       0.00453515 </v>
   <v>       0.00453515 </v>
   <v>       0.00453515 </v>
   <v>       0.00453515 </v>
   <v>       0.00453515 </v>
   <v>       0.00453515 </v>
   <v>       0.00453515 </v>
   <v>       0.00453515 </v>
   <v>       0.00453515 </v>
   <v>       0.00453515 </v>
   <v>       0.00453515 </v>
   <v>       0.00453515 </v>
   <v>       0.00453515 </v>
   <v>       0.00453515 </v>
   <v>       0.00453515 </v>
   <v>       0.00453515 </v>
   <v>       0.00453515 </v>
   <v>       0.00453515 </v>
   <v>       0.00453515 </v>
   <v>       0.00453515 </v>
   <v>       0.00453515 </v>
   <v>       0.00453515 </v>
   <v>       0.00453515 </v>
   <v>       0.00453515 </v>
   <v>       0.00453515 </v>
   <v>       0.00453515 </v>
   <v>       0.00453515 </v>
   <v>       0.00453515 </v>
   <v>       0.00453515 </v>
   <v>       0.00453515 </v>
   <v>       0.00453515 </v>
   <v>       0.00453515 </v>
   <v>       0.00453515 </v>
   <v>       0.00453515 </v>
   <v>       0.00453515 </v>
   <v>       0.00453515 </v>
   <v>       0.00453515 </v>
   <v>       0.00453515 </v>
   <v>       0.00453515 </v>
   <v>       0.00453515 </v>
   <v>       0.00453515 </v>
   <v>       0.00453515 </v>
   <v>       0.00453515 </v>
   <v>       0.00453515 </v>
   <v>       0.00453515 </v>
   <v>       0.00453515 </v>
   <v>       0.00453515 </v>
   <v>       0.00453515 </v>
   <v>       0.00453515 </v>
   <v>       0.00453515 </v>
   <v>       0.00453515 </v>
   <v>       0.00453515 </v>
   <v>       0.00453515 </v>
   <v>       0.00453515 </v>
   <v>       0.00453515 </v>
   <v>       0.00453515 </v>
   <v>       0.00453515 </v>
   <v>       0.00453515 </v>
   <v>       0.00453515 </v>
   <v>       0.00453515 </v>
   <v>       0.00453515 </v>
   <v>       0.00453515 </v>
   <v>       0.00453515 </v>
   <v>       0.00453515 </v>
   <v>       0.00453515 </v>
   <v>       0.00453515 </v>
   <v>       0.00453515 </v>
   <v>       0.00453515 </v>
   <v>       0.00453515 </v>
   <v>       0.00453515 </v>
   <v>       0.00453515 </v>
   <v>       0.00453515 </v>
   <v>       0.00453515 </v>
   <v>       0.00453515 </v>
   <v>       0.00453515 </v>
   <v>       0.00453515 </v>
   <v>       0.00453515 </v>
   <v>       0.00453515 </v>
   <v>       0.00453515 </v>
   <v>       0.00453515 </v>
   <v>       0.00453515 </v>
   <v>       0.00453515 </v>
   <v>       0.00453515 </v>
   <v>       0.00453515 </v>
   <v>       0.00453515 </v>
   <v>       0.00453515 </v>
   <v>       0.00453515 </v>
   <v>       0.00453515 </v>
   <v>       0.00453515 </v>
   <v>       0.00453515 </v>
   <v>       0.00453515 </v>
   <v>       0.00453515 </v>
   <v>       0.00453515 </v>
   <v>       0.00453515 </v>
   <v>       0.00453515 </v>
   <v>       0.00453515 </v>
   <v>       0.00453515 </v>
   <v>       0.00453515 </v>
   <v>       0.00453515 </v>
   <v>       0.00453515 </v>
   <v>       0.00453515 </v>
   <v>       0.00453515 </v>
   <v>       0.00453515 </v>
   <v>       0.00453515 </v>
   <v>       0.00453515 </v>
   <v>       0.00453515 </v>
   <v>       0.00453515 </v>
   <v>       0.00453515 </v>
   <v>       0.00453515 </v>
   <v>       0.00453515 </v>
   <v>       0.00453515 </v>
   <v>       0.00453515 </v>
   <v>       0.00453515 </v>
   <v>       0.00453515 </v>
   <v>       0.00453515 </v>
   <v>       0.00453515 </v>
   <v>       0.00453515 </v>
   <v>       0.00453515 </v>
   <v>       0.00453515 </v>
   <v>       0.00453515 </v>
   <v>       0.00453515 </v>
   <v>       0.00453515 </v>
   <v>       0.00453515 </v>
   <v>       0.00453515 </v>
   <v>       0.00453515 </v>
   <v>       0.00453515 </v>
   <v>       0.00453515 </v>
   <v>       0.00453515 </v>
   <v>       0.00453515 </v>
   <v>       0.00453515 </v>
   <v>       0.00453515 </v>
   <v>       0.00453515 </v>
   <v>       0.00453515 </v>
   <v>       0.00453515 </v>
   <v>       0.00453515 </v>
   <v>       0.00453515 </v>
   <v>       0.00453515 </v>
   <v>       0.00453515 </v>
   <v>       0.00453515 </v>
   <v>       0.00453515 </v>
   <v>       0.00453515 </v>
   <v>       0.00453515 </v>
   <v>       0.00453515 </v>
   <v>       0.00453515 </v>
   <v>       0.00453515 </v>
   <v>       0.00453515 </v>
   <v>       0.00453515 </v>
   <v>       0.00453515 </v>
   <v>       0.00453515 </v>
   <v>       0.00453515 </v>
   <v>       0.00453515 </v>
   <v>       0.00453515 </v>
   <v>       0.00453515 </v>
   <v>       0.00453515 </v>
   <v>       0.00453515 </v>
   <v>       0.00453515 </v>
   <v>       0.00453515 </v>
   <v>       0.00453515 </v>
   <v>       0.00453515 </v>
   <v>       0.00453515 </v>
   <v>       0.00453515 </v>
   <v>       0.00453515 </v>
   <v>       0.00453515 </v>
   <v>       0.00453515 </v>
   <v>       0.00453515 </v>
   <v>       0.00453515 </v>
   <v>       0.00453515 </v>
   <v>       0.00453515 </v>
   <v>       0.00453515 </v>
   <v>       0.00453515 </v>
   <v>       0.00453515 </v>
   <v>       0.00453515 </v>
   <v>       0.00453515 </v>
   <v>       0.00453515 </v>
   <v>       0.00453515 </v>
   <v>       0.00453515 </v>
   <v>       0.00453515 </v>
   <v>       0.00453515 </v>
   <v>       0.00453515 </v>
   <v>       0.00453515 </v>
   <v>       0.00453515 </v>
   <v>       0.00453515 </v>
   <v>       0.00453515 </v>
   <v>       0.00453515 </v>
   <v>       0.00453515 </v>
   <v>       0.00453515 </v>
   <v>       0.00453515 </v>
   <v>       0.00453515 </v>
   <v>       0.00453515 </v>
   <v>       0.00453515 </v>
   <v>       0.00453515 </v>
   <v>       0.00453515 </v>
   <v>       0.00453515 </v>
   <v>       0.00453515 </v>
   <v>       0.00453515 </v>
   <v>       0.00453515 </v>
   <v>       0.00453515 </v>
   <v>       0.00453515 </v>
   <v>       0.00453515 </v>
   <v>       0.00453515 </v>
   <v>       0.00453515 </v>
   <v>       0.00453515 </v>
   <v>       0.00453515 </v>
   <v>       0.00453515 </v>
   <v>       0.00453515 </v>
   <v>       0.00453515 </v>
   <v>       0.00453515 </v>
   <v>       0.00453515 </v>
  </varray>
 </kpoints>
 <parameters>
  <separator name="general" >
   <i type="string" name="SYSTEM">C-4</i>
   <i type="logical" name="LCOMPAT"> F  </i>
  </separator>
  <separator name="electronic" >
   <i type="string" name="PREC">accura</i>
   <i name="ENMAX">    800.00000000</i>
   <i name="ENAUG">    644.87300000</i>
   <i name="EDIFF">      0.00000001</i>
   <i type="int" name="IALGO">    38</i>
   <i type="int" name="IWAVPR">    10</i>
   <i type="int" name="NBANDS">    96</i>
   <i name="NELECT">    144.00000000</i>
   <i type="int" name="TURBO">     0</i>
   <i type="int" name="IRESTART">     0</i>
   <i type="int" name="NREBOOT">     0</i>
   <i type="int" name="NMIN">     0</i>
   <i name="EREF">      0.00000000</i>
   <separator name="electronic smearing" >
    <i type="int" name="ISMEAR">     0</i>
    <i name="SIGMA">      0.01000000</i>
    <i name="KSPACING">      0.50000000</i>
    <i type="logical" name="KGAMMA"> T  </i>
   </separator>
   <separator name="electronic projectors" >
    <i type="logical" name="LREAL"> F  </i>
    <v name="ROPT">      0.00000000</v>
    <i type="int" name="LMAXPAW">  -100</i>
    <i type="int" name="LMAXMIX">     2</i>
    <i type="logical" name="NLSPLINE"> F  </i>
   </separator>
   <separator name="electronic startup" >
    <i type="int" name="ISTART">     0</i>
    <i type="int" name="ICHARG">     2</i>
    <i type="int" name="INIWAV">     1</i>
   </separator>
   <separator name="electronic spin" >
    <i type="int" name="ISPIN">     1</i>
    <i type="logical" name="LNONCOLLINEAR"> F  </i>
    <v name="MAGMOM">      1.00000000      1.00000000      1.00000000      1.00000000      1.00000000      1.00000000      1.00000000      1.00000000      1.00000000      1.00000000      1.00000000      1.00000000      1.00000000      1.00000000      1.00000000      1.00000000      1.00000000      1.00000000      1.00000000      1.00000000
      1.00000000      1.00000000      1.00000000      1.00000000      1.00000000      1.00000000      1.00000000      1.00000000      1.00000000      1.00000000      1.00000000      1.00000000      1.00000000      1.00000000      1.00000000      1.00000000</v>
    <i name="NUPDOWN">     -1.00000000</i>
    <i type="logical" name="LSORBIT"> F  </i>
    <v name="SAXIS">      0.00000000      0.00000000      1.00000000</v>
    <i type="logical" name="LSPIRAL"> F  </i>
    <v name="QSPIRAL">      0.00000000      0.00000000      0.00000000</v>
    <i type="logical" name="LZEROZ"> F  </i>
   </separator>
   <separator name="electronic exchange-correlation" >
    <i type="logical" name="LASPH"> F  </i>
    <i type="logical" name="LMETAGGA"> F  </i>
   </separator>
   <separator name="electronic convergence" >
    <i type="int" name="NELM">    60</i>
    <i type="int" name="NELMDL">    -5</i>
    <i type="int" name="NELMIN">     5</i>
    <i name="ENINI">    800.00000000</i>
    <separator name="electronic convergence detail" >
     <i type="logical" name="LDIAG"> T  </i>
     <i type="logical" name="LSUBROT"> F  </i>
     <i name="WEIMIN">      0.00000000</i>
     <i name="EBREAK">      0.00000000</i>
     <i name="DEPER">      0.30000000</i>
     <i type="int" name="NRMM">     4</i>
     <i name="TIME">      0.40000000</i>
    </separator>
   </separator>
   <separator name="electronic mixer" >
    <i name="AMIX">      0.40000000</i>
    <i name="BMIX">      1.00000000</i>
    <i name="AMIN">      0.01000000</i>
    <i name="AMIX_MAG">      1.60000000</i>
    <i name="BMIX_MAG">      1.00000000</i>
    <separator name="electronic mixer details" >
     <i type="int" name="IMIX">     4</i>
     <i type="logical" name="MIXFIRST"> F  </i>
     <i type="int" name="MAXMIX">   -45</i>
     <i name="WC">    100.00000000</i>
     <i type="int" name="INIMIX">     1</i>
     <i type="int" name="MIXPRE">     1</i>
     <i type="int" name="MREMOVE">     5</i>
    </separator>
   </separator>
   <separator name="electronic dipolcorrection" >
    <i type="logical" name="LDIPOL"> F  </i>
    <i type="logical" name="LMONO"> F  </i>
    <i type="int" name="IDIPOL">     0</i>
    <i name="EPSILON">      1.00000000</i>
    <v name="DIPOL">   -100.00000000   -100.00000000   -100.00000000</v>
    <i name="EFIELD">      0.00000000</i>
   </separator>
  </separator>
  <separator name="grids" >
   <i type="int" name="NGX">    70</i>
   <i type="int" name="NGY">    70</i>
   <i type="int" name="NGZ">   192</i>
   <i type="int" name="NGXF">   140</i>
   <i type="int" name="NGYF">   140</i>
   <i type="int" name="NGZF">   384</i>
   <i type="logical" name="ADDGRID"> T  </i>
  </separator>
  <separator name="ionic" >
   <i type="int" name="NSW">     0</i>
   <i type="int" name="IBRION">    -1</i>
   <i type="int" name="MDALGO">     0</i>
   <i type="int" name="ISIF">     2</i>
   <i name="PSTRESS">      0.00000000</i>
   <i name="EDIFFG">     -0.00000001</i>
   <i type="int" name="NFREE">     0</i>
   <i name="POTIM">      0.50000000</i>
   <i name="SMASS">     -3.00000000</i>
   <i name="SCALEE">      1.00000000</i>
  </separator>
  <separator name="ionic md" >
   <i name="TEBEG">      0.00010000</i>
   <i name="TEEND">      0.00010000</i>
   <i type="int" name="NBLOCK">     1</i>
   <i type="int" name="KBLOCK">     1</i>
   <i type="int" name="NPACO">   256</i>
   <i name="APACO">     16.00000000</i>
  </separator>
  <separator name="symmetry" >
   <i type="int" name="ISYM">     2</i>
   <i name="SYMPREC">      0.00010000</i>
  </separator>
  <separator name="dos" >
   <i type="int" name="LORBIT">     0</i>
   <v name="RWIGS">     -1.00000000</v>
   <i type="int" name="NEDOS">   301</i>
   <i name="EMIN">     10.00000000</i>
   <i name="EMAX">    -10.00000000</i>
   <i name="EFERMI">      0.00000000</i>
  </separator>
  <separator name="writing" >
   <i type="int" name="NWRITE">     2</i>
   <i type="logical" name="LWAVE"> F  </i>
   <i type="logical" name="LDOWNSAMPLE"> F  </i>
   <i type="logical" name="LCHARG"> F  </i>
   <i type="logical" name="LPARD"> F  </i>
   <i type="logical" name="LVTOT"> F  </i>
   <i type="logical" name="LVHAR"> F  </i>
   <i type="logical" name="LELF"> F  </i>
   <i type="logical" name="LOPTICS"> F  </i>
   <v name="STM">      0.00000000      0.00000000      0.00000000      0.00000000      0.00000000      0.00000000      0.00000000</v>
  </separator>
  <separator name="performance" >
   <i type="int" name="NPAR">     6</i>
   <i type="int" name="NSIM">     4</i>
   <i type="int" name="NBLK">    -1</i>
   <i type="logical" name="LPLANE"> T  </i>
   <i type="logical" name="LSCALAPACK"> T  </i>
   <i type="logical" name="LSCAAWARE"> F  </i>
   <i type="logical" name="LSCALU"> F  </i>
   <i type="logical" name="LASYNC"> F  </i>
   <i type="logical" name="LORBITALREAL"> F  </i>
  </separator>
  <separator name="miscellaneous" >
   <i type="int" name="IDIOT">     3</i>
   <i type="int" name="ISPECIAL">     0</i>
   <i type="logical" name="LMUSIC"> F  </i>
   <v name="POMASS">     12.01100000</v>
   <v name="DARWINR">      0.00000000</v>
   <v name="DARWINV">      1.00000000</v>
   <i type="logical" name="LCORR"> T  </i>
  </separator>
  <i type="logical" name="GGA_COMPAT"> T  </i>
  <i type="logical" name="LBERRY"> F  </i>
  <i type="int" name="ICORELEVEL">     0</i>
  <i type="logical" name="LDAU"> F  </i>
  <i type="int" name="I_CONSTRAINED_M">     0</i>
  <separator name="electronic exchange-correlation" >
   <i type="string" name="GGA">--</i>
   <i type="int" name="VOSKOWN">     0</i>
   <i type="logical" name="LHFCALC"> F  </i>
   <i type="string" name="PRECFOCK"></i>
   <i type="logical" name="LSYMGRAD"> F  </i>
   <i type="logical" name="LHFONE"> F  </i>
   <i type="logical" name="LRHFCALC"> F  </i>
   <i type="logical" name="LTHOMAS"> F  </i>
   <i type="logical" name="LMODELHF"> F  </i>
   <i name="ENCUT4O">     -1.00000000</i>
   <i type="int" name="EXXOEP">     0</i>
   <i type="int" name="FOURORBIT">     0</i>
   <i name="AEXX">      0.00000000</i>
   <i name="HFALPHA">      0.00000000</i>
   <i name="MCALPHA">      0.00000000</i>
   <i name="ALDAX">      1.00000000</i>
   <i name="AGGAX">      1.00000000</i>
   <i name="ALDAC">      1.00000000</i>
   <i name="AGGAC">      1.00000000</i>
   <i type="int" name="NKREDX">     1</i>
   <i type="int" name="NKREDY">     1</i>
   <i type="int" name="NKREDZ">     1</i>
   <i type="logical" name="SHIFTRED"> F  </i>
   <i type="logical" name="ODDONLY"> F  </i>
   <i type="logical" name="EVENONLY"> F  </i>
   <i type="int" name="LMAXFOCK">     0</i>
   <i type="int" name="NMAXFOCKAE">     0</i>
   <i type="logical" name="LFOCKAEDFT"> F  </i>
   <i name="HFSCREEN">      0.00000000</i>
   <i name="HFSCREENC">      0.00000000</i>
   <i type="int" name="NBANDSGWLOW">     0</i>
  </separator>
  <separator name="vdW DFT" >
   <i type="logical" name="LUSE_VDW"> F  </i>
   <i name="Zab_VDW">     -0.84910000</i>
   <i name="PARAM1">      0.12340000</i>
   <i name="PARAM2">      1.00000000</i>
   <i name="PARAM3">      0.00000000</i>
  </separator>
  <separator name="model GW" >
   <i type="int" name="MODEL_GW">     0</i>
   <i name="MODEL_EPS0">     15.71628168</i>
   <i name="MODEL_ALPHA">      1.00000000</i>
  </separator>
  <separator name="linear response parameters" >
   <i type="logical" name="LEPSILON"> F  </i>
   <i type="logical" name="LRPA"> F  </i>
   <i type="logical" name="LNABLA"> F  </i>
   <i type="logical" name="LVEL"> F  </i>
   <i type="int" name="KINTER">     0</i>
   <i name="CSHIFT">      0.10000000</i>
   <i name="OMEGAMAX">     -1.00000000</i>
   <i name="DEG_THRESHOLD">      0.00200000</i>
   <i name="RTIME">     -0.10000000</i>
   <i name="WPLASMAI">      0.00000000</i>
   <v name="DFIELD">      0.00000000      0.00000000      0.00000000</v>
   <v name="WPLASMA">      0.00000000      0.00000000      0.00000000      0.00000000      0.00000000      0.00000000      0.00000000      0.00000000      0.00000000</v>
  </separator>
  <separator name="orbital magnetization" >
   <i type="logical" name="NUCIND"> F  </i>
   <v name="MAGPOS">      0.00000000      0.00000000      0.00000000</v>
   <i type="logical" name="LNICSALL"> T  </i>
   <i type="logical" name="ORBITALMAG"> F  </i>
   <i type="logical" name="LMAGBLOCH"> F  </i>
   <i type="logical" name="LCHIMAG"> F  </i>
   <i type="logical" name="LGAUGE"> T  </i>
   <i type="int" name="MAGATOM">     0</i>
   <v name="MAGDIPOL">      0.00000000      0.00000000      0.00000000</v>
   <v name="AVECCONST">      0.00000000      0.00000000      0.00000000</v>
  </separator>
  <separator name="response functions" >
   <i type="logical" name="LADDER"> F  </i>
   <i type="logical" name="LRPAFORCE"> F  </i>
   <i type="logical" name="LFXC"> F  </i>
   <i type="logical" name="LHARTREE"> T  </i>
   <i type="int" name="IBSE">     0</i>
   <v type="int" name="KPOINT">    -1     0     0     0</v>
   <i type="logical" name="LTCTE"> F  </i>
   <i type="logical" name="LTETE"> F  </i>
   <i type="logical" name="LTRIPLET"> F  </i>
   <i type="logical" name="LFXCEPS"> F  </i>
   <i type="logical" name="LFXHEG"> F  </i>
   <i type="int" name="NATURALO">     2</i>
   <i type="logical" name="L2ORDER"> F  </i>
   <i type="logical" name="LMP2LT"> F  </i>
   <i type="logical" name="LUSEW"> F  </i>
   <i name="ENCUTGW">     -2.00000000</i>
   <i name="ENCUTGWSOFT">     -2.00000000</i>
   <i name="ENCUTLF">     -1.00000000</i>
   <i type="int" name="LMAXMP2">    -1</i>
   <i name="SCISSOR">      0.00000000</i>
   <i type="int" name="NOMEGA">     0</i>
   <i type="int" name="NOMEGAR">     0</i>
   <i type="int" name="NBANDSGW">    -1</i>
   <i type="int" name="NBANDSO">    -1</i>
   <i type="int" name="NBANDSV">    -1</i>
   <i type="int" name="NELM">     1</i>
   <i type="int" name="NELMHF">     1</i>
   <i type="int" name="DIM">     3</i>
   <i type="int" name="ANTIRES">     0</i>
   <i name="OMEGAMAX">    -30.00000000</i>
   <i name="OMEGAMIN">    -30.00000000</i>
   <i name="OMEGATL">   -200.00000000</i>
   <i type="int" name="OMEGAGRID">   140</i>
   <i name="CSHIFT">     -0.10000000</i>
   <i type="logical" name="SELFENERGY"> F  </i>
   <i type="logical" name="LSPECTRAL"> F  </i>
   <i type="logical" name="LSPECTRALGW"> F  </i>
   <i type="logical" name="LSINGLES"> F  </i>
   <i type="logical" name="LFERMIGW"> F  </i>
   <i type="logical" name="ODDONLYGW"> F  </i>
   <i type="logical" name="EVENONLYGW"> F  </i>
   <i type="int" name="NKREDLFX">     1</i>
   <i type="int" name="NKREDLFY">     1</i>
   <i type="int" name="NKREDLFZ">     1</i>
   <i type="int" name="MAXMEM">  2800</i>
   <i type="int" name="TELESCOPE">     0</i>
   <i type="int" name="TAUPAR">     1</i>
   <i type="int" name="OMEGAPAR">    -1</i>
   <i name="LAMBDA">      1.00000000</i>
  </separator>
  <separator name="External order field" >
   <i name="OFIELD_KAPPA">      0.00000000</i>
   <v name="OFIELD_K">      0.00000000      0.00000000      0.00000000</v>
   <i name="OFIELD_Q6_NEAR">      0.00000000</i>
   <i name="OFIELD_Q6_FAR">      0.00000000</i>
   <i name="OFIELD_A">      0.00000000</i>
  </separator>
 </parameters>
 <atominfo>
  <atoms>      36 </atoms>
  <types>       1 </types>
  <array name="atoms" >
   <dimension dim="1">ion</dimension>
   <field type="string">element</field>
   <field type="int">atomtype</field>
   <set>
    <rc><c>C </c><c>   1</c></rc>
    <rc><c>C </c><c>   1</c></rc>
    <rc><c>C </c><c>   1</c></rc>
    <rc><c>C </c><c>   1</c></rc>
    <rc><c>C </c><c>   1</c></rc>
    <rc><c>C </c><c>   1</c></rc>
    <rc><c>C </c><c>   1</c></rc>
    <rc><c>C </c><c>   1</c></rc>
    <rc><c>C </c><c>   1</c></rc>
    <rc><c>C </c><c>   1</c></rc>
    <rc><c>C </c><c>   1</c></rc>
    <rc><c>C </c><c>   1</c></rc>
    <rc><c>C </c><c>   1</c></rc>
    <rc><c>C </c><c>   1</c></rc>
    <rc><c>C </c><c>   1</c></rc>
    <rc><c>C </c><c>   1</c></rc>
    <rc><c>C </c><c>   1</c></rc>
    <rc><c>C </c><c>   1</c></rc>
    <rc><c>C </c><c>   1</c></rc>
    <rc><c>C </c><c>   1</c></rc>
    <rc><c>C </c><c>   1</c></rc>
    <rc><c>C </c><c>   1</c></rc>
    <rc><c>C </c><c>   1</c></rc>
    <rc><c>C </c><c>   1</c></rc>
    <rc><c>C </c><c>   1</c></rc>
    <rc><c>C </c><c>   1</c></rc>
    <rc><c>C </c><c>   1</c></rc>
    <rc><c>C </c><c>   1</c></rc>
    <rc><c>C </c><c>   1</c></rc>
    <rc><c>C </c><c>   1</c></rc>
    <rc><c>C </c><c>   1</c></rc>
    <rc><c>C </c><c>   1</c></rc>
    <rc><c>C </c><c>   1</c></rc>
    <rc><c>C </c><c>   1</c></rc>
    <rc><c>C </c><c>   1</c></rc>
    <rc><c>C </c><c>   1</c></rc>
   </set>
  </array>
  <array name="atomtypes" >
   <dimension dim="1">type</dimension>
   <field type="int">atomspertype</field>
   <field type="string">element</field>
   <field>mass</field>
   <field>valence</field>
   <field type="string">pseudopotential</field>
   <set>
    <rc><c>  36</c><c>C </c><c>     12.01100000</c><c>      4.00000000</c><c> PAW_PBE C 08Apr2002                    </c></rc>
   </set>
  </array>
 </atominfo>
 <structure name="initialpos" >
  <crystal>
   <varray name="basis" >
    <v>       6.39000000      -3.68926800       0.00000000 </v>
    <v>       6.39000000       3.68926800       0.00000000 </v>
    <v>       0.00000000       0.00000000      20.00000000 </v>
   </varray>
   <i name="volume">    942.97690080 </i>
   <varray name="rec_basis" >
    <v>       0.07824726      -0.13552824       0.00000000 </v>
    <v>       0.07824726       0.13552824       0.00000000 </v>
    <v>       0.00000000       0.00000000       0.05000000 </v>
   </varray>
  </crystal>
  <varray name="positions" >
   <v>       0.00046900       0.00000000       0.00046900 </v>
   <v>       0.33333300       0.00000000       0.00000000 </v>
   <v>       0.66666700       0.00000000       0.00000000 </v>
   <v>       0.00000000       0.33333300       0.00000000 </v>
   <v>       0.33333300       0.33333300       0.00000000 </v>
   <v>       0.66666700       0.33333300       0.00000000 </v>
   <v>       0.00000000       0.66666700       0.00000000 </v>
   <v>       0.33333300       0.66666700       0.00000000 </v>
   <v>       0.66666700       0.66666700       0.00000000 </v>
   <v>       0.11111100       0.11111100       0.00000000 </v>
   <v>       0.44444400       0.11111100       0.00000000 </v>
   <v>       0.77777800       0.11111100       0.00000000 </v>
   <v>       0.11111100       0.44444400       0.00000000 </v>
   <v>       0.44444400       0.44444400       0.00000000 </v>
   <v>       0.77777800       0.44444400       0.00000000 </v>
   <v>       0.11111100       0.77777800       0.00000000 </v>
   <v>       0.44444400       0.77777800       0.00000000 </v>
   <v>       0.77777800       0.77777800       0.00000000 </v>
   <v>       0.00000000       0.00000000       0.22193400 </v>
   <v>       0.33333300       0.00000000       0.22193400 </v>
   <v>       0.66666700       0.00000000       0.22193400 </v>
   <v>       0.00000000       0.33333300       0.22193400 </v>
   <v>       0.33333300       0.33333300       0.22193400 </v>
   <v>       0.66666700       0.33333300       0.22193400 </v>
   <v>       0.00000000       0.66666700       0.22193400 </v>
   <v>       0.33333300       0.66666700       0.22193400 </v>
   <v>       0.66666700       0.66666700       0.22193400 </v>
   <v>       0.11111100       0.11111100       0.22193400 </v>
   <v>       0.44444400       0.11111100       0.22193400 </v>
   <v>       0.77777800       0.11111100       0.22193400 </v>
   <v>       0.11111100       0.44444400       0.22193400 </v>
   <v>       0.44444400       0.44444400       0.22193400 </v>
   <v>       0.77777800       0.44444400       0.22193400 </v>
   <v>       0.11111100       0.77777800       0.22193400 </v>
   <v>       0.44444400       0.77777800       0.22193400 </v>
   <v>       0.77777800       0.77777800       0.22193400 </v>
  </varray>
 </structure>
 <calculation>
  <scstep>
   <time name="dav">   93.65   94.00</time>
   <time name="total">   93.87   94.23</time>
   <energy>
    <i name="alphaZ">    111.98396531 </i>
    <i name="ewald">  22261.21613067 </i>
    <i name="hartreedc"> -26416.95875203 </i>
    <i name="XCdc">    496.77461532 </i>
    <i name="pawpsdc">   1361.93195146 </i>
    <i name="pawaedc">  -1403.34921963 </i>
    <i name="eentropy">     -0.00045490 </i>
    <i name="bandstr">   -315.02591179 </i>
    <i name="atom">   5297.55924426 </i>
    <i name="e_fr_energy">   1394.13156868 </i>
    <i name="e_wo_entrp">   1394.13202357 </i>
    <i name="e_0_energy">   1394.13179612 </i>
   </energy>
  </scstep>
  <scstep>
   <time name="dav">  125.86  126.19</time>
   <time name="total">  125.86  126.20</time>
   <energy>
    <i name="e_fr_energy">   -138.03293392 </i>
    <i name="e_wo_entrp">   -138.03290524 </i>
    <i name="e_0_energy">   -138.03291958 </i>
   </energy>
  </scstep>
  <scstep>
   <time name="dav">  106.80  107.08</time>
   <time name="total">  106.80  107.09</time>
   <energy>
    <i name="e_fr_energy">   -348.84620945 </i>
    <i name="e_wo_entrp">   -348.84620567 </i>
    <i name="e_0_energy">   -348.84620756 </i>
   </energy>
  </scstep>
  <scstep>
   <time name="dav">  109.69  109.99</time>
   <time name="total">  109.70  109.99</time>
   <energy>
    <i name="e_fr_energy">   -355.49511602 </i>
    <i name="e_wo_entrp">   -355.49511592 </i>
    <i name="e_0_energy">   -355.49511597 </i>
   </energy>
  </scstep>
  <scstep>
   <time name="dav">  122.83  123.15</time>
   <time name="total">  127.52  127.86</time>
   <energy>
    <i name="e_fr_energy">   -355.71054761 </i>
    <i name="e_wo_entrp">   -355.71054753 </i>
    <i name="e_0_energy">   -355.71054757 </i>
   </energy>
  </scstep>
  <scstep>
   <time name="dav">  100.30  100.55</time>
   <time name="total">  105.15  105.43</time>
   <energy>
    <i name="e_fr_energy">   -338.64534636 </i>
    <i name="e_wo_entrp">   -338.64534636 </i>
    <i name="e_0_energy">   -338.64534636 </i>
   </energy>
  </scstep>
  <scstep>
   <time name="dav">  101.03  101.28</time>
   <time name="total">  105.77  106.06</time>
   <energy>
    <i name="e_fr_energy">   -332.38836315 </i>
    <i name="e_wo_entrp">   -332.38836315 </i>
    <i name="e_0_energy">   -332.38836315 </i>
   </energy>
  </scstep>
  <scstep>
   <time name="dav">  106.26  106.53</time>
   <time name="total">  111.19  111.49</time>
   <energy>
    <i name="e_fr_energy">   -332.37480169 </i>
    <i name="e_wo_entrp">   -332.37480169 </i>
    <i name="e_0_energy">   -332.37480169 </i>
   </energy>
  </scstep>
  <scstep>
   <time name="dav">  104.62  104.88</time>
   <time name="total">  109.45  109.74</time>
   <energy>
    <i name="e_fr_energy">   -332.34553320 </i>
    <i name="e_wo_entrp">   -332.34553320 </i>
    <i name="e_0_energy">   -332.34553320 </i>
   </energy>
  </scstep>
  <scstep>
   <time name="dav">   98.21   98.46</time>
   <time name="total">  103.11  103.39</time>
   <energy>
    <i name="e_fr_energy">   -332.30516074 </i>
    <i name="e_wo_entrp">   -332.30516074 </i>
    <i name="e_0_energy">   -332.30516074 </i>
   </energy>
  </scstep>
  <scstep>
   <time name="dav">   96.04   96.28</time>
   <time name="total">  100.91  101.18</time>
   <energy>
    <i name="e_fr_energy">   -332.27363333 </i>
    <i name="e_wo_entrp">   -332.27363333 </i>
    <i name="e_0_energy">   -332.27363333 </i>
   </energy>
  </scstep>
  <scstep>
   <time name="dav">   94.20   94.44</time>
   <time name="total">   99.11   99.38</time>
   <energy>
    <i name="e_fr_energy">   -332.25281137 </i>
    <i name="e_wo_entrp">   -332.25281137 </i>
    <i name="e_0_energy">   -332.25281137 </i>
   </energy>
  </scstep>
  <scstep>
   <time name="dav">   95.69   95.93</time>
   <time name="total">  100.63  100.90</time>
   <energy>
    <i name="e_fr_energy">   -332.26249078 </i>
    <i name="e_wo_entrp">   -332.26249078 </i>
    <i name="e_0_energy">   -332.26249078 </i>
   </energy>
  </scstep>
  <scstep>
   <time name="dav">   96.22   96.46</time>
   <time name="total">  101.19  101.46</time>
   <energy>
    <i name="e_fr_energy">   -332.26898253 </i>
    <i name="e_wo_entrp">   -332.26898253 </i>
    <i name="e_0_energy">   -332.26898253 </i>
   </energy>
  </scstep>
  <scstep>
   <time name="dav">   97.68   97.93</time>
   <time name="total">  102.57  102.84</time>
   <energy>
    <i name="e_fr_energy">   -332.27500274 </i>
    <i name="e_wo_entrp">   -332.27500274 </i>
    <i name="e_0_energy">   -332.27500274 </i>
   </energy>
  </scstep>
  <scstep>
   <time name="dav">   97.80   98.05</time>
   <time name="total">  102.79  103.07</time>
   <energy>
    <i name="e_fr_energy">   -332.27649939 </i>
    <i name="e_wo_entrp">   -332.27649939 </i>
    <i name="e_0_energy">   -332.27649939 </i>
   </energy>
  </scstep>
  <scstep>
   <time name="dav">   98.15   98.40</time>
   <time name="total">  102.82  103.10</time>
   <energy>
    <i name="e_fr_energy">   -332.27696776 </i>
    <i name="e_wo_entrp">   -332.27696776 </i>
    <i name="e_0_energy">   -332.27696776 </i>
   </energy>
  </scstep>
  <scstep>
   <time name="dav">  102.63  102.89</time>
   <time name="total">  107.28  107.57</time>
   <energy>
    <i name="e_fr_energy">   -332.27708885 </i>
    <i name="e_wo_entrp">   -332.27708885 </i>
    <i name="e_0_energy">   -332.27708885 </i>
   </energy>
  </scstep>
  <scstep>
   <time name="dav">   98.02   98.26</time>
   <time name="total">  103.01  103.29</time>
   <energy>
    <i name="e_fr_energy">   -332.27715219 </i>
    <i name="e_wo_entrp">   -332.27715219 </i>
    <i name="e_0_energy">   -332.27715219 </i>
   </energy>
  </scstep>
  <scstep>
   <time name="dav">   97.78   98.02</time>
   <time name="total">  102.70  102.98</time>
   <energy>
    <i name="e_fr_energy">   -332.27719114 </i>
    <i name="e_wo_entrp">   -332.27719114 </i>
    <i name="e_0_energy">   -332.27719114 </i>
   </energy>
  </scstep>
  <scstep>
   <time name="dav">  101.69  101.94</time>
   <time name="total">  106.57  106.85</time>
   <energy>
    <i name="e_fr_energy">   -332.27719270 </i>
    <i name="e_wo_entrp">   -332.27719270 </i>
    <i name="e_0_energy">   -332.27719270 </i>
   </energy>
  </scstep>
  <scstep>
   <time name="dav">   94.84   95.08</time>
   <time name="total">   99.56   99.83</time>
   <energy>
    <i name="e_fr_energy">   -332.27719333 </i>
    <i name="e_wo_entrp">   -332.27719333 </i>
    <i name="e_0_energy">   -332.27719333 </i>
   </energy>
  </scstep>
  <scstep>
   <time name="dav">   80.97   81.17</time>
   <time name="total">   85.79   86.03</time>
   <energy>
    <i name="e_fr_energy">   -332.27719331 </i>
    <i name="e_wo_entrp">   -332.27719331 </i>
    <i name="e_0_energy">   -332.27719331 </i>
   </energy>
  </scstep>
  <scstep>
   <time name="dav">   77.88   78.08</time>
   <time name="total">   82.81   83.03</time>
   <energy>
    <i name="e_fr_energy">   -332.27719333 </i>
    <i name="e_wo_entrp">   -332.27719333 </i>
    <i name="e_0_energy">   -332.27719333 </i>
   </energy>
  </scstep>
  <scstep>
   <time name="dav">   75.27   75.46</time>
   <time name="total">   75.42   75.64</time>
   <energy>
    <i name="alphaZ">    111.98396531 </i>
    <i name="ewald">  22261.21613067 </i>
    <i name="hartreedc"> -26980.53337287 </i>
    <i name="XCdc">    518.73015137 </i>
    <i name="pawpsdc">   2518.56803447 </i>
    <i name="pawaedc">  -2565.01709115 </i>
    <i name="eentropy">     -0.00000000 </i>
    <i name="bandstr">  -1494.78425538 </i>
    <i name="atom">   5297.55924426 </i>
    <i name="e_fr_energy">   -332.27719334 </i>
    <i name="e_wo_entrp">   -332.27719334 </i>
    <i name="e_0_energy">   -332.27719334 </i>
   </energy>
  </scstep>
  <structure>
   <crystal>
    <varray name="basis" >
     <v>       6.39000000      -3.68926800       0.00000000 </v>
     <v>       6.39000000       3.68926800       0.00000000 </v>
     <v>       0.00000000       0.00000000      20.00000000 </v>
    </varray>
    <i name="volume">    942.97690080 </i>
    <varray name="rec_basis" >
     <v>       0.07824726      -0.13552824       0.00000000 </v>
     <v>       0.07824726       0.13552824       0.00000000 </v>
     <v>       0.00000000       0.00000000       0.05000000 </v>
    </varray>
   </crystal>
   <varray name="positions" >
    <v>       0.00046900       0.00000000       0.00046900 </v>
    <v>       0.33333300       0.00000000       0.00000000 </v>
    <v>       0.66666700       0.00000000       0.00000000 </v>
    <v>       0.00000000       0.33333300       0.00000000 </v>
    <v>       0.33333300       0.33333300       0.00000000 </v>
    <v>       0.66666700       0.33333300       0.00000000 </v>
    <v>       0.00000000       0.66666700       0.00000000 </v>
    <v>       0.33333300       0.66666700       0.00000000 </v>
    <v>       0.66666700       0.66666700       0.00000000 </v>
    <v>       0.11111100       0.11111100       0.00000000 </v>
    <v>       0.44444400       0.11111100       0.00000000 </v>
    <v>       0.77777800       0.11111100       0.00000000 </v>
    <v>       0.11111100       0.44444400       0.00000000 </v>
    <v>       0.44444400       0.44444400       0.00000000 </v>
    <v>       0.77777800       0.44444400       0.00000000 </v>
    <v>       0.11111100       0.77777800       0.00000000 </v>
    <v>       0.44444400       0.77777800       0.00000000 </v>
    <v>       0.77777800       0.77777800       0.00000000 </v>
    <v>       0.00000000       0.00000000       0.22193400 </v>
    <v>       0.33333300       0.00000000       0.22193400 </v>
    <v>       0.66666700       0.00000000       0.22193400 </v>
    <v>       0.00000000       0.33333300       0.22193400 </v>
    <v>       0.33333300       0.33333300       0.22193400 </v>
    <v>       0.66666700       0.33333300       0.22193400 </v>
    <v>       0.00000000       0.66666700       0.22193400 </v>
    <v>       0.33333300       0.66666700       0.22193400 </v>
    <v>       0.66666700       0.66666700       0.22193400 </v>
    <v>       0.11111100       0.11111100       0.22193400 </v>
    <v>       0.44444400       0.11111100       0.22193400 </v>
    <v>       0.77777800       0.11111100       0.22193400 </v>
    <v>       0.11111100       0.44444400       0.22193400 </v>
    <v>       0.44444400       0.44444400       0.22193400 </v>
    <v>       0.77777800       0.44444400       0.22193400 </v>
    <v>       0.11111100       0.77777800       0.22193400 </v>
    <v>       0.44444400       0.77777800       0.22193400 </v>
    <v>       0.77777800       0.77777800       0.22193400 </v>
   </varray>
  </structure>
  <varray name="forces" >
   <v>      -0.18939405       0.10819709      -0.13408240 </v>
   <v>       0.01280718      -0.01031509      -0.00551997 </v>
   <v>       0.01505277      -0.00563124      -0.00535306 </v>
   <v>       0.00400507       0.01372254      -0.00545247 </v>
   <v>       0.00426927      -0.00243014       0.00131686 </v>
   <v>      -0.01003387      -0.01003436      -0.00542022 </v>
   <v>       0.00129457       0.00907765      -0.00536878 </v>
   <v>      -0.00752210      -0.00607664      -0.00550348 </v>
   <v>       0.00395047      -0.00242840       0.00131673 </v>
   <v>       0.07767602      -0.01879602       0.05682269 </v>
   <v>       0.00008107      -0.00016083      -0.00938558 </v>
   <v>       0.05495089      -0.05733871       0.05767034 </v>
   <v>      -0.00122895       0.00246492      -0.00936753 </v>
   <v>      -0.00239714       0.00001743      -0.00940409 </v>
   <v>       0.00696548      -0.00375241       0.00252077 </v>
   <v>       0.03296054      -0.01834700       0.05725288 </v>
   <v>       0.00125324       0.00576840       0.00251664 </v>
   <v>      -0.00468736      -0.00393884       0.00252465 </v>
   <v>      -0.00037989       0.00022153       0.00077364 </v>
   <v>       0.00004524       0.00015391       0.00070495 </v>
   <v>      -0.00026887       0.00008471       0.00070793 </v>
   <v>      -0.00012287      -0.00006671       0.00070269 </v>
   <v>      -0.00030453       0.00019766       0.00071302 </v>
   <v>      -0.00013286       0.00037557       0.00071029 </v>
   <v>      -0.00012243       0.00000247       0.00070416 </v>
   <v>      -0.00029014      -0.00030711       0.00070883 </v>
   <v>      -0.00062362       0.00019761       0.00071305 </v>
   <v>       0.00029629       0.00000732       0.00071954 </v>
   <v>       0.00014675      -0.00018063       0.00071529 </v>
   <v>       0.00015450      -0.00029428       0.00074175 </v>
   <v>       0.00031318      -0.00011665       0.00071679 </v>
   <v>       0.00061906      -0.00000451       0.00071409 </v>
   <v>       0.00009871       0.00021973       0.00071306 </v>
   <v>      -0.00001834       0.00000950       0.00073059 </v>
   <v>       0.00028135      -0.00051099       0.00071286 </v>
   <v>       0.00030536       0.00001254       0.00071350 </v>
  </varray>
  <varray name="stress" >
   <v>      12.80973189       0.03676342      -0.00303461 </v>
   <v>       0.03676342      12.67946817       0.00173377 </v>
   <v>      -0.00303461       0.00173377      -0.60215315 </v>
  </varray>
  <energy>
   <i name="e_fr_energy">   -332.27719334 </i>
   <i name="e_wo_entrp">   -332.27719334 </i>
   <i name="e_0_energy">     -0.00000000 </i>
  </energy>
  <time name="totalsc"> 2672.33 2679.71</time>
  <eigenvalues>
   <array>
    <dimension dim="1">band</dimension>
    <dimension dim="2">kpoint</dimension>
    <dimension dim="3">spin</dimension>
    <field>eigene</field>
    <field>occ</field>
    <set>
     <set comment="spin 1">
      <set comment="kpoint 1">
       <r>  -20.7948    1.0000 </r>
       <r>  -20.7831    1.0000 </r>
       <r>  -18.2022    1.0000 </r>
       <r>  -18.1977    1.0000 </r>
       <r>  -18.1973    1.0000 </r>
       <r>  -18.1973    1.0000 </r>
       <r>  -18.1969    1.0000 </r>
       <r>  -18.1949    1.0000 </r>
       <r>  -18.1903    1.0000 </r>
       <r>  -18.1883    1.0000 </r>
       <r>  -18.1879    1.0000 </r>
       <r>  -18.1879    1.0000 </r>
       <r>  -18.1875    1.0000 </r>
       <r>  -18.1829    1.0000 </r>
       <r>  -13.8342    1.0000 </r>
       <r>  -13.8306    1.0000 </r>
       <r>  -13.8304    1.0000 </r>
       <r>  -13.8289    1.0000 </r>
       <r>  -13.8263    1.0000 </r>
       <r>  -13.8247    1.0000 </r>
       <r>  -13.8246    1.0000 </r>
       <r>  -13.8209    1.0000 </r>
       <r>  -11.8210    1.0000 </r>
       <r>  -11.8202    1.0000 </r>
       <r>  -11.8165    1.0000 </r>
       <r>  -11.8156    1.0000 </r>
       <r>  -10.8702    1.0000 </r>
       <r>  -10.8657    1.0000 </r>
       <r>  -10.8639    1.0000 </r>
       <r>  -10.8639    1.0000 </r>
       <r>  -10.8629    1.0000 </r>
       <r>  -10.8623    1.0000 </r>
       <r>  -10.8613    1.0000 </r>
       <r>  -10.8607    1.0000 </r>
       <r>  -10.8598    1.0000 </r>
       <r>  -10.8598    1.0000 </r>
       <r>  -10.8579    1.0000 </r>
       <r>  -10.8532    1.0000 </r>
       <r>   -8.9734    1.0000 </r>
       <r>   -8.7915    1.0000 </r>
       <r>   -7.0147    1.0000 </r>
       <r>   -7.0066    1.0000 </r>
       <r>   -7.0057    1.0000 </r>
       <r>   -7.0057    1.0000 </r>
       <r>   -7.0053    1.0000 </r>
       <r>   -7.0052    1.0000 </r>
       <r>   -7.0051    1.0000 </r>
       <r>   -7.0050    1.0000 </r>
       <r>   -7.0046    1.0000 </r>
       <r>   -7.0046    1.0000 </r>
       <r>   -7.0037    1.0000 </r>
       <r>   -6.9956    1.0000 </r>
       <r>   -5.9488    1.0000 </r>
       <r>   -5.9457    1.0000 </r>
       <r>   -5.9455    1.0000 </r>
       <r>   -5.9454    1.0000 </r>
       <r>   -5.9453    1.0000 </r>
       <r>   -5.9426    1.0000 </r>
       <r>   -5.7969    1.0000 </r>
       <r>   -5.7942    1.0000 </r>
       <r>   -5.7940    1.0000 </r>
       <r>   -5.7940    1.0000 </r>
       <r>   -5.7938    1.0000 </r>
       <r>   -5.7905    1.0000 </r>
       <r>   -4.2476    1.0000 </r>
       <r>   -4.2419    1.0000 </r>
       <r>   -4.2418    1.0000 </r>
       <r>   -4.2359    1.0000 </r>
       <r>   -1.2647    1.0000 </r>
       <r>   -1.2618    1.0000 </r>
       <r>   -1.2618    1.0000 </r>
       <r>   -1.2594    1.0000 </r>
       <r>   -1.1694    0.0000 </r>
       <r>   -1.1669    0.0000 </r>
       <r>   -1.1669    0.0000 </r>
       <r>   -1.1640    0.0000 </r>
       <r>    1.9311    0.0000 </r>
       <r>    2.4904    0.0000 </r>
       <r>    3.1146    0.0000 </r>
       <r>    3.6605    0.0000 </r>
       <r>    3.6648    0.0000 </r>
       <r>    3.6651    0.0000 </r>
       <r>    3.6653    0.0000 </r>
       <r>    3.6656    0.0000 </r>
       <r>    3.6691    0.0000 </r>
       <r>    3.7761    0.0000 </r>
       <r>    3.7799    0.0000 </r>
       <r>    3.7803    0.0000 </r>
       <r>    3.7804    0.0000 </r>
       <r>    3.7807    0.0000 </r>
       <r>    3.7847    0.0000 </r>
       <r>    4.0037    0.0000 </r>
       <r>    4.6793    0.0000 </r>
       <r>    5.4396    0.0000 </r>
       <r>    5.4401    0.0000 </r>
       <r>    5.4411    0.0000 </r>
      </set>
      <set comment="kpoint 2">
       <r>  -20.7889    1.0000 </r>
       <r>  -20.7771    1.0000 </r>
       <r>  -18.4345    1.0000 </r>
       <r>  -18.4249    1.0000 </r>
       <r>  -18.3137    1.0000 </r>
       <r>  -18.3123    1.0000 </r>
       <r>  -18.3041    1.0000 </r>
       <r>  -18.3027    1.0000 </r>
       <r>  -18.0713    1.0000 </r>
       <r>  -18.0698    1.0000 </r>
       <r>  -18.0619    1.0000 </r>
       <r>  -18.0604    1.0000 </r>
       <r>  -17.9496    1.0000 </r>
       <r>  -17.9404    1.0000 </r>
       <r>  -14.0300    1.0000 </r>
       <r>  -14.0281    1.0000 </r>
       <r>  -14.0237    1.0000 </r>
       <r>  -14.0217    1.0000 </r>
       <r>  -13.6624    1.0000 </r>
       <r>  -13.6605    1.0000 </r>
       <r>  -13.6564    1.0000 </r>
       <r>  -13.6544    1.0000 </r>
       <r>  -11.7799    1.0000 </r>
       <r>  -11.7790    1.0000 </r>
       <r>  -11.7754    1.0000 </r>
       <r>  -11.7745    1.0000 </r>
       <r>  -11.2785    1.0000 </r>
       <r>  -11.2738    1.0000 </r>
       <r>  -11.0714    1.0000 </r>
       <r>  -11.0694    1.0000 </r>
       <r>  -11.0665    1.0000 </r>
       <r>  -11.0651    1.0000 </r>
       <r>  -10.6545    1.0000 </r>
       <r>  -10.6525    1.0000 </r>
       <r>  -10.6497    1.0000 </r>
       <r>  -10.6484    1.0000 </r>
       <r>  -10.4440    1.0000 </r>
       <r>  -10.4396    1.0000 </r>
       <r>   -8.9662    1.0000 </r>
       <r>   -8.7843    1.0000 </r>
       <r>   -7.1211    1.0000 </r>
       <r>   -7.1181    1.0000 </r>
       <r>   -7.0842    1.0000 </r>
       <r>   -7.0828    1.0000 </r>
       <r>   -7.0826    1.0000 </r>
       <r>   -7.0790    1.0000 </r>
       <r>   -6.9663    1.0000 </r>
       <r>   -6.9648    1.0000 </r>
       <r>   -6.9646    1.0000 </r>
       <r>   -6.9604    1.0000 </r>
       <r>   -6.8850    1.0000 </r>
       <r>   -6.8824    1.0000 </r>
       <r>   -6.2103    1.0000 </r>
       <r>   -6.0741    1.0000 </r>
       <r>   -6.0729    1.0000 </r>
       <r>   -6.0553    1.0000 </r>
       <r>   -5.9209    1.0000 </r>
       <r>   -5.9195    1.0000 </r>
       <r>   -5.8059    1.0000 </r>
       <r>   -5.8046    1.0000 </r>
       <r>   -5.6744    1.0000 </r>
       <r>   -5.6562    1.0000 </r>
       <r>   -5.6548    1.0000 </r>
       <r>   -5.5264    1.0000 </r>
       <r>   -4.2668    1.0000 </r>
       <r>   -4.2638    1.0000 </r>
       <r>   -4.2578    1.0000 </r>
       <r>   -4.2551    1.0000 </r>
       <r>   -1.5210    1.0000 </r>
       <r>   -1.5196    1.0000 </r>
       <r>   -1.4245    1.0000 </r>
       <r>   -1.4231    1.0000 </r>
       <r>   -1.0069    0.0000 </r>
       <r>   -1.0055    0.0000 </r>
       <r>   -0.9128    0.0000 </r>
       <r>   -0.9113    0.0000 </r>
       <r>    1.9391    0.0000 </r>
       <r>    2.4985    0.0000 </r>
       <r>    3.1227    0.0000 </r>
       <r>    3.2271    0.0000 </r>
       <r>    3.3477    0.0000 </r>
       <r>    3.4407    0.0000 </r>
       <r>    3.4426    0.0000 </r>
       <r>    3.5581    0.0000 </r>
       <r>    3.5599    0.0000 </r>
       <r>    3.8815    0.0000 </r>
       <r>    3.8834    0.0000 </r>
       <r>    3.9935    0.0000 </r>
       <r>    3.9953    0.0000 </r>
       <r>    4.0117    0.0000 </r>
       <r>    4.1082    0.0000 </r>
       <r>    4.2181    0.0000 </r>
       <r>    4.6874    0.0000 </r>
       <r>    5.1201    0.0000 </r>
       <r>    5.2846    0.0000 </r>
       <r>    5.2850    0.0000 </r>
      </set>
      <set comment="kpoint 3">
       <r>  -20.7709    1.0000 </r>
       <r>  -20.7592    1.0000 </r>
       <r>  -18.6612    1.0000 </r>
       <r>  -18.6514    1.0000 </r>
       <r>  -18.4180    1.0000 </r>
       <r>  -18.4166    1.0000 </r>
       <r>  -18.4083    1.0000 </r>
       <r>  -18.4069    1.0000 </r>
       <r>  -17.9334    1.0000 </r>
       <r>  -17.9319    1.0000 </r>
       <r>  -17.9241    1.0000 </r>
       <r>  -17.9226    1.0000 </r>
       <r>  -17.6920    1.0000 </r>
       <r>  -17.6831    1.0000 </r>
       <r>  -14.2523    1.0000 </r>
       <r>  -14.2504    1.0000 </r>
       <r>  -14.2458    1.0000 </r>
       <r>  -14.2439    1.0000 </r>
       <r>  -13.5227    1.0000 </r>
       <r>  -13.5207    1.0000 </r>
       <r>  -13.5167    1.0000 </r>
       <r>  -13.5148    1.0000 </r>
       <r>  -11.6889    1.0000 </r>
       <r>  -11.6841    1.0000 </r>
       <r>  -11.6617    1.0000 </r>
       <r>  -11.6607    1.0000 </r>
       <r>  -11.6572    1.0000 </r>
       <r>  -11.6562    1.0000 </r>
       <r>  -11.2712    1.0000 </r>
       <r>  -11.2693    1.0000 </r>
       <r>  -11.2662    1.0000 </r>
       <r>  -11.2648    1.0000 </r>
       <r>  -10.4397    1.0000 </r>
       <r>  -10.4375    1.0000 </r>
       <r>  -10.4349    1.0000 </r>
       <r>  -10.4336    1.0000 </r>
       <r>  -10.0223    1.0000 </r>
       <r>  -10.0181    1.0000 </r>
       <r>   -8.9446    1.0000 </r>
       <r>   -8.7629    1.0000 </r>
       <r>   -7.2239    1.0000 </r>
       <r>   -7.2209    1.0000 </r>
       <r>   -7.1987    1.0000 </r>
       <r>   -7.1974    1.0000 </r>
       <r>   -7.1971    1.0000 </r>
       <r>   -7.1935    1.0000 </r>
       <r>   -6.9621    1.0000 </r>
       <r>   -6.9607    1.0000 </r>
       <r>   -6.9604    1.0000 </r>
       <r>   -6.9563    1.0000 </r>
       <r>   -6.7534    1.0000 </r>
       <r>   -6.7505    1.0000 </r>
       <r>   -6.4662    1.0000 </r>
       <r>   -6.3083    1.0000 </r>
       <r>   -6.1900    1.0000 </r>
       <r>   -6.1888    1.0000 </r>
       <r>   -6.0354    1.0000 </r>
       <r>   -6.0340    1.0000 </r>
       <r>   -5.6542    1.0000 </r>
       <r>   -5.6529    1.0000 </r>
       <r>   -5.5065    1.0000 </r>
       <r>   -5.5051    1.0000 </r>
       <r>   -5.3979    1.0000 </r>
       <r>   -5.2540    1.0000 </r>
       <r>   -4.3410    1.0000 </r>
       <r>   -4.3361    1.0000 </r>
       <r>   -4.2991    1.0000 </r>
       <r>   -4.2945    1.0000 </r>
       <r>   -1.7814    1.0000 </r>
       <r>   -1.7801    1.0000 </r>
       <r>   -1.6831    1.0000 </r>
       <r>   -1.6817    1.0000 </r>
       <r>   -0.7545    0.0000 </r>
       <r>   -0.7531    0.0000 </r>
       <r>   -0.6607    0.0000 </r>
       <r>   -0.6592    0.0000 </r>
       <r>    1.9631    0.0000 </r>
       <r>    2.5229    0.0000 </r>
       <r>    2.7957    0.0000 </r>
       <r>    2.9220    0.0000 </r>
       <r>    3.1471    0.0000 </r>
       <r>    3.2142    0.0000 </r>
       <r>    3.2161    0.0000 </r>
       <r>    3.3328    0.0000 </r>
       <r>    3.3346    0.0000 </r>
       <r>    4.0358    0.0000 </r>
       <r>    4.0920    0.0000 </r>
       <r>    4.0939    0.0000 </r>
       <r>    4.1997    0.0000 </r>
       <r>    4.2016    0.0000 </r>
       <r>    4.5455    0.0000 </r>
       <r>    4.6485    0.0000 </r>
       <r>    4.7119    0.0000 </r>
       <r>    4.8168    0.0000 </r>
       <r>    5.1446    0.0000 </r>
       <r>    5.1450    0.0000 </r>
      </set>
      <set comment="kpoint 4">
       <r>  -20.7410    1.0000 </r>
       <r>  -20.7293    1.0000 </r>
       <r>  -18.8770    1.0000 </r>
       <r>  -18.8670    1.0000 </r>
       <r>  -18.5110    1.0000 </r>
       <r>  -18.5095    1.0000 </r>
       <r>  -18.5012    1.0000 </r>
       <r>  -18.4997    1.0000 </r>
       <r>  -17.7845    1.0000 </r>
       <r>  -17.7830    1.0000 </r>
       <r>  -17.7754    1.0000 </r>
       <r>  -17.7739    1.0000 </r>
       <r>  -17.4249    1.0000 </r>
       <r>  -17.4162    1.0000 </r>
       <r>  -14.4913    1.0000 </r>
       <r>  -14.4895    1.0000 </r>
       <r>  -14.4847    1.0000 </r>
       <r>  -14.4828    1.0000 </r>
       <r>  -13.4068    1.0000 </r>
       <r>  -13.4049    1.0000 </r>
       <r>  -13.4009    1.0000 </r>
       <r>  -13.3992    1.0000 </r>
       <r>  -12.0934    1.0000 </r>
       <r>  -12.0882    1.0000 </r>
       <r>  -11.4796    1.0000 </r>
       <r>  -11.4783    1.0000 </r>
       <r>  -11.4752    1.0000 </r>
       <r>  -11.4739    1.0000 </r>
       <r>  -11.4638    1.0000 </r>
       <r>  -11.4621    1.0000 </r>
       <r>  -11.4590    1.0000 </r>
       <r>  -11.4575    1.0000 </r>
       <r>  -10.2225    1.0000 </r>
       <r>  -10.2202    1.0000 </r>
       <r>  -10.2177    1.0000 </r>
       <r>  -10.2164    1.0000 </r>
       <r>   -9.5991    1.0000 </r>
       <r>   -9.5951    1.0000 </r>
       <r>   -8.9087    1.0000 </r>
       <r>   -8.7273    1.0000 </r>
       <r>   -7.3490    1.0000 </r>
       <r>   -7.3473    1.0000 </r>
       <r>   -7.3470    1.0000 </r>
       <r>   -7.3436    1.0000 </r>
       <r>   -7.3157    1.0000 </r>
       <r>   -7.3132    1.0000 </r>
       <r>   -6.9919    1.0000 </r>
       <r>   -6.9906    1.0000 </r>
       <r>   -6.9903    1.0000 </r>
       <r>   -6.9862    1.0000 </r>
       <r>   -6.7126    1.0000 </r>
       <r>   -6.6132    1.0000 </r>
       <r>   -6.6102    1.0000 </r>
       <r>   -6.5518    1.0000 </r>
       <r>   -6.2936    1.0000 </r>
       <r>   -6.2923    1.0000 </r>
       <r>   -6.1376    1.0000 </r>
       <r>   -6.1362    1.0000 </r>
       <r>   -5.4911    1.0000 </r>
       <r>   -5.4898    1.0000 </r>
       <r>   -5.3456    1.0000 </r>
       <r>   -5.3442    1.0000 </r>
       <r>   -5.1191    1.0000 </r>
       <r>   -4.9795    1.0000 </r>
       <r>   -4.4627    1.0000 </r>
       <r>   -4.4578    1.0000 </r>
       <r>   -4.3634    1.0000 </r>
       <r>   -4.3587    1.0000 </r>
       <r>   -2.0431    1.0000 </r>
       <r>   -2.0418    1.0000 </r>
       <r>   -1.9425    1.0000 </r>
       <r>   -1.9411    1.0000 </r>
       <r>   -0.5056    0.0000 </r>
       <r>   -0.5042    0.0000 </r>
       <r>   -0.4116    0.0000 </r>
       <r>   -0.4101    0.0000 </r>
       <r>    2.0031    0.0000 </r>
       <r>    2.3761    0.0000 </r>
       <r>    2.5083    0.0000 </r>
       <r>    2.5636    0.0000 </r>
       <r>    2.9854    0.0000 </r>
       <r>    2.9873    0.0000 </r>
       <r>    3.1045    0.0000 </r>
       <r>    3.1063    0.0000 </r>
       <r>    3.1880    0.0000 </r>
       <r>    4.0760    0.0000 </r>
       <r>    4.2928    0.0000 </r>
       <r>    4.2948    0.0000 </r>
       <r>    4.3949    0.0000 </r>
       <r>    4.3968    0.0000 </r>
       <r>    4.5158    0.0000 </r>
       <r>    4.7525    0.0000 </r>
       <r>    4.9741    0.0000 </r>
       <r>    4.9817    0.0000 </r>
       <r>    5.0201    0.0000 </r>
       <r>    5.0211    0.0000 </r>
      </set>
      <set comment="kpoint 5">
       <r>  -20.6991    1.0000 </r>
       <r>  -20.6874    1.0000 </r>
       <r>  -19.0818    1.0000 </r>
       <r>  -19.0717    1.0000 </r>
       <r>  -18.5924    1.0000 </r>
       <r>  -18.5910    1.0000 </r>
       <r>  -18.5826    1.0000 </r>
       <r>  -18.5811    1.0000 </r>
       <r>  -17.6249    1.0000 </r>
       <r>  -17.6234    1.0000 </r>
       <r>  -17.6159    1.0000 </r>
       <r>  -17.6143    1.0000 </r>
       <r>  -17.1489    1.0000 </r>
       <r>  -17.1404    1.0000 </r>
       <r>  -14.7404    1.0000 </r>
       <r>  -14.7386    1.0000 </r>
       <r>  -14.7336    1.0000 </r>
       <r>  -14.7317    1.0000 </r>
       <r>  -13.3065    1.0000 </r>
       <r>  -13.3046    1.0000 </r>
       <r>  -13.3007    1.0000 </r>
       <r>  -13.2990    1.0000 </r>
       <r>  -12.4906    1.0000 </r>
       <r>  -12.4853    1.0000 </r>
       <r>  -11.6496    1.0000 </r>
       <r>  -11.6478    1.0000 </r>
       <r>  -11.6445    1.0000 </r>
       <r>  -11.6431    1.0000 </r>
       <r>  -11.2484    1.0000 </r>
       <r>  -11.2473    1.0000 </r>
       <r>  -11.2442    1.0000 </r>
       <r>  -11.2429    1.0000 </r>
       <r>  -10.0049    1.0000 </r>
       <r>  -10.0025    1.0000 </r>
       <r>  -10.0002    1.0000 </r>
       <r>   -9.9989    1.0000 </r>
       <r>   -9.1758    1.0000 </r>
       <r>   -9.1719    1.0000 </r>
       <r>   -8.8584    1.0000 </r>
       <r>   -8.6775    1.0000 </r>
       <r>   -7.5319    1.0000 </r>
       <r>   -7.5304    1.0000 </r>
       <r>   -7.5300    1.0000 </r>
       <r>   -7.5267    1.0000 </r>
       <r>   -7.3972    1.0000 </r>
       <r>   -7.3946    1.0000 </r>
       <r>   -7.0524    1.0000 </r>
       <r>   -7.0512    1.0000 </r>
       <r>   -7.0508    1.0000 </r>
       <r>   -7.0467    1.0000 </r>
       <r>   -6.9484    1.0000 </r>
       <r>   -6.7851    1.0000 </r>
       <r>   -6.4653    1.0000 </r>
       <r>   -6.4620    1.0000 </r>
       <r>   -6.3845    1.0000 </r>
       <r>   -6.3832    1.0000 </r>
       <r>   -6.2274    1.0000 </r>
       <r>   -6.2260    1.0000 </r>
       <r>   -5.3170    1.0000 </r>
       <r>   -5.3158    1.0000 </r>
       <r>   -5.1738    1.0000 </r>
       <r>   -5.1724    1.0000 </r>
       <r>   -4.8416    1.0000 </r>
       <r>   -4.7069    1.0000 </r>
       <r>   -4.6293    1.0000 </r>
       <r>   -4.6243    1.0000 </r>
       <r>   -4.4504    1.0000 </r>
       <r>   -4.4458    1.0000 </r>
       <r>   -2.3052    1.0000 </r>
       <r>   -2.3039    1.0000 </r>
       <r>   -2.2019    1.0000 </r>
       <r>   -2.2005    1.0000 </r>
       <r>   -0.2604    0.0000 </r>
       <r>   -0.2589    0.0000 </r>
       <r>   -0.1656    0.0000 </r>
       <r>   -0.1641    0.0000 </r>
       <r>    1.9729    0.0000 </r>
       <r>    2.0591    0.0000 </r>
       <r>    2.1117    0.0000 </r>
       <r>    2.6205    0.0000 </r>
       <r>    2.7555    0.0000 </r>
       <r>    2.7573    0.0000 </r>
       <r>    2.8745    0.0000 </r>
       <r>    2.8763    0.0000 </r>
       <r>    3.2450    0.0000 </r>
       <r>    4.1322    0.0000 </r>
       <r>    4.2394    0.0000 </r>
       <r>    4.4812    0.0000 </r>
       <r>    4.4832    0.0000 </r>
       <r>    4.5765    0.0000 </r>
       <r>    4.5784    0.0000 </r>
       <r>    4.8095    0.0000 </r>
       <r>    4.8118    0.0000 </r>
       <r>    4.9114    0.0000 </r>
       <r>    4.9118    0.0000 </r>
       <r>    5.3004    0.0000 </r>
      </set>
      <set comment="kpoint 6">
       <r>  -20.6453    1.0000 </r>
       <r>  -20.6337    1.0000 </r>
       <r>  -19.2755    1.0000 </r>
       <r>  -19.2652    1.0000 </r>
       <r>  -18.6624    1.0000 </r>
       <r>  -18.6609    1.0000 </r>
       <r>  -18.6524    1.0000 </r>
       <r>  -18.6510    1.0000 </r>
       <r>  -17.4547    1.0000 </r>
       <r>  -17.4531    1.0000 </r>
       <r>  -17.4458    1.0000 </r>
       <r>  -17.4442    1.0000 </r>
       <r>  -16.8651    1.0000 </r>
       <r>  -16.8568    1.0000 </r>
       <r>  -14.9941    1.0000 </r>
       <r>  -14.9924    1.0000 </r>
       <r>  -14.9871    1.0000 </r>
       <r>  -14.9853    1.0000 </r>
       <r>  -13.2136    1.0000 </r>
       <r>  -13.2118    1.0000 </r>
       <r>  -13.2079    1.0000 </r>
       <r>  -13.2063    1.0000 </r>
       <r>  -12.8792    1.0000 </r>
       <r>  -12.8737    1.0000 </r>
       <r>  -11.8269    1.0000 </r>
       <r>  -11.8252    1.0000 </r>
       <r>  -11.8218    1.0000 </r>
       <r>  -11.8205    1.0000 </r>
       <r>  -10.9831    1.0000 </r>
       <r>  -10.9819    1.0000 </r>
       <r>  -10.9791    1.0000 </r>
       <r>  -10.9776    1.0000 </r>
       <r>   -9.7899    1.0000 </r>
       <r>   -9.7874    1.0000 </r>
       <r>   -9.7851    1.0000 </r>
       <r>   -9.7839    1.0000 </r>
       <r>   -8.7940    1.0000 </r>
       <r>   -8.7538    1.0000 </r>
       <r>   -8.7500    1.0000 </r>
       <r>   -8.6134    1.0000 </r>
       <r>   -7.7448    1.0000 </r>
       <r>   -7.7433    1.0000 </r>
       <r>   -7.7428    1.0000 </r>
       <r>   -7.7397    1.0000 </r>
       <r>   -7.4675    1.0000 </r>
       <r>   -7.4649    1.0000 </r>
       <r>   -7.1735    1.0000 </r>
       <r>   -7.1387    1.0000 </r>
       <r>   -7.1376    1.0000 </r>
       <r>   -7.1371    1.0000 </r>
       <r>   -7.1327    1.0000 </r>
       <r>   -7.0074    1.0000 </r>
       <r>   -6.4629    1.0000 </r>
       <r>   -6.4616    1.0000 </r>
       <r>   -6.3119    1.0000 </r>
       <r>   -6.3070    1.0000 </r>
       <r>   -6.3038    1.0000 </r>
       <r>   -6.3021    1.0000 </r>
       <r>   -5.1323    1.0000 </r>
       <r>   -5.1311    1.0000 </r>
       <r>   -4.9917    1.0000 </r>
       <r>   -4.9903    1.0000 </r>
       <r>   -4.8373    1.0000 </r>
       <r>   -4.8326    1.0000 </r>
       <r>   -4.5701    1.0000 </r>
       <r>   -4.5578    1.0000 </r>
       <r>   -4.5533    1.0000 </r>
       <r>   -4.4406    1.0000 </r>
       <r>   -2.5666    1.0000 </r>
       <r>   -2.5653    1.0000 </r>
       <r>   -2.4604    1.0000 </r>
       <r>   -2.4590    1.0000 </r>
       <r>   -0.0188    0.0000 </r>
       <r>   -0.0173    0.0000 </r>
       <r>    0.0772    0.0000 </r>
       <r>    0.0788    0.0000 </r>
       <r>    1.5925    0.0000 </r>
       <r>    1.7377    0.0000 </r>
       <r>    2.1313    0.0000 </r>
       <r>    2.5251    0.0000 </r>
       <r>    2.5269    0.0000 </r>
       <r>    2.6434    0.0000 </r>
       <r>    2.6452    0.0000 </r>
       <r>    2.6939    0.0000 </r>
       <r>    3.3183    0.0000 </r>
       <r>    3.9774    0.0000 </r>
       <r>    4.2046    0.0000 </r>
       <r>    4.5585    0.0000 </r>
       <r>    4.6521    0.0000 </r>
       <r>    4.6541    0.0000 </r>
       <r>    4.7408    0.0000 </r>
       <r>    4.7428    0.0000 </r>
       <r>    4.8205    0.0000 </r>
       <r>    4.8213    0.0000 </r>
       <r>    4.8828    0.0000 </r>
       <r>    5.1681    0.0000 </r>
      </set>
      <set comment="kpoint 7">
       <r>  -20.5796    1.0000 </r>
       <r>  -20.5680    1.0000 </r>
       <r>  -19.4580    1.0000 </r>
       <r>  -19.4475    1.0000 </r>
       <r>  -18.7207    1.0000 </r>
       <r>  -18.7193    1.0000 </r>
       <r>  -18.7108    1.0000 </r>
       <r>  -18.7093    1.0000 </r>
       <r>  -17.2740    1.0000 </r>
       <r>  -17.2725    1.0000 </r>
       <r>  -17.2653    1.0000 </r>
       <r>  -17.2638    1.0000 </r>
       <r>  -16.5752    1.0000 </r>
       <r>  -16.5671    1.0000 </r>
       <r>  -15.2484    1.0000 </r>
       <r>  -15.2468    1.0000 </r>
       <r>  -15.2413    1.0000 </r>
       <r>  -15.2395    1.0000 </r>
       <r>  -13.2571    1.0000 </r>
       <r>  -13.2513    1.0000 </r>
       <r>  -13.1221    1.0000 </r>
       <r>  -13.1203    1.0000 </r>
       <r>  -13.1164    1.0000 </r>
       <r>  -13.1149    1.0000 </r>
       <r>  -11.9959    1.0000 </r>
       <r>  -11.9942    1.0000 </r>
       <r>  -11.9907    1.0000 </r>
       <r>  -11.9894    1.0000 </r>
       <r>  -10.6943    1.0000 </r>
       <r>  -10.6930    1.0000 </r>
       <r>  -10.6905    1.0000 </r>
[...]
       <r>   -7.6638    1.0000 </r>
       <r>   -7.3939    1.0000 </r>
       <r>   -7.3920    1.0000 </r>
       <r>   -6.8694    1.0000 </r>
       <r>   -6.7066    1.0000 </r>
       <r>   -6.5465    1.0000 </r>
       <r>   -6.5460    1.0000 </r>
       <r>   -6.5446    1.0000 </r>
       <r>   -6.5441    1.0000 </r>
       <r>   -6.4435    1.0000 </r>
       <r>   -6.2852    1.0000 </r>
       <r>   -5.3985    1.0000 </r>
       <r>   -5.3981    1.0000 </r>
       <r>   -5.3976    1.0000 </r>
       <r>   -5.3970    1.0000 </r>
       <r>   -4.1013    1.0000 </r>
       <r>   -4.1000    1.0000 </r>
       <r>   -3.9738    1.0000 </r>
       <r>   -3.9724    1.0000 </r>
       <r>   -3.8033    1.0000 </r>
       <r>   -3.8017    1.0000 </r>
       <r>   -3.6825    1.0000 </r>
       <r>   -3.6808    1.0000 </r>
       <r>   -3.6364    1.0000 </r>
       <r>   -3.5315    1.0000 </r>
       <r>    0.3808    0.0000 </r>
       <r>    0.5538    0.0000 </r>
       <r>    1.0467    0.0000 </r>
       <r>    1.0497    0.0000 </r>
       <r>    1.1623    0.0000 </r>
       <r>    1.1654    0.0000 </r>
       <r>    1.4860    0.0000 </r>
       <r>    1.4887    0.0000 </r>
       <r>    1.5868    0.0000 </r>
       <r>    1.5896    0.0000 </r>
       <r>    2.8200    0.0000 </r>
       <r>    2.8203    0.0000 </r>
       <r>    3.3923    0.0000 </r>
       <r>    3.3924    0.0000 </r>
       <r>    4.0175    0.0000 </r>
       <r>    4.0179    0.0000 </r>
       <r>    4.3318    0.0000 </r>
       <r>    4.8157    0.0000 </r>
       <r>    4.8336    0.0000 </r>
       <r>    4.8773    0.0000 </r>
       <r>    4.8927    0.0000 </r>
       <r>    4.8931    0.0000 </r>
       <r>    4.9221    0.0000 </r>
       <r>    5.5162    0.0000 </r>
      </set>
     </set>
    </set>
   </array>
  </eigenvalues>
  <separator name="orbital magnetization" >
   <v name="MAGDIPOLOUT">      0.00000000      0.00000000      0.00000000</v>
  </separator>
  <dos>
   <i name="efermi">     -1.21189680 </i>
   <total>
    <array>
     <dimension dim="1">gridpoints</dimension>
     <dimension dim="2">spin</dimension>
     <field>energy</field>
     <field>total</field>
     <field>integrated</field>
     <set>
      <set comment="spin 1">
       <r>   -22.1272     0.0000     0.0000 </r>
       <r>   -22.0295     0.0000     0.0000 </r>
       <r>   -21.9318     0.0000     0.0000 </r>
       <r>   -21.8341     0.0000     0.0000 </r>
       <r>   -21.7364     0.0000     0.0000 </r>
       <r>   -21.6387     0.0000     0.0000 </r>
       <r>   -21.5410     0.0000     0.0000 </r>
       <r>   -21.4433     0.0000     0.0000 </r>
       <r>   -21.3455     0.0000     0.0000 </r>
       <r>   -21.2478     0.0000     0.0000 </r>
       <r>   -21.1501     0.0000     0.0000 </r>
       <r>   -21.0524     0.0000     0.0000 </r>
       <r>   -20.9547     0.0000     0.0000 </r>
       <r>   -20.8570     0.0000     0.0000 </r>
       <r>   -20.7593     1.6543     0.1616 </r>
       <r>   -20.6616     5.0162     0.7173 </r>
       <r>   -20.5639     4.4932     1.2372 </r>
       <r>   -20.4662     4.3763     1.7972 </r>
       <r>   -20.3685     4.4948     2.2986 </r>
       <r>   -20.2708     4.9843     2.8363 </r>
       <r>   -20.1731     5.6345     3.3899 </r>
       <r>   -20.0754     5.0916     3.9351 </r>
       <r>   -19.9777     5.5688     4.5261 </r>
       <r>   -19.8799     4.8729     5.0567 </r>
       <r>   -19.7822     3.8689     5.5029 </r>
       <r>   -19.6845     3.8741     6.1019 </r>
       <r>   -19.5868     5.8822     6.7335 </r>
       <r>   -19.4891     4.7275     7.2193 </r>
       <r>   -19.3914     4.0713     7.6996 </r>
       <r>   -19.2937     5.5913     8.3377 </r>
       <r>   -19.1960     3.6053     8.7424 </r>
       <r>   -19.0983     6.0638     9.4184 </r>
       <r>   -19.0006     4.8181     9.9220 </r>
       <r>   -18.9029     4.4239    10.5094 </r>
       <r>   -18.8052     5.5707    11.0568 </r>
       <r>   -18.7075     4.2171    11.6320 </r>
       <r>   -18.6098     5.5164    12.1943 </r>
       <r>   -18.5121     3.9575    12.6680 </r>
       <r>   -18.4143     4.8422    13.3257 </r>
       <r>   -18.3166     3.4916    13.7924 </r>
       <r>   -18.2189     4.6904    14.3449 </r>
       <r>   -18.1212     5.0946    14.9335 </r>
       <r>   -18.0235     5.0611    15.5240 </r>
       <r>   -17.9258     4.7508    16.0924 </r>
       <r>   -17.8281     2.3204    16.4535 </r>
       <r>   -17.7304     5.8061    17.1752 </r>
       <r>   -17.6327     3.4124    17.6486 </r>
       <r>   -17.5350     6.3883    18.3478 </r>
       <r>   -17.4373     3.2729    18.8324 </r>
       <r>   -17.3396     5.6696    19.4746 </r>
       <r>   -17.2419     5.2127    20.1102 </r>
       <r>   -17.1442     3.4386    20.4811 </r>
       <r>   -17.0465     6.6242    21.2278 </r>
       <r>   -16.9488     4.7821    21.7552 </r>
       <r>   -16.8510     4.7499    22.2963 </r>
       <r>   -16.7533     4.4558    22.9206 </r>
       <r>   -16.6556     5.4875    23.4569 </r>
       <r>   -16.5579     6.5774    24.1075 </r>
       <r>   -16.4602     3.4365    24.6170 </r>
       <r>   -16.3625     4.6053    25.1665 </r>
       <r>   -16.2648     6.1940    25.9204 </r>
       <r>   -16.1671     3.7262    26.3867 </r>
       <r>   -16.0694     6.6345    27.1063 </r>
       <r>   -15.9717     5.6823    27.7752 </r>
       <r>   -15.8740     4.0368    28.2130 </r>
       <r>   -15.7763     7.8957    29.0256 </r>
       <r>   -15.6786     5.9844    29.6734 </r>
       <r>   -15.5809     5.8682    30.3515 </r>
       <r>   -15.4832     9.6067    31.3695 </r>
       <r>   -15.3854     4.8366    32.0827 </r>
       <r>   -15.2877     3.7966    32.5433 </r>
       <r>   -15.1900     4.5347    33.1597 </r>
       <r>   -15.0923     3.3407    33.5329 </r>
       <r>   -14.9946     2.9654    33.8226 </r>
       <r>   -14.8969     2.7839    34.3492 </r>
       <r>   -14.7992     0.6638    34.4141 </r>
       <r>   -14.7015     5.0129    35.0023 </r>
       <r>   -14.6038     0.5570    35.0567 </r>
       <r>   -14.5061     1.9224    35.2445 </r>
       <r>   -14.4084     4.6553    35.8110 </r>
       <r>   -14.3107     3.7011    36.3435 </r>
       <r>   -14.2130     5.5315    37.0122 </r>
       <r>   -14.1153     3.1986    37.4829 </r>
       <r>   -14.0176     6.3435    38.2163 </r>
       <r>   -13.9199     5.0216    38.7582 </r>
       <r>   -13.8221     3.6361    39.2307 </r>
       <r>   -13.7244     7.0821    39.9754 </r>
       <r>   -13.6267     6.0339    40.6078 </r>
       <r>   -13.5290     6.2524    41.5002 </r>
       <r>   -13.4313     5.1376    42.2436 </r>
       <r>   -13.3336     7.2226    42.9825 </r>
       <r>   -13.2359     5.7816    43.7123 </r>
       <r>   -13.1382     6.0481    44.3370 </r>
       <r>   -13.0405     5.1815    44.9872 </r>
       <r>   -12.9428     2.9560    45.4500 </r>
       <r>   -12.8451     3.3423    46.0319 </r>
       <r>   -12.7474     6.1827    46.6903 </r>
       <r>   -12.6497     5.7303    47.2991 </r>
       <r>   -12.5520     3.5987    47.7439 </r>
       <r>   -12.4543     4.6172    48.3334 </r>
       <r>   -12.3565     3.3963    48.8670 </r>
       <r>   -12.2588     3.8856    49.3502 </r>
       <r>   -12.1611     3.4805    49.8004 </r>
       <r>   -12.0634     5.2796    50.4115 </r>
       <r>   -11.9657     2.7735    50.8199 </r>
       <r>   -11.8680     5.2589    51.3347 </r>
       <r>   -11.7703     3.9931    51.8097 </r>
       <r>   -11.6726     4.6726    52.4386 </r>
       <r>   -11.5749     6.2803    53.2034 </r>
       <r>   -11.4772     3.6046    53.5858 </r>
       <r>   -11.3795     6.0182    54.4386 </r>
       <r>   -11.2818     3.3870    54.8706 </r>
       <r>   -11.1841     5.7589    55.6287 </r>
       <r>   -11.0864     3.5281    56.1091 </r>
       <r>   -10.9887     6.2913    56.8961 </r>
       <r>   -10.8909     6.4319    57.6717 </r>
       <r>   -10.7932     4.4415    58.1301 </r>
       <r>   -10.6955     6.4832    58.8739 </r>
       <r>   -10.5978     6.0225    59.5909 </r>
       <r>   -10.5001     5.6142    60.1495 </r>
       <r>   -10.4024     6.9439    60.9324 </r>
       <r>   -10.3047     4.5637    61.5980 </r>
       <r>   -10.2070     5.0226    62.1053 </r>
       <r>   -10.1093     6.4224    63.0403 </r>
       <r>   -10.0116     3.7698    63.4522 </r>
       <r>    -9.9139     4.3018    64.1756 </r>
       <r>    -9.8162     5.3985    64.8631 </r>
       <r>    -9.7185     4.8255    65.7506 </r>
       <r>    -9.6208     3.5661    66.0990 </r>
       <r>    -9.5231    10.0000    67.3083 </r>
       <r>    -9.4254     3.8207    67.7568 </r>
       <r>    -9.3276     8.6989    68.6685 </r>
       <r>    -9.2299     4.2724    69.3427 </r>
       <r>    -9.1322     8.2070    70.2352 </r>
       <r>    -9.0345     5.8208    70.9451 </r>
       <r>    -8.9368     9.6861    72.0303 </r>
       <r>    -8.8391     6.9077    72.7702 </r>
       <r>    -8.7414    11.5868    74.0983 </r>
       <r>    -8.6437     8.0628    75.2279 </r>
       <r>    -8.5460    10.8307    76.5051 </r>
       <r>    -8.4483     8.9928    77.7773 </r>
       <r>    -8.3506    11.0444    79.1839 </r>
       <r>    -8.2529    11.2249    80.6615 </r>
       <r>    -8.1552     7.2960    81.7651 </r>
       <r>    -8.0575    14.3742    83.7178 </r>
       <r>    -7.9598    10.0479    84.8638 </r>
       <r>    -7.8620    13.9884    86.6639 </r>
       <r>    -7.7643    15.8862    88.4275 </r>
       <r>    -7.6666    14.6244    90.1275 </r>
       <r>    -7.5689    17.6077    92.3147 </r>
       <r>    -7.4712    16.0246    94.1828 </r>
       <r>    -7.3735    14.8390    95.7993 </r>
       <r>    -7.2758    12.4579    97.3624 </r>
       <r>    -7.1781    13.4426    98.8557 </r>
       <r>    -7.0804    12.2714   100.1559 </r>
       <r>    -6.9827     9.8771   101.4186 </r>
       <r>    -6.8850    12.3338   102.7476 </r>
       <r>    -6.7873    11.4631   104.0500 </r>
       <r>    -6.6896    12.0006   105.2997 </r>
       <r>    -6.5919    10.7636   106.5120 </r>
       <r>    -6.4942     8.6646   107.5586 </r>
       <r>    -6.3964    10.6725   108.7616 </r>
       <r>    -6.2987     7.3524   109.9433 </r>
       <r>    -6.2010     9.5745   111.1034 </r>
       <r>    -6.1033     8.0635   112.1534 </r>
       <r>    -6.0056    11.5870   113.3410 </r>
       <r>    -5.9079    10.5004   114.4048 </r>
       <r>    -5.8102     8.7511   115.4311 </r>
       <r>    -5.7125     8.7935   116.5191 </r>
       <r>    -5.6148     5.2842   117.4324 </r>
       <r>    -5.5171    12.2778   118.7961 </r>
       <r>    -5.4194     4.9884   119.4172 </r>
       <r>    -5.3217    11.4797   120.7772 </r>
       <r>    -5.2240     7.4515   121.5899 </r>
       <r>    -5.1263     7.7388   122.6246 </r>
       <r>    -5.0286     8.0240   123.5504 </r>
       <r>    -4.9309     8.4141   124.6137 </r>
       <r>    -4.8331    10.0391   125.6522 </r>
       <r>    -4.7354     5.8852   126.4345 </r>
       <r>    -4.6377     9.1670   127.4905 </r>
       <r>    -4.5400     8.1264   128.5310 </r>
       <r>    -4.4423     7.0957   129.4011 </r>
       <r>    -4.3446     7.6559   130.3717 </r>
       <r>    -4.2469     9.3267   131.4602 </r>
       <r>    -4.1492     5.5312   132.1052 </r>
       <r>    -4.0515     5.6202   132.7216 </r>
       <r>    -3.9538     5.2354   133.3642 </r>
       <r>    -3.8561     5.5591   134.1214 </r>
       <r>    -3.7584     5.9060   134.8628 </r>
       <r>    -3.6607     6.3156   135.7282 </r>
       <r>    -3.5630     9.0079   136.7532 </r>
       <r>    -3.4653     7.0776   137.6894 </r>
       <r>    -3.3675     5.1245   138.3602 </r>
       <r>    -3.2698     5.9325   139.0380 </r>
       <r>    -3.1721     6.1271   139.7098 </r>
       <r>    -3.0744     4.3814   140.1380 </r>
       <r>    -2.9767     3.0718   140.5813 </r>
       <r>    -2.8790     3.2307   140.9781 </r>
       <r>    -2.7813     3.5046   141.3856 </r>
       <r>    -2.6836     2.3731   141.7375 </r>
       <r>    -2.5859     1.5683   142.0128 </r>
       <r>    -2.4882     2.4443   142.3161 </r>
       <r>    -2.3905     2.1411   142.5948 </r>
       <r>    -2.2928     1.3662   142.7821 </r>
       <r>    -2.1951     2.3967   143.0189 </r>
       <r>    -2.0974     1.9496   143.2200 </r>
       <r>    -1.9997     1.4617   143.3628 </r>
       <r>    -1.9019     1.2295   143.5306 </r>
       <r>    -1.8042     0.3514   143.6352 </r>
       <r>    -1.7065     0.8365   143.7371 </r>
       <r>    -1.6088     1.1141   143.8459 </r>
       <r>    -1.5111     0.6869   143.9221 </r>
       <r>    -1.4134     0.5166   143.9779 </r>
       <r>    -1.3157     0.0000   143.9819 </r>
       <r>    -1.2180     0.1857   144.0000 </r>
       <r>    -1.1203     0.1857   144.0181 </r>
       <r>    -1.0226     0.0061   144.0187 </r>
       <r>    -0.9249     0.1122   144.0745 </r>
       <r>    -0.8272     0.2774   144.1541 </r>
       <r>    -0.7295     1.1135   144.2630 </r>
       <r>    -0.6318     1.3598   144.3959 </r>
       <r>    -0.5341     1.0621   144.5029 </r>
       <r>    -0.4364     1.5067   144.6551 </r>
       <r>    -0.3386     1.0545   144.8015 </r>
       <r>    -0.2409     1.4262   145.0282 </r>
       <r>    -0.1432     2.7774   145.3508 </r>
       <r>    -0.0455     1.8958   145.5367 </r>
       <r>     0.0522     3.5316   145.9416 </r>
       <r>     0.1499     2.7024   146.3230 </r>
       <r>     0.2476     5.2174   146.8953 </r>
       <r>     0.3453     7.0941   147.6228 </r>
       <r>     0.4430     7.1137   148.4594 </r>
       <r>     0.5407     8.3203   149.4842 </r>
       <r>     0.6384     9.3657   150.5933 </r>
       <r>     0.7361     6.3886   151.3185 </r>
       <r>     0.8338     6.2321   152.1101 </r>
       <r>     0.9315     5.3130   152.7822 </r>
       <r>     1.0292     3.4519   153.2626 </r>
       <r>     1.1270     6.1142   153.9310 </r>
       <r>     1.2247     4.4085   154.4989 </r>
       <r>     1.3224     2.4183   154.9393 </r>
       <r>     1.4201     6.0887   155.6608 </r>
       <r>     1.5178     4.0204   156.0844 </r>
       <r>     1.6155     4.6573   156.6093 </r>
       <r>     1.7132     3.2698   156.9363 </r>
       <r>     1.8109     4.6790   157.5097 </r>
       <r>     1.9086     3.1398   157.8760 </r>
       <r>     2.0063     5.6806   158.5052 </r>
       <r>     2.1040     6.4444   159.2103 </r>
       <r>     2.2017     5.0229   159.7972 </r>
       <r>     2.2994     4.2543   160.3387 </r>
       <r>     2.3971     6.0711   161.0513 </r>
       <r>     2.4948     5.6940   161.6585 </r>
       <r>     2.5926     7.2880   162.4537 </r>
       <r>     2.6903     5.7214   163.1169 </r>
       <r>     2.7880     7.2286   163.9721 </r>
       <r>     2.8857     6.0009   164.7498 </r>
       <r>     2.9834     6.2303   165.4523 </r>
       <r>     3.0811     5.5847   166.1785 </r>
       <r>     3.1788     9.3353   167.1889 </r>
       <r>     3.2765     6.8239   168.0182 </r>
       <r>     3.3742     7.6038   168.9835 </r>
       <r>     3.4719     8.4428   169.9999 </r>
       <r>     3.5696     8.5651   170.9639 </r>
       <r>     3.6673     7.2266   171.7855 </r>
       <r>     3.7650     8.4577   172.8309 </r>
       <r>     3.8627     6.8025   173.6445 </r>
       <r>     3.9604     7.4035   174.5785 </r>
       <r>     4.0581     7.7302   175.5353 </r>
       <r>     4.1559    10.8515   176.7974 </r>
       <r>     4.2536     8.3145   177.8555 </r>
       <r>     4.3513     9.6759   179.0225 </r>
       <r>     4.4490     9.0258   180.0202 </r>
       <r>     4.5467    11.2842   181.3022 </r>
       <r>     4.6444     8.4056   182.1909 </r>
       <r>     4.7421    10.6104   183.5220 </r>
       <r>     4.8398    10.7459   184.8098 </r>
       <r>     4.9375    11.4818   186.1424 </r>
       <r>     5.0352    11.5344   187.4537 </r>
       <r>     5.1329     9.8675   188.5425 </r>
       <r>     5.2306    10.1186   189.7102 </r>
       <r>     5.3283     8.9651   190.6312 </r>
       <r>     5.4260     5.7410   191.3140 </r>
       <r>     5.5237     2.5839   191.6630 </r>
       <r>     5.6215     1.5775   191.8458 </r>
       <r>     5.7192     0.8355   191.9456 </r>
       <r>     5.8169     0.2785   191.9728 </r>
       <r>     5.9146     0.2785   192.0000 </r>
       <r>     6.0123     0.0000   192.0000 </r>
       <r>     6.1100     0.0000   192.0000 </r>
       <r>     6.2077     0.0000   192.0000 </r>
       <r>     6.3054     0.0000   192.0000 </r>
       <r>     6.4031     0.0000   192.0000 </r>
       <r>     6.5008     0.0000   192.0000 </r>
       <r>     6.5985     0.0000   192.0000 </r>
       <r>     6.6962     0.0000   192.0000 </r>
       <r>     6.7939     0.0000   192.0000 </r>
       <r>     6.8916     0.0000   192.0000 </r>
       <r>     6.9893     0.0000   192.0000 </r>
       <r>     7.0871     0.0000   192.0000 </r>
       <r>     7.1848     0.0000   192.0000 </r>
      </set>
     </set>
    </array>
   </total>
  </dos>
 </calculation>
 <structure name="finalpos" >
  <crystal>
   <varray name="basis" >
    <v>       6.39000000      -3.68926800       0.00000000 </v>
    <v>       6.39000000       3.68926800       0.00000000 </v>
    <v>       0.00000000       0.00000000      20.00000000 </v>
   </varray>
   <i name="volume">    942.97690080 </i>
   <varray name="rec_basis" >
    <v>       0.07824726      -0.13552824       0.00000000 </v>
    <v>       0.07824726       0.13552824       0.00000000 </v>
    <v>       0.00000000       0.00000000       0.05000000 </v>
   </varray>
  </crystal>
  <varray name="positions" >
   <v>       0.00046900       0.00000000       0.00046900 </v>
   <v>       0.33333300       0.00000000       0.00000000 </v>
   <v>       0.66666700       0.00000000       0.00000000 </v>
   <v>       0.00000000       0.33333300       0.00000000 </v>
   <v>       0.33333300       0.33333300       0.00000000 </v>
   <v>       0.66666700       0.33333300       0.00000000 </v>
   <v>       0.00000000       0.66666700       0.00000000 </v>
   <v>       0.33333300       0.66666700       0.00000000 </v>
   <v>       0.66666700       0.66666700       0.00000000 </v>
   <v>       0.11111100       0.11111100       0.00000000 </v>
   <v>       0.44444400       0.11111100       0.00000000 </v>
   <v>       0.77777800       0.11111100       0.00000000 </v>
   <v>       0.11111100       0.44444400       0.00000000 </v>
   <v>       0.44444400       0.44444400       0.00000000 </v>
   <v>       0.77777800       0.44444400       0.00000000 </v>
   <v>       0.11111100       0.77777800       0.00000000 </v>
   <v>       0.44444400       0.77777800       0.00000000 </v>
   <v>       0.77777800       0.77777800       0.00000000 </v>
   <v>       0.00000000       0.00000000       0.22193400 </v>
   <v>       0.33333300       0.00000000       0.22193400 </v>
   <v>       0.66666700       0.00000000       0.22193400 </v>
   <v>       0.00000000       0.33333300       0.22193400 </v>
   <v>       0.33333300       0.33333300       0.22193400 </v>
   <v>       0.66666700       0.33333300       0.22193400 </v>
   <v>       0.00000000       0.66666700       0.22193400 </v>
   <v>       0.33333300       0.66666700       0.22193400 </v>
   <v>       0.66666700       0.66666700       0.22193400 </v>
   <v>       0.11111100       0.11111100       0.22193400 </v>
   <v>       0.44444400       0.11111100       0.22193400 </v>
   <v>       0.77777800       0.11111100       0.22193400 </v>
   <v>       0.11111100       0.44444400       0.22193400 </v>
   <v>       0.44444400       0.44444400       0.22193400 </v>
   <v>       0.77777800       0.44444400       0.22193400 </v>
   <v>       0.11111100       0.77777800       0.22193400 </v>
   <v>       0.44444400       0.77777800       0.22193400 </v>
   <v>       0.77777800       0.77777800       0.22193400 </v>
  </varray>
 </structure>
</modeling>
