    4    4   80    1
  0.2619380E+02  0.2459512E-09  0.2459512E-09  0.2000000E-08  0.5000000E-15
  1.000000000000000E-004
  CAR 
 C-4                                     
     16     48     12
