       N       E                     dE             d eps       ncg     rms          rms(c)
DAV:   1     0.111871319669E+03    0.11187E+03   -0.84967E+03  1152   0.146E+03
DAV:   2    -0.318675730401E+02   -0.14374E+03   -0.13137E+03  1812   0.204E+02
DAV:   3    -0.394719640767E+02   -0.76044E+01   -0.76044E+01  1644   0.683E+01
DAV:   4    -0.395218628827E+02   -0.49899E-01   -0.49899E-01  1992   0.564E+00
DAV:   5    -0.395219161999E+02   -0.53317E-04   -0.53317E-04  1824   0.201E-01    0.790E+00
DAV:   6    -0.376276170210E+02    0.18943E+01   -0.19023E+00  1824   0.935E+00    0.415E+00
DAV:   7    -0.369339885850E+02    0.69363E+00   -0.21669E+00  1980   0.970E+00    0.715E-01
DAV:   8    -0.369283849493E+02    0.56036E-02   -0.17348E-02  1668   0.119E+00    0.108E-01
DAV:   9    -0.369252623359E+02    0.31226E-02   -0.20105E-03  1848   0.302E-01    0.748E-02
DAV:  10    -0.369202859543E+02    0.49764E-02   -0.34689E-03  1548   0.317E-01    0.517E-02
DAV:  11    -0.369166825261E+02    0.36034E-02   -0.25128E-03  1248   0.257E-01    0.349E-02
DAV:  12    -0.369152569756E+02    0.14256E-02   -0.89272E-04  1368   0.147E-01    0.305E-02
DAV:  13    -0.369158847948E+02   -0.62782E-03   -0.43451E-04  1536   0.135E-01    0.244E-02
DAV:  14    -0.369173001460E+02   -0.14154E-02   -0.57380E-04  1572   0.105E-01    0.144E-02
DAV:  15    -0.369175748439E+02   -0.27470E-03   -0.98801E-05  1548   0.593E-02    0.796E-03
DAV:  16    -0.369177331692E+02   -0.15833E-03   -0.88262E-06  1644   0.295E-02    0.170E-03
DAV:  17    -0.369177611443E+02   -0.27975E-04   -0.13388E-06  1656   0.678E-03    0.861E-04
DAV:  18    -0.369177688866E+02   -0.77422E-05   -0.16735E-07  1476   0.280E-03    0.227E-04
DAV:  19    -0.369177695174E+02   -0.63087E-06   -0.38946E-08  1644   0.130E-03    0.109E-04
DAV:  20    -0.369177695234E+02   -0.59969E-08   -0.19900E-09  1752   0.368E-04
   1 F= -.36917770E+02 E0= -.36917770E+02  d E =-.369178E+02
       N       E                     dE             d eps       ncg     rms          rms(c)
DAV:   1    -0.369177695377E+02   -0.20250E-07   -0.20270E-09  1524   0.344E-04    0.134E-05
DAV:   2    -0.369177695382E+02   -0.49272E-09   -0.29410E-11  1836   0.441E-05    0.991E-06
DAV:   3    -0.369177695387E+02   -0.55684E-09   -0.14362E-11  1404   0.255E-05    0.692E-06
DAV:   4    -0.369177695388E+02   -0.29786E-10   -0.67530E-14  1716   0.781E-06    0.683E-06
DAV:   5    -0.369177695389E+02   -0.90267E-10    0.58577E-13  1320   0.353E-06
   2 F= -.36917770E+02 E0= -.36917770E+02  d E =-.154225E-07
       N       E                     dE             d eps       ncg     rms          rms(c)
DAV:   1    -0.369177695389E+02   -0.13847E-09   -0.25051E-09  1596   0.419E-04    0.109E-05
DAV:   2    -0.369177695389E+02    0.16144E-10   -0.23005E-11  1500   0.445E-05    0.884E-06
DAV:   3    -0.369177695389E+02    0.19440E-10   -0.54808E-12  1212   0.191E-05    0.686E-06
DAV:   4    -0.369177695389E+02    0.15916E-11    0.47660E-13  1152   0.852E-06    0.681E-06
DAV:   5    -0.369177695389E+02    0.44338E-11    0.33241E-13  1248   0.244E-06
   3 F= -.36917770E+02 E0= -.36917770E+02  d E =-.154291E-07
       N       E                     dE             d eps       ncg     rms          rms(c)
DAV:   1    -0.369177695389E+02   -0.12506E-10   -0.10033E-08  1332   0.838E-04    0.185E-05
DAV:   2    -0.369177695389E+02   -0.56843E-12   -0.97016E-11  1152   0.900E-05    0.132E-05
DAV:   3    -0.369177695389E+02   -0.77307E-11   -0.23581E-11   984   0.396E-05    0.708E-06
DAV:   4    -0.369177695389E+02   -0.31832E-11   -0.38531E-12  1032   0.180E-05    0.688E-06
DAV:   5    -0.369177695389E+02   -0.13642E-10    0.82655E-14  1200   0.535E-06
   4 F= -.36917770E+02 E0= -.36917770E+02  d E =-.154712E-07
       N       E                     dE             d eps       ncg     rms          rms(c)
DAV:   1    -0.369177695389E+02   -0.51386E-10   -0.40130E-08  1200   0.168E-03    0.352E-05
DAV:   2    -0.369177695389E+02   -0.54570E-11   -0.39600E-10  1152   0.182E-04    0.237E-05
DAV:   3    -0.369177695389E+02    0.79581E-11   -0.88995E-11  1104   0.770E-05    0.785E-06
DAV:   4    -0.369177695389E+02   -0.10232E-10   -0.17765E-11  1044   0.344E-05    0.713E-06
DAV:   5    -0.369177695390E+02   -0.15802E-10   -0.68966E-13  1248   0.908E-06
   5 F= -.36917770E+02 E0= -.36917770E+02  d E =-.155325E-07
       N       E                     dE             d eps       ncg     rms          rms(c)
DAV:   1    -0.369177695390E+02   -0.10482E-09   -0.16059E-07  1152   0.335E-03    0.697E-05
DAV:   2    -0.369177695391E+02   -0.18304E-10   -0.16091E-09  1404   0.362E-04    0.459E-05
DAV:   3    -0.369177695390E+02    0.59003E-10   -0.29512E-10  1356   0.136E-04    0.984E-06
DAV:   4    -0.369177695390E+02   -0.87539E-11   -0.53065E-11  1260   0.601E-05    0.791E-06
DAV:   5    -0.369177695390E+02   -0.16371E-10   -0.29868E-12  1272   0.144E-05
   6 F= -.36917770E+02 E0= -.36917770E+02  d E =-.156059E-07
       N       E                     dE             d eps       ncg     rms          rms(c)
DAV:   1    -0.369177695392E+02   -0.20498E-09   -0.64235E-07  1152   0.671E-03    0.139E-04
DAV:   2    -0.369177695393E+02   -0.65711E-10   -0.63439E-09  1404   0.719E-04    0.910E-05
DAV:   3    -0.369177695391E+02    0.21919E-09   -0.11835E-09  1428   0.272E-04    0.158E-05
DAV:   4    -0.369177695391E+02   -0.22965E-10   -0.21189E-10  1272   0.120E-04    0.106E-05
DAV:   5    -0.369177695391E+02   -0.88676E-11   -0.10776E-11  1344   0.284E-05
   7 F= -.36917770E+02 E0= -.36917770E+02  d E =-.156729E-07
       N       E                     dE             d eps       ncg     rms          rms(c)
DAV:   1    -0.369177695396E+02   -0.49295E-09   -0.25695E-06  1152   0.134E-02    0.279E-04
DAV:   2    -0.369177695397E+02   -0.11983E-09   -0.25280E-08  1440   0.143E-03    0.181E-04
DAV:   3    -0.369177695391E+02    0.56343E-09   -0.47452E-09  1548   0.541E-04    0.294E-05
DAV:   4    -0.369177695392E+02   -0.39336E-10   -0.82237E-10  1332   0.235E-04    0.177E-05
DAV:   5    -0.369177695392E+02   -0.20464E-11   -0.42992E-11  1344   0.552E-05
   8 F= -.36917770E+02 E0= -.36917770E+02  d E =-.157547E-07
       N       E                     dE             d eps       ncg     rms          rms(c)
DAV:   1    -0.369177695406E+02   -0.13819E-08   -0.10279E-05  1152   0.268E-02    0.557E-04
DAV:   2    -0.369177695412E+02   -0.67200E-09   -0.10131E-07  1440   0.287E-03    0.363E-04
DAV:   3    -0.369177695392E+02    0.20144E-08   -0.19122E-08  1668   0.108E-03    0.578E-05
DAV:   4    -0.369177695393E+02   -0.59003E-10   -0.32751E-09  1464   0.467E-04    0.336E-05
DAV:   5    -0.369177695393E+02    0.79581E-11   -0.12162E-10  1392   0.968E-05
   9 F= -.36917770E+02 E0= -.36917770E+02  d E =-.158432E-07
       N       E                     dE             d eps       ncg     rms          rms(c)
DAV:   1    -0.369177695393E+02    0.23078E-10   -0.65093E-07  1188   0.676E-03    0.137E-04
DAV:   2    -0.369177695396E+02   -0.30514E-09   -0.70311E-09  1560   0.742E-04    0.930E-05
DAV:   3    -0.369177695398E+02   -0.21521E-09   -0.12848E-09  1488   0.277E-04    0.168E-05
DAV:   4    -0.369177695398E+02   -0.69122E-10   -0.22151E-10  1224   0.122E-04    0.112E-05
DAV:   5    -0.369177695401E+02   -0.23624E-09   -0.11916E-11  1176   0.309E-05
  10 F= -.36917770E+02 E0= -.36917770E+02  d E =-.166538E-07
       N       E                     dE             d eps       ncg     rms          rms(c)
DAV:   1    -0.369177695403E+02   -0.46771E-09   -0.55599E-07  1152   0.624E-03    0.130E-04
DAV:   2    -0.369177695403E+02   -0.32969E-11   -0.52075E-09  1464   0.660E-04    0.845E-05
DAV:   3    -0.369177695402E+02    0.11767E-09   -0.10068E-09  1380   0.251E-04    0.149E-05
DAV:   4    -0.369177695402E+02   -0.61391E-11   -0.18615E-10  1260   0.112E-04    0.101E-05
DAV:   5    -0.369177695402E+02    0.14779E-10   -0.93351E-12  1212   0.264E-05
  11 F= -.36917770E+02 E0= -.36917770E+02  d E =-.167622E-07
       N       E                     dE             d eps       ncg     rms          rms(c)
DAV:   1    -0.369177695402E+02   -0.61391E-11   -0.29516E-09  1368   0.454E-04    0.114E-05
DAV:   2    -0.369177695402E+02   -0.52296E-11   -0.27093E-11   780   0.491E-05    0.905E-06
DAV:   3    -0.369177695402E+02   -0.23419E-10   -0.69881E-12   828   0.244E-05    0.687E-06
DAV:   4    -0.369177695402E+02   -0.45475E-11   -0.50777E-13   576   0.110E-05    0.681E-06
DAV:   5    -0.369177695403E+02   -0.14325E-10   -0.55780E-13   792   0.439E-06
  12 F= -.36917770E+02 E0= -.36917770E+02  d E =-.168307E-07
       N       E                     dE             d eps       ncg     rms          rms(c)
DAV:   1    -0.369177695403E+02   -0.28535E-10   -0.80785E-11   576   0.770E-05    0.694E-06
DAV:   2    -0.369177695403E+02   -0.22737E-12   -0.27742E-12   576   0.196E-05    0.686E-06
DAV:   3    -0.369177695403E+02   -0.30695E-11   -0.13516E-12   576   0.624E-06    0.678E-06
DAV:   4    -0.369177695403E+02   -0.18190E-11   -0.12783E-13   576   0.251E-06    0.678E-06
DAV:   5    -0.369177695403E+02    0.13415E-10    0.17241E-12   900   0.153E-06
  13 F= -.36917770E+02 E0= -.36917770E+02  d E =-.168366E-07
       N       E                     dE             d eps       ncg     rms          rms(c)
DAV:   1    -0.369177695402E+02    0.33765E-10   -0.89774E-13   960   0.950E-06    0.678E-06
DAV:   2    -0.369177695402E+02    0.85265E-11   -0.78144E-15   576   0.164E-06    0.678E-06
DAV:   3    -0.369177695402E+02    0.15234E-10   -0.50660E-13   636   0.664E-07    0.678E-06
DAV:   4    -0.369177695402E+02    0.11141E-10    0.36633E-13   576   0.274E-07    0.678E-06
DAV:   5    -0.369177695401E+02    0.10323E-09   -0.61715E-13  1200   0.406E-07
  14 F= -.36917770E+02 E0= -.36917770E+02  d E =-.166781E-07
       N       E                     dE             d eps       ncg     rms          rms(c)
DAV:   1    -0.369177695400E+02    0.16462E-09   -0.14219E-14  1164   0.112E-06    0.678E-06
DAV:   2    -0.369177695400E+02   -0.25011E-11   -0.17608E-13   588   0.182E-07    0.678E-06
DAV:   3    -0.369177695400E+02    0.52296E-11    0.43021E-13   576   0.754E-08    0.678E-06
DAV:   4    -0.369177695400E+02    0.10232E-11    0.41076E-13   576   0.306E-08    0.678E-06
DAV:   5    -0.369177695400E+02    0.69349E-11    0.63300E-14   576   0.314E-08
  15 F= -.36917770E+02 E0= -.36917770E+02  d E =-.166060E-07
       N       E                     dE             d eps       ncg     rms          rms(c)
DAV:   1    -0.369177695400E+02    0.10346E-10   -0.69503E-14   576   0.134E-07    0.678E-06
DAV:   2    -0.369177695400E+02    0.22737E-12    0.31261E-13   576   0.363E-08    0.678E-06
DAV:   3    -0.369177695400E+02   -0.45475E-12   -0.22182E-13   576   0.182E-08    0.678E-06
DAV:   4    -0.369177695400E+02    0.13642E-11   -0.20094E-13   576   0.747E-09    0.678E-06
DAV:   5    -0.369177695400E+02   -0.56843E-12   -0.34037E-14   576   0.163E-08
  16 F= -.36917770E+02 E0= -.36917770E+02  d E =-.166020E-07
       N       E                     dE             d eps       ncg     rms          rms(c)
DAV:   1    -0.369177695400E+02    0.84128E-11    0.28661E-13   576   0.166E-08    0.678E-06
DAV:   2    -0.369177695400E+02   -0.11369E-11    0.11822E-14   576   0.516E-09    0.678E-06
DAV:   3    -0.369177695400E+02    0.46612E-11    0.26091E-13   576   0.608E-09    0.678E-06
DAV:   4    -0.369177695400E+02   -0.17053E-11   -0.38226E-13   576   0.294E-09    0.678E-06
DAV:   5    -0.369177695400E+02    0.79581E-12    0.14279E-14   576   0.451E-09
  17 F= -.36917770E+02 E0= -.36917770E+02  d E =-.165904E-07
       N       E                     dE             d eps       ncg     rms          rms(c)
DAV:   1    -0.369177695462E+02   -0.61714E-08   -0.40947E-05  1152   0.535E-02    0.113E-03
DAV:   2    -0.369177695457E+02    0.46134E-09   -0.37533E-07  1488   0.560E-03    0.718E-04
DAV:   3    -0.369177695401E+02    0.56275E-08   -0.73508E-08  1692   0.213E-03    0.114E-04
DAV:   4    -0.369177695401E+02   -0.38426E-10   -0.12944E-08  1500   0.924E-04    0.636E-05
DAV:   5    -0.369177695406E+02   -0.43383E-09   -0.44945E-10  1464   0.186E-04
  18 F= -.36917770E+02 E0= -.36917770E+02  d E =-.171460E-07
