 vasp.5.4.4.18Apr17-6-g9f103f2a35 (build May 31 2018 21:15:54) complex          
  
 executed on          c7_intel_O1 date 2020.08.14  13:38:09
 running on   36 total cores
 distrk:  each k-point on   36 cores,    1 groups
 distr:  one band on NCORES_PER_BAND=   6 cores,    6 groups


--------------------------------------------------------------------------------------------------------


 INCAR:
 POTCAR:   PAW_PBE C 08Apr2002                    
 POTCAR:   PAW_PBE C 08Apr2002                    
   VRHFIN =C: s2p2                                                              
   LEXCH  = PE                                                                  
   EATOM  =   147.1560 eV,   10.8157 Ry                                         
                                                                                
   TITEL  = PAW_PBE C 08Apr2002                                                 
   LULTRA =        F    use ultrasoft PP ?                                      
   IUNSCR =        0    unscreen: 0-lin 1-nonlin 2-no                           
   RPACOR =     .000    partial core radius                                     
   POMASS =   12.011; ZVAL   =    4.000    mass and valenz                      
   RCORE  =    1.500    outmost cutoff radius                                   
   RWIGS  =    1.630; RWIGS  =     .863    wigner-seitz radius (au A)           
   ENMAX  =  400.000; ENMIN  =  300.000 eV                                      
   ICORE  =        2    local potential                                         
   LCOR   =        T    correct aug charges                                     
   LPAW   =        T    paw PP                                                  
   EAUG   =  644.873                                                            
   DEXC   =     .000                                                            
   RMAX   =    2.266    core radius for proj-oper                               
   RAUG   =    1.300    factor for augmentation sphere                          
   RDEP   =    1.501    radius for radial grids                                 
   RDEPT  =    1.300    core radius for aug-charge                              
   QCUT   =   -5.516; QGAM   =   11.032    optimization parameters              
                                                                                
   Description                                                                  
     l     E      TYP  RCUT    TYP  RCUT                                        
     0   .000     23  1.200                                                     
     0   .000     23  1.200                                                     
     1   .000     23  1.500                                                     
     1  2.500     23  1.500                                                     
     2   .000      7  1.500                                                     
  local pseudopotential read in
  atomic valenz-charges read in
  non local Contribution for L=           0  read in
    real space projection operators read in
  non local Contribution for L=           0  read in
    real space projection operators read in
  non local Contribution for L=           1  read in
    real space projection operators read in
  non local Contribution for L=           1  read in
    real space projection operators read in
    PAW grid and wavefunctions read in
 
   number of l-projection  operators is LMAX  =           4
   number of lm-projection operators is LMMAX =           8
 
 PAW_PBE C 08Apr2002                    :
 energy of atom  1       EATOM= -147.1560
 kinetic energy error for atom=    0.0016 (will be added to EATOM!!)
 
 
 POSCAR: C2_bilayer                              
  positions in direct lattice
  velocities in cartesian coordinates
 exchange correlation table for  LEXCH =        8
   RHO(1)=    0.500       N(1)  =     2000
   RHO(2)=  100.500       N(2)  =     4000
 


--------------------------------------------------------------------------------------------------------


 ion  position               nearest neighbor table
   1  0.000  0.000  0.989-   2 1.42   2 1.42   2 1.42
   2  0.333  0.333  0.989-   1 1.42   1 1.42   1 1.42
   3  0.000  0.000  0.211-   4 1.42   4 1.42   4 1.42
   4  0.333  0.333  0.211-   3 1.42   3 1.42   3 1.42
 
  LATTYP: Found a hexagonal cell.
 ALAT       =     2.4595120000
 C/A-ratio  =     8.1316944174
  
  Lattice vectors:
  
 A1 = (   0.0000000000,  -2.4595120000,   0.0000000000)
 A2 = (  -2.1300000000,   1.2297560000,   0.0000000000)
 A3 = (   0.0000000000,   0.0000000000, -20.0000000000)


Analysis of symmetry for initial positions (statically):
=====================================================================
 Subroutine PRICEL returns:
 Original cell was already a primitive cell.
 

 Routine SETGRP: Setting up the symmetry group for a 
 hexagonal supercell.


 Subroutine GETGRP returns: Found 24 space group operations
 (whereof  6 operations were pure point group operations)
 out of a pool of 24 trial point group operations.


The static configuration has the point symmetry C_3v.
 The point group associated with its full space group is D_6h.


Analysis of symmetry for dynamics (positions and initial velocities):
=====================================================================
 Subroutine PRICEL returns:
 Original cell was already a primitive cell.
 

 Routine SETGRP: Setting up the symmetry group for a 
 hexagonal supercell.


 Subroutine GETGRP returns: Found 24 space group operations
 (whereof  6 operations were pure point group operations)
 out of a pool of 24 trial point group operations.


The dynamic configuration has the point symmetry C_3v.
 The point group associated with its full space group is D_6h.


Analysis of constrained symmetry for selective dynamics:
=====================================================================
 Subroutine PRICEL returns:
 Original cell was already a primitive cell.
 

 Routine SETGRP: Setting up the symmetry group for a 
 hexagonal supercell.


 Subroutine GETGRP returns: Found 24 space group operations
 (whereof  6 operations were pure point group operations)
 out of a pool of 24 trial point group operations.


The constrained configuration has the point symmetry C_3v.
 The point group associated with its full space group is D_6h.


 Subroutine INISYM returns: Found 24 space group operations
 (whereof  6 operations are pure point group operations),
 and found     1 'primitive' translations

 
 
 KPOINTS: C-4                                     

Automatic generation of k-mesh.
Space group operators:
 irot       det(A)        alpha          n_x          n_y          n_z        tau_x        tau_y        tau_z
    1     1.000000     0.000000     1.000000     0.000000     0.000000     0.000000     0.000000     0.000000
    2     1.000000   120.000000     0.000000     0.000000     1.000000     0.000000     0.000000     0.000000
    3     1.000000   120.000000     0.000000     0.000000    -1.000000     0.000000     0.000000     0.000000
    4    -1.000000   180.000000    -0.000000     1.000000     0.000000     0.000000     0.000000     0.000000
    5    -1.000000   180.000000     0.866025    -0.500000     0.000000     0.000000     0.000000     0.000000
    6    -1.000000   180.000000     0.866025     0.500000     0.000000     0.000000     0.000000     0.000000
    7    -1.000000     0.000000     1.000000     0.000000     0.000000     0.333333    -0.666667    -0.800000
    8     1.000000    60.000000     0.000000     0.000000     1.000000     0.333333    -0.666667     0.000000
    9    -1.000000    60.000000     0.000000     0.000000     1.000000    -0.000001    -0.000000    -0.800000
   10    -1.000000   120.000000     0.000000     0.000000     1.000000     0.333333    -0.666667    -0.800000
   11     1.000000   180.000000     0.000000     0.000000     1.000000     0.333333    -0.666667     0.000000
   12    -1.000000   180.000000     0.000000     0.000000     1.000000     0.000000     0.000000    -0.800000
   13    -1.000000   120.000000     0.000000     0.000000    -1.000000     0.333333    -0.666667    -0.800000
   14     1.000000    60.000000     0.000000     0.000000    -1.000000     0.333333    -0.666667     0.000000
   15    -1.000000    60.000000     0.000000     0.000000    -1.000000    -0.000000    -0.000001    -0.800000
   16     1.000000   180.000000    -0.000000     1.000000     0.000000     0.333333    -0.666667    -0.800000
   17     1.000000   180.000000     0.500000    -0.866025     0.000000    -0.000000    -0.000001    -0.800000
   18    -1.000000   180.000000     0.500000    -0.866025     0.000000     0.333333    -0.666667     0.000000
   19     1.000000   180.000000     0.866025    -0.500000     0.000000     0.333333    -0.666667    -0.800000
   20     1.000000   180.000000     1.000000     0.000000     0.000000     0.000000     0.000000    -0.800000
   21    -1.000000   180.000000     1.000000     0.000000     0.000000     0.333333    -0.666667     0.000000
   22     1.000000   180.000000     0.866025     0.500000     0.000000     0.333333    -0.666667    -0.800000
   23     1.000000   180.000000    -0.500000    -0.866025     0.000000    -0.000001    -0.000000    -0.800000
   24    -1.000000   180.000000    -0.500000    -0.866025     0.000000     0.333333    -0.666667     0.000000
 
 Subroutine IBZKPT returns following result:
 ===========================================
 
 Found     48 irreducible k-points:
 
 Following reciprocal coordinates:
            Coordinates               Weight
  0.000000  0.000000  0.000000      1.000000
  0.047619  0.000000  0.000000      6.000000
  0.095238  0.000000  0.000000      6.000000
  0.142857  0.000000  0.000000      6.000000
  0.190476  0.000000  0.000000      6.000000
  0.238095  0.000000  0.000000      6.000000
  0.285714  0.000000  0.000000      6.000000
  0.333333  0.000000  0.000000      6.000000
  0.380952  0.000000  0.000000      6.000000
  0.428571  0.000000  0.000000      6.000000
  0.476190  0.000000  0.000000      6.000000
  0.095238  0.047619  0.000000      6.000000
  0.142857  0.047619  0.000000     12.000000
  0.190476  0.047619  0.000000     12.000000
  0.238095  0.047619  0.000000     12.000000
  0.285714  0.047619  0.000000     12.000000
  0.333333  0.047619  0.000000     12.000000
  0.380952  0.047619  0.000000     12.000000
  0.428571  0.047619  0.000000     12.000000
  0.476190  0.047619  0.000000     12.000000
 -0.476190  0.047619  0.000000      6.000000
  0.190476  0.095238  0.000000      6.000000
  0.238095  0.095238  0.000000     12.000000
  0.285714  0.095238  0.000000     12.000000
  0.333333  0.095238  0.000000     12.000000
  0.380952  0.095238  0.000000     12.000000
  0.428571  0.095238  0.000000     12.000000
  0.476190  0.095238  0.000000     12.000000
 -0.476190  0.095238  0.000000     12.000000
  0.285714  0.142857  0.000000      6.000000
  0.333333  0.142857  0.000000     12.000000
  0.380952  0.142857  0.000000     12.000000
  0.428571  0.142857  0.000000     12.000000
  0.476190  0.142857  0.000000     12.000000
 -0.476190  0.142857  0.000000     12.000000
 -0.428571  0.142857  0.000000      6.000000
  0.380952  0.190476  0.000000      6.000000
  0.428571  0.190476  0.000000     12.000000
  0.476190  0.190476  0.000000     12.000000
 -0.476190  0.190476  0.000000     12.000000
 -0.428571  0.190476  0.000000     12.000000
  0.476190  0.238095  0.000000      6.000000
 -0.476190  0.238095  0.000000     12.000000
 -0.428571  0.238095  0.000000     12.000000
 -0.380952  0.238095  0.000000      6.000000
 -0.428571  0.285714  0.000000      6.000000
 -0.380952  0.285714  0.000000     12.000000
 -0.333333  0.333333  0.000000      2.000000
 
 Following cartesian coordinates:
            Coordinates               Weight
  0.000000  0.000000  0.000000      1.000000
  0.011178 -0.019361  0.000000      6.000000
  0.022356 -0.038722  0.000000      6.000000
  0.033535 -0.058084  0.000000      6.000000
  0.044713 -0.077445  0.000000      6.000000
  0.055891 -0.096806  0.000000      6.000000
  0.067069 -0.116167  0.000000      6.000000
  0.078247 -0.135528  0.000000      6.000000
  0.089425 -0.154889  0.000000      6.000000
  0.100604 -0.174251  0.000000      6.000000
  0.111782 -0.193612  0.000000      6.000000
  0.033535 -0.019361  0.000000      6.000000
  0.044713 -0.038722  0.000000     12.000000
  0.055891 -0.058084  0.000000     12.000000
  0.067069 -0.077445  0.000000     12.000000
  0.078247 -0.096806  0.000000     12.000000
  0.089425 -0.116167  0.000000     12.000000
  0.100604 -0.135528  0.000000     12.000000
  0.111782 -0.154889  0.000000     12.000000
  0.122960 -0.174251  0.000000     12.000000
 -0.100604  0.212973  0.000000      6.000000
  0.067069 -0.038722  0.000000      6.000000
  0.078247 -0.058084  0.000000     12.000000
  0.089425 -0.077445  0.000000     12.000000
  0.100604 -0.096806  0.000000     12.000000
  0.111782 -0.116167  0.000000     12.000000
  0.122960 -0.135528  0.000000     12.000000
  0.134138 -0.154889  0.000000     12.000000
 -0.089425  0.232334  0.000000     12.000000
  0.100604 -0.058084  0.000000      6.000000
  0.111782 -0.077445  0.000000     12.000000
  0.122960 -0.096806  0.000000     12.000000
  0.134138 -0.116167  0.000000     12.000000
  0.145316 -0.135528  0.000000     12.000000
 -0.078247  0.251695  0.000000     12.000000
 -0.067069  0.232334  0.000000      6.000000
  0.134138 -0.077445  0.000000      6.000000
  0.145316 -0.096806  0.000000     12.000000
  0.156495 -0.116167  0.000000     12.000000
 -0.067069  0.271056  0.000000     12.000000
 -0.055891  0.251695  0.000000     12.000000
  0.167673 -0.096806  0.000000      6.000000
 -0.055891  0.290418  0.000000     12.000000
 -0.044713  0.271056  0.000000     12.000000
 -0.033535  0.251695  0.000000      6.000000
 -0.033535  0.290418  0.000000      6.000000
 -0.022356  0.271056  0.000000     12.000000
  0.000000  0.271056  0.000000      2.000000
 


--------------------------------------------------------------------------------------------------------




 Dimension of arrays:
   k-points           NKPTS =     48   k-points in BZ     NKDIM =     48   number of bands    NBANDS=     12
   number of dos      NEDOS =    301   number of ions     NIONS =      4
   non local maximal  LDIM  =      4   non local SUM 2l+1 LMDIM =      8
   total plane-waves  NPLWV = 110592
   max r-space proj   IRMAX =      1   max aug-charges    IRDMAX=  99836
   dimension x,y,z NGX =    24 NGY =   24 NGZ =  192
   dimension x,y,z NGXF=    48 NGYF=   48 NGZF=  384
   support grid    NGXF=    96 NGYF=   96 NGZF=  768
   ions per type =               4
   NGX,Y,Z   is equivalent  to a cutoff of  16.22, 16.22, 15.96 a.u.
   NGXF,Y,Z  is equivalent  to a cutoff of  32.44, 32.44, 31.92 a.u.

 SYSTEM =  C-4                                     
 POSCAR =  C2_bilayer                              

 Startparameter for this run:
   NWRITE =      2    write-flag & timer
   PREC   = accura    normal or accurate (medium, high low for compatibility)
   ISTART =      0    job   : 0-new  1-cont  2-samecut
   ICHARG =      2    charge: 1-file 2-atom 10-const
   ISPIN  =      1    spin polarized calculation?
   LNONCOLLINEAR =      F non collinear calculations
   LSORBIT =      F    spin-orbit coupling
   INIWAV =      1    electr: 0-lowe 1-rand  2-diag
   LASPH  =      F    aspherical Exc in radial PAW
   METAGGA=      F    non-selfconsistent MetaGGA calc.

 Electronic Relaxation 1
   ENCUT  =  800.0 eV  58.80 Ry    7.67 a.u.   5.67  5.67 46.12*2*pi/ulx,y,z
   ENINI  =  800.0     initial cutoff
   ENAUG  =  644.9 eV  augmentation charge cutoff
   NELM   =     60;   NELMIN=  5; NELMDL= -5     # of ELM steps 
   EDIFF  = 0.1E-07   stopping-criterion for ELM
   LREAL  =      F    real-space projection
   NLSPLINE    = F    spline interpolate recip. space projectors
   LCOMPAT=      F    compatible to vasp.4.4
   GGA_COMPAT  = T    GGA compatible to vasp.4.4-vasp.4.6
   LMAXPAW     = -100 max onsite density
   LMAXMIX     =    2 max onsite mixed and CHGCAR
   VOSKOWN=      0    Vosko Wilk Nusair interpolation
   ROPT   =    0.00000
 Ionic relaxation
   EDIFFG = -.1E-07   stopping-criterion for IOM
   NSW    =     80    number of steps for IOM
   NBLOCK =      1;   KBLOCK =     80    inner block; outer block 
   IBRION =      2    ionic relax: 0-MD 1-quasi-New 2-CG
   NFREE  =      1    steps in history (QN), initial steepest desc. (CG)
   ISIF   =      2    stress and relaxation
   IWAVPR =     11    prediction:  0-non 1-charg 2-wave 3-comb
   ISYM   =      2    0-nonsym 1-usesym 2-fastsym
   LCORR  =      T    Harris-Foulkes like correction to forces

   POTIM  = 0.5000    time-step for ionic-motion
   TEIN   =    0.0    initial temperature
   TEBEG  =    0.0;   TEEND  =   0.0 temperature during run
   SMASS  =  -3.00    Nose mass-parameter (am)
   estimated Nose-frequenzy (Omega)   =  0.10E-29 period in steps =****** mass=  -0.138E-27a.u.
   SCALEE = 1.0000    scale energy and forces
   NPACO  =    256;   APACO  = 16.0  distance and # of slots for P.C.
   PSTRESS=    0.0 pullay stress

  Mass of Ions in am
   POMASS =  12.01
  Ionic Valenz
   ZVAL   =   4.00
  Atomic Wigner-Seitz radii
   RWIGS  =  -1.00
  virtual crystal weights 
   VCA    =   1.00
   NELECT =      16.0000    total number of electrons
   NUPDOWN=      -1.0000    fix difference up-down

 DOS related values:
   EMIN   =  10.00;   EMAX   =-10.00  energy-range for DOS
   EFERMI =   0.00
   ISMEAR =     0;   SIGMA  =   0.01  broadening in eV -4-tet -1-fermi 0-gaus

 Electronic relaxation 2 (details)
   IALGO  =     38    algorithm
   LDIAG  =      T    sub-space diagonalisation (order eigenvalues)
   LSUBROT=      F    optimize rotation matrix (better conditioning)
   TURBO    =      0    0=normal 1=particle mesh
   IRESTART =      0    0=no restart 2=restart with 2 vectors
   NREBOOT  =      0    no. of reboots
   NMIN     =      0    reboot dimension
   EREF     =   0.00    reference energy to select bands
   IMIX   =      4    mixing-type and parameters
     AMIX     =   0.40;   BMIX     =  1.00
     AMIX_MAG =   1.60;   BMIX_MAG =  1.00
     AMIN     =   0.01
     WC   =   100.;   INIMIX=   1;  MIXPRE=   1;  MAXMIX= -45

 Intra band minimization:
   WEIMIN = 0.0010     energy-eigenvalue tresh-hold
   EBREAK =  0.21E-10  absolut break condition
   DEPER  =   0.30     relativ break condition  

   TIME   =   0.40     timestep for ELM

  volume/ion in A,a.u.               =      26.19       176.76
  Fermi-wavevector in a.u.,A,eV,Ry     =   0.875041  1.653589 10.417948  0.765698
  Thomas-Fermi vector in A             =   1.994657
 
 Write flags
   LWAVE        =      F    write WAVECAR
   LDOWNSAMPLE  =      F    k-point downsampling of WAVECAR
   LCHARG       =      T    write CHGCAR
   LVTOT        =      F    write LOCPOT, total local potential
   LVHAR        =      F    write LOCPOT, Hartree potential only
   LELF         =      F    write electronic localiz. function (ELF)
   LORBIT       =      0    0 simple, 1 ext, 2 COOP (PROOUT), +10 PAW based schemes


 Dipole corrections
   LMONO  =      F    monopole corrections only (constant potential shift)
   LDIPOL =      F    correct potential (dipole corrections)
   IDIPOL =      0    1-x, 2-y, 3-z, 4-all directions 
   EPSILON=  1.0000000 bulk dielectric constant

 Exchange correlation treatment:
   GGA     =    --    GGA type
   LEXCH   =     8    internal setting for exchange type
   VOSKOWN=      0    Vosko Wilk Nusair interpolation
   LHFCALC =     F    Hartree Fock is set to
   LHFONE  =     F    Hartree Fock one center treatment
   AEXX    =    0.0000 exact exchange contribution

 Linear response parameters
   LEPSILON=     F    determine dielectric tensor
   LRPA    =     F    only Hartree local field effects (RPA)
   LNABLA  =     F    use nabla operator in PAW spheres
   LVEL    =     F    velocity operator in full k-point grid
   LINTERFAST=   F  fast interpolation
   KINTER  =     0    interpolate to denser k-point grid
   CSHIFT  =0.1000    complex shift for real part using Kramers Kronig
   OMEGAMAX=  -1.0    maximum frequency
   DEG_THRESHOLD= 0.2000000E-02 threshold for treating states as degnerate
   RTIME   =   -0.100 relaxation time in fs
  (WPLASMAI=    0.000 imaginary part of plasma frequency in eV, 0.658/RTIME)
   DFIELD  = 0.0000000 0.0000000 0.0000000 field for delta impulse in time
 
 Orbital magnetization related:
   ORBITALMAG=     F  switch on orbital magnetization
   LCHIMAG   =     F  perturbation theory with respect to B field
   DQ        =  0.001000  dq finite difference perturbation B field
   LLRAUG    =     F  two centre corrections for induced B field



--------------------------------------------------------------------------------------------------------


 conjugate gradient relaxation of ions
   using selective dynamics as specified on POSCAR
 charge density and potential will be updated during run
 non-spin polarized calculation
 Variant of blocked Davidson
 Davidson routine will perform the subspace rotation
 perform sub-space diagonalisation
    after iterative eigenvector-optimisation
 modified Broyden-mixing scheme, WC =      100.0
 initial mixing is a Kerker type mixing with AMIX =  0.4000 and BMIX =      1.0000
 Hartree-type preconditioning will be used
 using additional bands            4
 reciprocal scheme for non local part
 calculate Harris-corrections to forces 
   (improved forces if not selfconsistent)
 use gradient corrections 
 use of overlap-Matrix (Vanderbilt PP)
 Gauss-broadening in eV      SIGMA  =   0.01


--------------------------------------------------------------------------------------------------------


  energy-cutoff  :      800.00
  volume of cell :      104.78
      direct lattice vectors                 reciprocal lattice vectors
     2.130000000 -1.229756000  0.000000000     0.234741784 -0.406584721  0.000000000
     2.130000000  1.229756000  0.000000000     0.234741784  0.406584721  0.000000000
     0.000000000  0.000000000 20.000000000     0.000000000  0.000000000  0.050000000

  length of vectors
     2.459512110  2.459512110 20.000000000     0.469483589  0.469483589  0.050000000


 
 k-points in units of 2pi/SCALE and weight: C-4                                     
   0.00000000  0.00000000  0.00000000       0.002
   0.01117818 -0.01936118  0.00000000       0.014
   0.02235636 -0.03872235  0.00000000       0.014
   0.03353454 -0.05808353  0.00000000       0.014
   0.04471272 -0.07744471  0.00000000       0.014
   0.05589090 -0.09680589  0.00000000       0.014
   0.06706908 -0.11616706  0.00000000       0.014
   0.07824726 -0.13552824  0.00000000       0.014
   0.08942544 -0.15488942  0.00000000       0.014
   0.10060362 -0.17425059  0.00000000       0.014
   0.11178180 -0.19361177  0.00000000       0.014
   0.03353454 -0.01936118  0.00000000       0.014
   0.04471272 -0.03872235  0.00000000       0.027
   0.05589090 -0.05808353  0.00000000       0.027
   0.06706908 -0.07744471  0.00000000       0.027
   0.07824726 -0.09680589  0.00000000       0.027
   0.08942544 -0.11616706  0.00000000       0.027
   0.10060362 -0.13552824  0.00000000       0.027
   0.11178180 -0.15488942  0.00000000       0.027
   0.12295998 -0.17425059  0.00000000       0.027
  -0.10060362  0.21297295  0.00000000       0.014
   0.06706908 -0.03872235  0.00000000       0.014
   0.07824726 -0.05808353  0.00000000       0.027
   0.08942544 -0.07744471  0.00000000       0.027
   0.10060362 -0.09680589  0.00000000       0.027
   0.11178180 -0.11616706  0.00000000       0.027
   0.12295998 -0.13552824  0.00000000       0.027
   0.13413816 -0.15488942  0.00000000       0.027
  -0.08942544  0.23233413  0.00000000       0.027
   0.10060362 -0.05808353  0.00000000       0.014
   0.11178180 -0.07744471  0.00000000       0.027
   0.12295998 -0.09680589  0.00000000       0.027
   0.13413816 -0.11616706  0.00000000       0.027
   0.14531634 -0.13552824  0.00000000       0.027
  -0.07824726  0.25169530  0.00000000       0.027
  -0.06706908  0.23233413  0.00000000       0.014
   0.13413816 -0.07744471  0.00000000       0.014
   0.14531634 -0.09680589  0.00000000       0.027
   0.15649452 -0.11616706  0.00000000       0.027
  -0.06706908  0.27105648  0.00000000       0.027
  -0.05589090  0.25169530  0.00000000       0.027
   0.16767270 -0.09680589  0.00000000       0.014
  -0.05589090  0.29041766  0.00000000       0.027
  -0.04471272  0.27105648  0.00000000       0.027
  -0.03353454  0.25169530  0.00000000       0.014
  -0.03353454  0.29041766  0.00000000       0.014
  -0.02235636  0.27105648  0.00000000       0.027
   0.00000000  0.27105648  0.00000000       0.005
 
 k-points in reciprocal lattice and weights: C-4                                     
   0.00000000  0.00000000  0.00000000       0.002
   0.04761905  0.00000000  0.00000000       0.014
   0.09523810  0.00000000  0.00000000       0.014
   0.14285714  0.00000000  0.00000000       0.014
   0.19047619  0.00000000  0.00000000       0.014
   0.23809524  0.00000000  0.00000000       0.014
   0.28571429  0.00000000  0.00000000       0.014
   0.33333333  0.00000000  0.00000000       0.014
   0.38095238  0.00000000  0.00000000       0.014
   0.42857143  0.00000000  0.00000000       0.014
   0.47619048  0.00000000  0.00000000       0.014
   0.09523810  0.04761905  0.00000000       0.014
   0.14285714  0.04761905  0.00000000       0.027
   0.19047619  0.04761905  0.00000000       0.027
   0.23809524  0.04761905  0.00000000       0.027
   0.28571429  0.04761905  0.00000000       0.027
   0.33333333  0.04761905  0.00000000       0.027
   0.38095238  0.04761905  0.00000000       0.027
   0.42857143  0.04761905  0.00000000       0.027
   0.47619048  0.04761905  0.00000000       0.027
  -0.47619048  0.04761905  0.00000000       0.014
   0.19047619  0.09523810  0.00000000       0.014
   0.23809524  0.09523810  0.00000000       0.027
   0.28571429  0.09523810  0.00000000       0.027
   0.33333333  0.09523810  0.00000000       0.027
   0.38095238  0.09523810  0.00000000       0.027
   0.42857143  0.09523810  0.00000000       0.027
   0.47619048  0.09523810  0.00000000       0.027
  -0.47619048  0.09523810  0.00000000       0.027
   0.28571429  0.14285714  0.00000000       0.014
   0.33333333  0.14285714  0.00000000       0.027
   0.38095238  0.14285714  0.00000000       0.027
   0.42857143  0.14285714  0.00000000       0.027
   0.47619048  0.14285714  0.00000000       0.027
  -0.47619048  0.14285714  0.00000000       0.027
  -0.42857143  0.14285714  0.00000000       0.014
   0.38095238  0.19047619  0.00000000       0.014
   0.42857143  0.19047619  0.00000000       0.027
   0.47619048  0.19047619  0.00000000       0.027
  -0.47619048  0.19047619  0.00000000       0.027
  -0.42857143  0.19047619  0.00000000       0.027
   0.47619048  0.23809524  0.00000000       0.014
  -0.47619048  0.23809524  0.00000000       0.027
  -0.42857143  0.23809524  0.00000000       0.027
  -0.38095238  0.23809524  0.00000000       0.014
  -0.42857143  0.28571429  0.00000000       0.014
  -0.38095238  0.28571429  0.00000000       0.027
  -0.33333333  0.33333333  0.00000000       0.005
 
 position of ions in fractional coordinates (direct lattice) 
   0.00000000  0.00000000  0.98901900
   0.33333300  0.33333300  0.98901900
   0.00000000  0.00000000  0.21098100
   0.33333300  0.33333300  0.21098100
 
 position of ions in cartesian coordinates  (Angst):
   0.00000000  0.00000000 19.78038000
   1.41999858  0.00000000 19.78038000
   0.00000000  0.00000000  4.21962000
   1.41999858  0.00000000  4.21962000
 


--------------------------------------------------------------------------------------------------------


 k-point  1 :   0.0000 0.0000 0.0000  plane waves:    5409
 k-point  2 :   0.0476 0.0000 0.0000  plane waves:    5413
 k-point  3 :   0.0952 0.0000 0.0000  plane waves:    5402
 k-point  4 :   0.1429 0.0000 0.0000  plane waves:    5398
 k-point  5 :   0.1905 0.0000 0.0000  plane waves:    5404
 k-point  6 :   0.2381 0.0000 0.0000  plane waves:    5408
 k-point  7 :   0.2857 0.0000 0.0000  plane waves:    5404
 k-point  8 :   0.3333 0.0000 0.0000  plane waves:    5394
 k-point  9 :   0.3810 0.0000 0.0000  plane waves:    5382
 k-point 10 :   0.4286 0.0000 0.0000  plane waves:    5396
 k-point 11 :   0.4762 0.0000 0.0000  plane waves:    5380
 k-point 12 :   0.0952 0.0476 0.0000  plane waves:    5411
 k-point 13 :   0.1429 0.0476 0.0000  plane waves:    5415
 k-point 14 :   0.1905 0.0476 0.0000  plane waves:    5413
 k-point 15 :   0.2381 0.0476 0.0000  plane waves:    5399
 k-point 16 :   0.2857 0.0476 0.0000  plane waves:    5396
 k-point 17 :   0.3333 0.0476 0.0000  plane waves:    5389
 k-point 18 :   0.3810 0.0476 0.0000  plane waves:    5378
 k-point 19 :   0.4286 0.0476 0.0000  plane waves:    5381
 k-point 20 :   0.4762 0.0476 0.0000  plane waves:    5391
 k-point 21 :  -0.4762 0.0476 0.0000  plane waves:    5394
 k-point 22 :   0.1905 0.0952 0.0000  plane waves:    5403
 k-point 23 :   0.2381 0.0952 0.0000  plane waves:    5409
 k-point 24 :   0.2857 0.0952 0.0000  plane waves:    5419
 k-point 25 :   0.3333 0.0952 0.0000  plane waves:    5384
 k-point 26 :   0.3810 0.0952 0.0000  plane waves:    5369
 k-point 27 :   0.4286 0.0952 0.0000  plane waves:    5364
 k-point 28 :   0.4762 0.0952 0.0000  plane waves:    5382
 k-point 29 :  -0.4762 0.0952 0.0000  plane waves:    5404
 k-point 30 :   0.2857 0.1429 0.0000  plane waves:    5405
 k-point 31 :   0.3333 0.1429 0.0000  plane waves:    5404
 k-point 32 :   0.3810 0.1429 0.0000  plane waves:    5382
 k-point 33 :   0.4286 0.1429 0.0000  plane waves:    5347
 k-point 34 :   0.4762 0.1429 0.0000  plane waves:    5367
 k-point 35 :  -0.4762 0.1429 0.0000  plane waves:    5376
 k-point 36 :  -0.4286 0.1429 0.0000  plane waves:    5400
 k-point 37 :   0.3810 0.1905 0.0000  plane waves:    5390
 k-point 38 :   0.4286 0.1905 0.0000  plane waves:    5358
 k-point 39 :   0.4762 0.1905 0.0000  plane waves:    5365
 k-point 40 :  -0.4762 0.1905 0.0000  plane waves:    5363
 k-point 41 :  -0.4286 0.1905 0.0000  plane waves:    5377
 k-point 42 :   0.4762 0.2381 0.0000  plane waves:    5364
 k-point 43 :  -0.4762 0.2381 0.0000  plane waves:    5368
 k-point 44 :  -0.4286 0.2381 0.0000  plane waves:    5360
 k-point 45 :  -0.3810 0.2381 0.0000  plane waves:    5366
 k-point 46 :  -0.4286 0.2857 0.0000  plane waves:    5362
 k-point 47 :  -0.3810 0.2857 0.0000  plane waves:    5326
 k-point 48 :  -0.3333 0.3333 0.0000  plane waves:    5334

 maximum and minimum number of plane-waves per node :       928      874

 maximum number of plane-waves:      5419
 maximum index in each direction: 
   IXMAX=    6   IYMAX=    5   IZMAX=   46
   IXMIN=   -6   IYMIN=   -5   IZMIN=  -46


 parallel 3D FFT for wavefunctions:
    minimum data exchange during FFTs selected (reduces bandwidth)
 parallel 3D FFT for charge:
    minimum data exchange during FFTs selected (reduces bandwidth)


 total amount of memory used by VASP MPI-rank0    41328. kBytes
=======================================================================

   base      :      30000. kBytes
   nonl-proj :       2822. kBytes
   fftplans  :       4589. kBytes
   grid      :       2514. kBytes
   one-center:          3. kBytes
   wavefun   :       1400. kBytes
 
     INWAV:  cpu time    0.0000: real time    0.0001
 Broyden mixing: mesh for mixing (old mesh)
   NGX = 11   NGY = 11   NGZ = 93
  (NGX  = 48   NGY  = 48   NGZ  =384)
  gives a total of  11253 points

 initial charge density was supplied:
 charge density of overlapping atoms calculated
 number of electron      16.0000000 magnetization 
 keeping initial charge density in first step


--------------------------------------------------------------------------------------------------------


 Maximum index for augmentation-charges         3270 (set IRDMAX)


--------------------------------------------------------------------------------------------------------


 First call to EWALD:  gamma=   0.376
 Maximum number of real-space cells 5x 5x 1
 Maximum number of reciprocal cells 2x 2x10

    FEWALD:  cpu time    0.0017: real time    0.0017


--------------------------------------- Iteration      1(   1)  ---------------------------------------


    POTLOK:  cpu time    0.0219: real time    0.0399
    SETDIJ:  cpu time    0.0097: real time    0.0097
     EDDAV:  cpu time    0.2146: real time    0.2151
       DOS:  cpu time    0.0004: real time    0.0051
    --------------------------------------------
      LOOP:  cpu time    0.2466: real time    0.2699

 eigenvalue-minimisations  :  1152
 total energy-change (2. order) : 0.1118713E+03  (-0.8496706E+03)
 number of electron      16.0000000 magnetization 
 augmentation part       16.0000000 magnetization 

 Free energy of the ion-electron system (eV)
  ---------------------------------------------------
  alpha Z        PSCENC =        12.44266281
  Ewald energy   TEWEN  =      2472.80580789
  -Hartree energ DENC   =     -2934.55467332
  -exchange      EXHF   =         0.00000000
  -V(xc)+E(xc)   XCENC  =        55.19716472
  PAW double counting   =       151.32577238     -155.92769107
  entropy T*S    EENTRO =        -0.00005900
  eigenvalues    EBANDS =       -78.03535855
  atomic energy  EATOM  =       588.61769381
  Solvation  Ediel_sol  =         0.00000000
  ---------------------------------------------------
  free energy    TOTEN  =       111.87131967 eV

  energy without entropy =      111.87137867  energy(sigma->0) =      111.87134917


--------------------------------------------------------------------------------------------------------




--------------------------------------- Iteration      1(   2)  ---------------------------------------


     EDDAV:  cpu time    0.3198: real time    0.3206
       DOS:  cpu time    0.0002: real time    0.0002
    --------------------------------------------
      LOOP:  cpu time    0.3200: real time    0.3208

 eigenvalue-minimisations  :  1812
 total energy-change (2. order) :-0.1437389E+03  (-0.1313676E+03)
 number of electron      16.0000000 magnetization 
 augmentation part       16.0000000 magnetization 

 Free energy of the ion-electron system (eV)
  ---------------------------------------------------
  alpha Z        PSCENC =        12.44266281
  Ewald energy   TEWEN  =      2472.80580789
  -Hartree energ DENC   =     -2934.55467332
  -exchange      EXHF   =         0.00000000
  -V(xc)+E(xc)   XCENC  =        55.19716472
  PAW double counting   =       151.32577238     -155.92769107
  entropy T*S    EENTRO =        -0.00000000
  eigenvalues    EBANDS =      -221.77431025
  atomic energy  EATOM  =       588.61769381
  Solvation  Ediel_sol  =         0.00000000
  ---------------------------------------------------
  free energy    TOTEN  =       -31.86757304 eV

  energy without entropy =      -31.86757304  energy(sigma->0) =      -31.86757304


--------------------------------------------------------------------------------------------------------




--------------------------------------- Iteration      1(   3)  ---------------------------------------


     EDDAV:  cpu time    0.2913: real time    0.2920
       DOS:  cpu time    0.0003: real time    0.0003
    --------------------------------------------
      LOOP:  cpu time    0.2916: real time    0.2923

 eigenvalue-minimisations  :  1644
 total energy-change (2. order) :-0.7604391E+01  (-0.7604391E+01)
 number of electron      16.0000000 magnetization 
 augmentation part       16.0000000 magnetization 

 Free energy of the ion-electron system (eV)
  ---------------------------------------------------
  alpha Z        PSCENC =        12.44266281
  Ewald energy   TEWEN  =      2472.80580789
  -Hartree energ DENC   =     -2934.55467332
  -exchange      EXHF   =         0.00000000
  -V(xc)+E(xc)   XCENC  =        55.19716472
  PAW double counting   =       151.32577238     -155.92769107
  entropy T*S    EENTRO =        -0.00000011
  eigenvalues    EBANDS =      -229.37870118
  atomic energy  EATOM  =       588.61769381
  Solvation  Ediel_sol  =         0.00000000
  ---------------------------------------------------
  free energy    TOTEN  =       -39.47196408 eV

  energy without entropy =      -39.47196397  energy(sigma->0) =      -39.47196402


--------------------------------------------------------------------------------------------------------




--------------------------------------- Iteration      1(   4)  ---------------------------------------


     EDDAV:  cpu time    0.3483: real time    0.3491
       DOS:  cpu time    0.0004: real time    0.0004
    --------------------------------------------
      LOOP:  cpu time    0.3486: real time    0.3495

 eigenvalue-minimisations  :  1992
 total energy-change (2. order) :-0.4989881E-01  (-0.4989880E-01)
 number of electron      16.0000000 magnetization 
 augmentation part       16.0000000 magnetization 

 Free energy of the ion-electron system (eV)
  ---------------------------------------------------
  alpha Z        PSCENC =        12.44266281
  Ewald energy   TEWEN  =      2472.80580789
  -Hartree energ DENC   =     -2934.55467332
  -exchange      EXHF   =         0.00000000
  -V(xc)+E(xc)   XCENC  =        55.19716472
  PAW double counting   =       151.32577238     -155.92769107
  entropy T*S    EENTRO =        -0.00000005
  eigenvalues    EBANDS =      -229.42860005
  atomic energy  EATOM  =       588.61769381
  Solvation  Ediel_sol  =         0.00000000
  ---------------------------------------------------
  free energy    TOTEN  =       -39.52186288 eV

  energy without entropy =      -39.52186284  energy(sigma->0) =      -39.52186286


--------------------------------------------------------------------------------------------------------




--------------------------------------- Iteration      1(   5)  ---------------------------------------


     EDDAV:  cpu time    0.3207: real time    0.3215
       DOS:  cpu time    0.0003: real time    0.0003
    CHARGE:  cpu time    0.0326: real time    0.0327
    MIXING:  cpu time    0.0006: real time    0.0006
    --------------------------------------------
      LOOP:  cpu time    0.3542: real time    0.3551

 eigenvalue-minimisations  :  1824
 total energy-change (2. order) :-0.5331724E-04  (-0.5331711E-04)
 number of electron      16.0000000 magnetization 
 augmentation part        0.4290744 magnetization 

 Broyden mixing:
  rms(total) = 0.78959E+00    rms(broyden)= 0.78958E+00
  rms(prec ) = 0.86043E+00
  weight for this iteration     100.00

 Free energy of the ion-electron system (eV)
  ---------------------------------------------------
  alpha Z        PSCENC =        12.44266281
  Ewald energy   TEWEN  =      2472.80580789
  -Hartree energ DENC   =     -2934.55467332
  -exchange      EXHF   =         0.00000000
  -V(xc)+E(xc)   XCENC  =        55.19716472
  PAW double counting   =       151.32577238     -155.92769107
  entropy T*S    EENTRO =        -0.00000005
  eigenvalues    EBANDS =      -229.42865337
  atomic energy  EATOM  =       588.61769381
  Solvation  Ediel_sol  =         0.00000000
  ---------------------------------------------------
  free energy    TOTEN  =       -39.52191620 eV

  energy without entropy =      -39.52191615  energy(sigma->0) =      -39.52191618


--------------------------------------------------------------------------------------------------------




--------------------------------------- Iteration      1(   6)  ---------------------------------------


    POTLOK:  cpu time    0.0122: real time    0.0123
    SETDIJ:  cpu time    0.0060: real time    0.0060
     EDDAV:  cpu time    0.3224: real time    0.3232
       DOS:  cpu time    0.0003: real time    0.0003
    CHARGE:  cpu time    0.0314: real time    0.0315
    MIXING:  cpu time    0.0010: real time    0.0010
    --------------------------------------------
      LOOP:  cpu time    0.3733: real time    0.3743

 eigenvalue-minimisations  :  1824
 total energy-change (2. order) : 0.1894299E+01  (-0.1902349E+00)
 number of electron      16.0000000 magnetization 
 augmentation part        0.4084415 magnetization 

 Broyden mixing:
  rms(total) = 0.41453E+00    rms(broyden)= 0.41453E+00
  rms(prec ) = 0.45301E+00
  weight for this iteration     100.00

 eigenvalues of (default mixing * dielectric matrix)
  average eigenvalue GAMMA=   2.0320
  2.0320

 Free energy of the ion-electron system (eV)
  ---------------------------------------------------
  alpha Z        PSCENC =        12.44266281
  Ewald energy   TEWEN  =      2472.80580789
  -Hartree energ DENC   =     -2955.10847665
  -exchange      EXHF   =         0.00000000
  -V(xc)+E(xc)   XCENC  =        56.22975819
  PAW double counting   =       206.40404963     -211.37640668
  entropy T*S    EENTRO =        -0.00000000
  eigenvalues    EBANDS =      -207.64270601
  atomic energy  EATOM  =       588.61769381
  Solvation  Ediel_sol  =         0.00000000
  ---------------------------------------------------
  free energy    TOTEN  =       -37.62761702 eV

  energy without entropy =      -37.62761702  energy(sigma->0) =      -37.62761702


--------------------------------------------------------------------------------------------------------




--------------------------------------- Iteration      1(   7)  ---------------------------------------


    POTLOK:  cpu time    0.0132: real time    0.0133
    SETDIJ:  cpu time    0.0068: real time    0.0068
     EDDAV:  cpu time    0.3660: real time    0.3668
       DOS:  cpu time    0.0002: real time    0.0002
    CHARGE:  cpu time    0.0329: real time    0.0330
    MIXING:  cpu time    0.0011: real time    0.0011
    --------------------------------------------
      LOOP:  cpu time    0.4202: real time    0.4212

 eigenvalue-minimisations  :  1980
 total energy-change (2. order) : 0.6936284E+00  (-0.2166893E+00)
 number of electron      16.0000000 magnetization 
 augmentation part        0.3863060 magnetization 

 Broyden mixing:
  rms(total) = 0.71479E-01    rms(broyden)= 0.71476E-01
  rms(prec ) = 0.80564E-01
  weight for this iteration     100.00

 eigenvalues of (default mixing * dielectric matrix)
  average eigenvalue GAMMA=   2.2119
  2.1394  2.2843

 Free energy of the ion-electron system (eV)
  ---------------------------------------------------
  alpha Z        PSCENC =        12.44266281
  Ewald energy   TEWEN  =      2472.80580789
  -Hartree energ DENC   =     -2979.97681721
  -exchange      EXHF   =         0.00000000
  -V(xc)+E(xc)   XCENC  =        57.47606602
  PAW double counting   =       276.08200448     -281.35657491
  entropy T*S    EENTRO =        -0.00000000
  eigenvalues    EBANDS =      -183.02483147
  atomic energy  EATOM  =       588.61769381
  Solvation  Ediel_sol  =         0.00000000
  ---------------------------------------------------
  free energy    TOTEN  =       -36.93398859 eV

  energy without entropy =      -36.93398859  energy(sigma->0) =      -36.93398859


--------------------------------------------------------------------------------------------------------




--------------------------------------- Iteration      1(   8)  ---------------------------------------


    POTLOK:  cpu time    0.0130: real time    0.0131
    SETDIJ:  cpu time    0.0061: real time    0.0061
     EDDAV:  cpu time    0.2958: real time    0.2965
       DOS:  cpu time    0.0002: real time    0.0002
    CHARGE:  cpu time    0.0314: real time    0.0315
    MIXING:  cpu time    0.0009: real time    0.0009
    --------------------------------------------
      LOOP:  cpu time    0.3473: real time    0.3482

 eigenvalue-minimisations  :  1668
 total energy-change (2. order) : 0.5603636E-02  (-0.1734787E-02)
 number of electron      16.0000000 magnetization 
 augmentation part        0.3859903 magnetization 

 Broyden mixing:
  rms(total) = 0.10761E-01    rms(broyden)= 0.10760E-01
  rms(prec ) = 0.26155E-01
  weight for this iteration     100.00

 eigenvalues of (default mixing * dielectric matrix)
  average eigenvalue GAMMA=   1.9627
  1.2390  2.6417  2.0074

 Free energy of the ion-electron system (eV)
  ---------------------------------------------------
  alpha Z        PSCENC =        12.44266281
  Ewald energy   TEWEN  =      2472.80580789
  -Hartree energ DENC   =     -2983.46504751
  -exchange      EXHF   =         0.00000000
  -V(xc)+E(xc)   XCENC  =        57.54280021
  PAW double counting   =       279.99792393     -285.16164994
  entropy T*S    EENTRO =        -0.00000000
  eigenvalues    EBANDS =      -179.70857614
  atomic energy  EATOM  =       588.61769381
  Solvation  Ediel_sol  =         0.00000000
  ---------------------------------------------------
  free energy    TOTEN  =       -36.92838495 eV

  energy without entropy =      -36.92838495  energy(sigma->0) =      -36.92838495


--------------------------------------------------------------------------------------------------------




--------------------------------------- Iteration      1(   9)  ---------------------------------------


    POTLOK:  cpu time    0.0121: real time    0.0122
    SETDIJ:  cpu time    0.0054: real time    0.0055
     EDDAV:  cpu time    0.3242: real time    0.3250
       DOS:  cpu time    0.0002: real time    0.0002
    CHARGE:  cpu time    0.0313: real time    0.0314
    MIXING:  cpu time    0.0011: real time    0.0011
    --------------------------------------------
      LOOP:  cpu time    0.3744: real time    0.3753

 eigenvalue-minimisations  :  1848
 total energy-change (2. order) : 0.3122613E-02  (-0.2010538E-03)
 number of electron      16.0000000 magnetization 
 augmentation part        0.3854941 magnetization 

 Broyden mixing:
  rms(total) = 0.74846E-02    rms(broyden)= 0.74846E-02
  rms(prec ) = 0.22076E-01
  weight for this iteration     100.00

 eigenvalues of (default mixing * dielectric matrix)
  average eigenvalue GAMMA=   2.1531
  0.9722  3.2065  2.4575  1.9762

 Free energy of the ion-electron system (eV)
  ---------------------------------------------------
  alpha Z        PSCENC =        12.44266281
  Ewald energy   TEWEN  =      2472.80580789
  -Hartree energ DENC   =     -2985.31734318
  -exchange      EXHF   =         0.00000000
  -V(xc)+E(xc)   XCENC  =        57.58647123
  PAW double counting   =       281.05132070     -286.21107414
  entropy T*S    EENTRO =        -0.00000000
  eigenvalues    EBANDS =      -177.90080145
  atomic energy  EATOM  =       588.61769381
  Solvation  Ediel_sol  =         0.00000000
  ---------------------------------------------------
  free energy    TOTEN  =       -36.92526234 eV

  energy without entropy =      -36.92526234  energy(sigma->0) =      -36.92526234


--------------------------------------------------------------------------------------------------------




--------------------------------------- Iteration      1(  10)  ---------------------------------------


    POTLOK:  cpu time    0.0120: real time    0.0121
    SETDIJ:  cpu time    0.0055: real time    0.0055
     EDDAV:  cpu time    0.2753: real time    0.2760
       DOS:  cpu time    0.0002: real time    0.0002
    CHARGE:  cpu time    0.0314: real time    0.0315
    MIXING:  cpu time    0.0010: real time    0.0010
    --------------------------------------------
      LOOP:  cpu time    0.3255: real time    0.3263

 eigenvalue-minimisations  :  1548
 total energy-change (2. order) : 0.4976382E-02  (-0.3468875E-03)
 number of electron      16.0000000 magnetization 
 augmentation part        0.3850719 magnetization 

 Broyden mixing:
  rms(total) = 0.51733E-02    rms(broyden)= 0.51733E-02
  rms(prec ) = 0.15923E-01
  weight for this iteration     100.00

 eigenvalues of (default mixing * dielectric matrix)
  average eigenvalue GAMMA=   2.0419
  3.4049  2.4971  1.9523  0.9875  1.3676

 Free energy of the ion-electron system (eV)
  ---------------------------------------------------
  alpha Z        PSCENC =        12.44266281
  Ewald energy   TEWEN  =      2472.80580789
  -Hartree energ DENC   =     -2989.08056257
  -exchange      EXHF   =         0.00000000
  -V(xc)+E(xc)   XCENC  =        57.63259012
  PAW double counting   =       279.81930952     -284.98387299
  entropy T*S    EENTRO =        -0.00000000
  eigenvalues    EBANDS =      -174.17391454
  atomic energy  EATOM  =       588.61769381
  Solvation  Ediel_sol  =         0.00000000
  ---------------------------------------------------
  free energy    TOTEN  =       -36.92028595 eV

  energy without entropy =      -36.92028595  energy(sigma->0) =      -36.92028595


--------------------------------------------------------------------------------------------------------




--------------------------------------- Iteration      1(  11)  ---------------------------------------


    POTLOK:  cpu time    0.0116: real time    0.0117
    SETDIJ:  cpu time    0.0055: real time    0.0056
     EDDAV:  cpu time    0.2289: real time    0.2295
       DOS:  cpu time    0.0002: real time    0.0002
    CHARGE:  cpu time    0.0317: real time    0.0318
    MIXING:  cpu time    0.0007: real time    0.0007
    --------------------------------------------
      LOOP:  cpu time    0.2787: real time    0.2795

 eigenvalue-minimisations  :  1248
 total energy-change (2. order) : 0.3603428E-02  (-0.2512849E-03)
 number of electron      16.0000000 magnetization 
 augmentation part        0.3850824 magnetization 

 Broyden mixing:
  rms(total) = 0.34915E-02    rms(broyden)= 0.34915E-02
  rms(prec ) = 0.11033E-01
  weight for this iteration     100.00

 eigenvalues of (default mixing * dielectric matrix)
  average eigenvalue GAMMA=   2.3699
  5.0747  2.7705  2.3473  1.9670  1.0196  1.0406

 Free energy of the ion-electron system (eV)
  ---------------------------------------------------
  alpha Z        PSCENC =        12.44266281
  Ewald energy   TEWEN  =      2472.80580789
  -Hartree energ DENC   =     -2991.59367064
  -exchange      EXHF   =         0.00000000
  -V(xc)+E(xc)   XCENC  =        57.63177429
  PAW double counting   =       279.71441827     -284.87561674
  entropy T*S    EENTRO =        -0.00000000
  eigenvalues    EBANDS =      -171.65975222
  atomic energy  EATOM  =       588.61769381
  Solvation  Ediel_sol  =         0.00000000
  ---------------------------------------------------
  free energy    TOTEN  =       -36.91668253 eV

  energy without entropy =      -36.91668253  energy(sigma->0) =      -36.91668253


--------------------------------------------------------------------------------------------------------




--------------------------------------- Iteration      1(  12)  ---------------------------------------


    POTLOK:  cpu time    0.0112: real time    0.0113
    SETDIJ:  cpu time    0.0055: real time    0.0055
     EDDAV:  cpu time    0.2893: real time    0.2900
       DOS:  cpu time    0.0002: real time    0.0002
    CHARGE:  cpu time    0.0317: real time    0.0317
    MIXING:  cpu time    0.0010: real time    0.0010
    --------------------------------------------
      LOOP:  cpu time    0.3388: real time    0.3397

 eigenvalue-minimisations  :  1368
 total energy-change (2. order) : 0.1425551E-02  (-0.8927229E-04)
 number of electron      16.0000000 magnetization 
 augmentation part        0.3850178 magnetization 

 Broyden mixing:
  rms(total) = 0.30452E-02    rms(broyden)= 0.30452E-02
  rms(prec ) = 0.82226E-02
  weight for this iteration     100.00

 eigenvalues of (default mixing * dielectric matrix)
  average eigenvalue GAMMA=   2.6920
  7.2377  3.1990  2.5028  1.9644  1.9644  0.9878  0.9878

 Free energy of the ion-electron system (eV)
  ---------------------------------------------------
  alpha Z        PSCENC =        12.44266281
  Ewald energy   TEWEN  =      2472.80580789
  -Hartree energ DENC   =     -2993.69235310
  -exchange      EXHF   =         0.00000000
  -V(xc)+E(xc)   XCENC  =        57.63357729
  PAW double counting   =       279.77278106     -284.93445721
  entropy T*S    EENTRO =        -0.00000000
  eigenvalues    EBANDS =      -169.56096952
  atomic energy  EATOM  =       588.61769381
  Solvation  Ediel_sol  =         0.00000000
  ---------------------------------------------------
  free energy    TOTEN  =       -36.91525698 eV

  energy without entropy =      -36.91525698  energy(sigma->0) =      -36.91525698


--------------------------------------------------------------------------------------------------------




--------------------------------------- Iteration      1(  13)  ---------------------------------------


    POTLOK:  cpu time    0.0111: real time    0.0112
    SETDIJ:  cpu time    0.0057: real time    0.0057
     EDDAV:  cpu time    0.2721: real time    0.2727
       DOS:  cpu time    0.0002: real time    0.0002
    CHARGE:  cpu time    0.0315: real time    0.0316
    MIXING:  cpu time    0.0009: real time    0.0009
    --------------------------------------------
      LOOP:  cpu time    0.3216: real time    0.3224

 eigenvalue-minimisations  :  1536
 total energy-change (2. order) :-0.6278192E-03  (-0.4345089E-04)
 number of electron      16.0000000 magnetization 
 augmentation part        0.3849742 magnetization 

 Broyden mixing:
  rms(total) = 0.24395E-02    rms(broyden)= 0.24395E-02
  rms(prec ) = 0.53846E-02
  weight for this iteration     100.00

 eigenvalues of (default mixing * dielectric matrix)
  average eigenvalue GAMMA=   3.1686
 10.2078  4.1804  2.8964  2.4413  0.9954  0.9954  1.8974  1.7350

 Free energy of the ion-electron system (eV)
  ---------------------------------------------------
  alpha Z        PSCENC =        12.44266281
  Ewald energy   TEWEN  =      2472.80580789
  -Hartree energ DENC   =     -2995.36673024
  -exchange      EXHF   =         0.00000000
  -V(xc)+E(xc)   XCENC  =        57.63358605
  PAW double counting   =       280.02162890     -285.18256418
  entropy T*S    EENTRO =        -0.00000000
  eigenvalues    EBANDS =      -167.88796983
  atomic energy  EATOM  =       588.61769381
  Solvation  Ediel_sol  =         0.00000000
  ---------------------------------------------------
  free energy    TOTEN  =       -36.91588479 eV

  energy without entropy =      -36.91588479  energy(sigma->0) =      -36.91588479


--------------------------------------------------------------------------------------------------------




--------------------------------------- Iteration      1(  14)  ---------------------------------------


    POTLOK:  cpu time    0.0110: real time    0.0111
    SETDIJ:  cpu time    0.0056: real time    0.0056
     EDDAV:  cpu time    0.2785: real time    0.2792
       DOS:  cpu time    0.0002: real time    0.0002
    CHARGE:  cpu time    0.0312: real time    0.0313
    MIXING:  cpu time    0.0013: real time    0.0013
    --------------------------------------------
      LOOP:  cpu time    0.3278: real time    0.3286

 eigenvalue-minimisations  :  1572
 total energy-change (2. order) :-0.1415351E-02  (-0.5737967E-04)
 number of electron      16.0000000 magnetization 
 augmentation part        0.3849484 magnetization 

 Broyden mixing:
  rms(total) = 0.14425E-02    rms(broyden)= 0.14425E-02
  rms(prec ) = 0.19789E-02
  weight for this iteration     100.00

 eigenvalues of (default mixing * dielectric matrix)
  average eigenvalue GAMMA=   3.6371
 14.4573  5.0915  2.8949  2.4250  2.4250  0.9957  0.9957  1.8057  1.6430

 Free energy of the ion-electron system (eV)
  ---------------------------------------------------
  alpha Z        PSCENC =        12.44266281
  Ewald energy   TEWEN  =      2472.80580789
  -Hartree energ DENC   =     -2997.08699646
  -exchange      EXHF   =         0.00000000
  -V(xc)+E(xc)   XCENC  =        57.63612581
  PAW double counting   =       279.80533842     -284.96499322
  entropy T*S    EENTRO =        -0.00000000
  eigenvalues    EBANDS =      -166.17293918
  atomic energy  EATOM  =       588.61769381
  Solvation  Ediel_sol  =         0.00000000
  ---------------------------------------------------
  free energy    TOTEN  =       -36.91730015 eV

  energy without entropy =      -36.91730015  energy(sigma->0) =      -36.91730015


--------------------------------------------------------------------------------------------------------




--------------------------------------- Iteration      1(  15)  ---------------------------------------


    POTLOK:  cpu time    0.0111: real time    0.0139
    SETDIJ:  cpu time    0.0056: real time    0.0056
     EDDAV:  cpu time    0.2784: real time    0.2790
       DOS:  cpu time    0.0002: real time    0.0002
    CHARGE:  cpu time    0.0315: real time    0.0316
    MIXING:  cpu time    0.0011: real time    0.0011
    --------------------------------------------
      LOOP:  cpu time    0.3279: real time    0.3314

 eigenvalue-minimisations  :  1548
 total energy-change (2. order) :-0.2746980E-03  (-0.9880137E-05)
 number of electron      16.0000000 magnetization 
 augmentation part        0.3849017 magnetization 

 Broyden mixing:
  rms(total) = 0.79590E-03    rms(broyden)= 0.79590E-03
  rms(prec ) = 0.10728E-02
  weight for this iteration     100.00

 eigenvalues of (default mixing * dielectric matrix)
  average eigenvalue GAMMA=   4.3439
 21.5060  6.8558  3.3138  2.6183  2.4595  1.9761  1.6475  0.9915  0.9915  1.0788

 Free energy of the ion-electron system (eV)
  ---------------------------------------------------
  alpha Z        PSCENC =        12.44266281
  Ewald energy   TEWEN  =      2472.80580789
  -Hartree energ DENC   =     -2996.86910852
  -exchange      EXHF   =         0.00000000
  -V(xc)+E(xc)   XCENC  =        57.63653219
  PAW double counting   =       279.90440234     -285.06641049
  entropy T*S    EENTRO =        -0.00000000
  eigenvalues    EBANDS =      -166.38915487
  atomic energy  EATOM  =       588.61769381
  Solvation  Ediel_sol  =         0.00000000
  ---------------------------------------------------
  free energy    TOTEN  =       -36.91757484 eV

  energy without entropy =      -36.91757484  energy(sigma->0) =      -36.91757484


--------------------------------------------------------------------------------------------------------




--------------------------------------- Iteration      1(  16)  ---------------------------------------


    POTLOK:  cpu time    0.0111: real time    0.0111
    SETDIJ:  cpu time    0.0057: real time    0.0057
     EDDAV:  cpu time    0.3100: real time    0.3107
       DOS:  cpu time    0.0002: real time    0.0002
    CHARGE:  cpu time    0.0332: real time    0.0333
    MIXING:  cpu time    0.0018: real time    0.0019
    --------------------------------------------
      LOOP:  cpu time    0.3620: real time    0.3629

 eigenvalue-minimisations  :  1644
 total energy-change (2. order) :-0.1583253E-03  (-0.8826234E-06)
 number of electron      16.0000000 magnetization 
 augmentation part        0.3849043 magnetization 

 Broyden mixing:
  rms(total) = 0.17031E-03    rms(broyden)= 0.17030E-03
  rms(prec ) = 0.24354E-03
  weight for this iteration     100.00

 eigenvalues of (default mixing * dielectric matrix)
  average eigenvalue GAMMA=   4.2945
 23.1122  6.8839  3.2621  2.9640  2.3742  2.0060  1.9305  1.6900  0.9768  0.9973
  1.0429

 Free energy of the ion-electron system (eV)
  ---------------------------------------------------
  alpha Z        PSCENC =        12.44266281
  Ewald energy   TEWEN  =      2472.80580789
  -Hartree energ DENC   =     -2997.16430090
  -exchange      EXHF   =         0.00000000
  -V(xc)+E(xc)   XCENC  =        57.63681288
  PAW double counting   =       279.83860113     -284.99971877
  entropy T*S    EENTRO =        -0.00000000
  eigenvalues    EBANDS =      -166.09529202
  atomic energy  EATOM  =       588.61769381
  Solvation  Ediel_sol  =         0.00000000
  ---------------------------------------------------
  free energy    TOTEN  =       -36.91773317 eV

  energy without entropy =      -36.91773317  energy(sigma->0) =      -36.91773317


--------------------------------------------------------------------------------------------------------




--------------------------------------- Iteration      1(  17)  ---------------------------------------


    POTLOK:  cpu time    0.0120: real time    0.0121
    SETDIJ:  cpu time    0.0067: real time    0.0067
     EDDAV:  cpu time    0.3033: real time    0.3040
       DOS:  cpu time    0.0002: real time    0.0002
    CHARGE:  cpu time    0.0324: real time    0.0325
    MIXING:  cpu time    0.0010: real time    0.0010
    --------------------------------------------
      LOOP:  cpu time    0.3556: real time    0.3566

 eigenvalue-minimisations  :  1656
 total energy-change (2. order) :-0.2797515E-04  (-0.1338779E-06)
 number of electron      16.0000000 magnetization 
 augmentation part        0.3849099 magnetization 

 Broyden mixing:
  rms(total) = 0.86054E-04    rms(broyden)= 0.86053E-04
  rms(prec ) = 0.10682E-03
  weight for this iteration     100.00

 eigenvalues of (default mixing * dielectric matrix)
  average eigenvalue GAMMA=   4.1804
 23.6649  6.9553  3.7451  3.1419  2.6179  2.4410  1.9685  1.5997  0.9600  0.9903
  1.0023  1.0784

 Free energy of the ion-electron system (eV)
  ---------------------------------------------------
  alpha Z        PSCENC =        12.44266281
  Ewald energy   TEWEN  =      2472.80580789
  -Hartree energ DENC   =     -2997.16139404
  -exchange      EXHF   =         0.00000000
  -V(xc)+E(xc)   XCENC  =        57.63629401
  PAW double counting   =       279.83328763     -284.99435645
  entropy T*S    EENTRO =        -0.00000000
  eigenvalues    EBANDS =      -166.09775680
  atomic energy  EATOM  =       588.61769381
  Solvation  Ediel_sol  =         0.00000000
  ---------------------------------------------------
  free energy    TOTEN  =       -36.91776114 eV

  energy without entropy =      -36.91776114  energy(sigma->0) =      -36.91776114


--------------------------------------------------------------------------------------------------------




--------------------------------------- Iteration      1(  18)  ---------------------------------------


    POTLOK:  cpu time    0.0113: real time    0.0114
    SETDIJ:  cpu time    0.0059: real time    0.0059
     EDDAV:  cpu time    0.2635: real time    0.2641
       DOS:  cpu time    0.0002: real time    0.0002
    CHARGE:  cpu time    0.0314: real time    0.0314
    MIXING:  cpu time    0.0010: real time    0.0010
    --------------------------------------------
      LOOP:  cpu time    0.3133: real time    0.3141

 eigenvalue-minimisations  :  1476
 total energy-change (2. order) :-0.7742218E-05  (-0.1673482E-07)
 number of electron      16.0000000 magnetization 
 augmentation part        0.3849088 magnetization 

 Broyden mixing:
  rms(total) = 0.22750E-04    rms(broyden)= 0.22746E-04
  rms(prec ) = 0.29622E-04
  weight for this iteration     100.00

 eigenvalues of (default mixing * dielectric matrix)
  average eigenvalue GAMMA=   4.0983
 23.6764  6.9869  4.2118  3.1636  2.5547  2.5458  2.5458  1.9580  1.6130  0.9841
  1.0018  1.0018  1.0340

 Free energy of the ion-electron system (eV)
  ---------------------------------------------------
  alpha Z        PSCENC =        12.44266281
  Ewald energy   TEWEN  =      2472.80580789
  -Hartree energ DENC   =     -2997.17008658
  -exchange      EXHF   =         0.00000000
  -V(xc)+E(xc)   XCENC  =        57.63643973
  PAW double counting   =       279.84348082     -285.00451541
  entropy T*S    EENTRO =        -0.00000000
  eigenvalues    EBANDS =      -166.08925194
  atomic energy  EATOM  =       588.61769381
  Solvation  Ediel_sol  =         0.00000000
  ---------------------------------------------------
  free energy    TOTEN  =       -36.91776889 eV

  energy without entropy =      -36.91776889  energy(sigma->0) =      -36.91776889


--------------------------------------------------------------------------------------------------------




--------------------------------------- Iteration      1(  19)  ---------------------------------------


    POTLOK:  cpu time    0.0117: real time    0.0118
    SETDIJ:  cpu time    0.0055: real time    0.0056
     EDDAV:  cpu time    0.2972: real time    0.2979
       DOS:  cpu time    0.0002: real time    0.0002
    CHARGE:  cpu time    0.0317: real time    0.0318
    MIXING:  cpu time    0.0013: real time    0.0013
    --------------------------------------------
      LOOP:  cpu time    0.3477: real time    0.3485

 eigenvalue-minimisations  :  1644
 total energy-change (2. order) :-0.6308675E-06  (-0.3894644E-08)
 number of electron      16.0000000 magnetization 
 augmentation part        0.3849080 magnetization 

 Broyden mixing:
  rms(total) = 0.10898E-04    rms(broyden)= 0.10890E-04
  rms(prec ) = 0.11983E-04
  weight for this iteration     100.00

 eigenvalues of (default mixing * dielectric matrix)
  average eigenvalue GAMMA=   3.9070
 23.6924  6.9756  4.3114  3.1477  3.0216  2.5431  2.4439  1.9679  1.6115  1.0534
  1.0058  0.9885  0.9673  0.9673

 Free energy of the ion-electron system (eV)
  ---------------------------------------------------
  alpha Z        PSCENC =        12.44266281
  Ewald energy   TEWEN  =      2472.80580789
  -Hartree energ DENC   =     -2997.17473197
  -exchange      EXHF   =         0.00000000
  -V(xc)+E(xc)   XCENC  =        57.63649643
  PAW double counting   =       279.84101189     -285.00204178
  entropy T*S    EENTRO =        -0.00000000
  eigenvalues    EBANDS =      -166.08466860
  atomic energy  EATOM  =       588.61769381
  Solvation  Ediel_sol  =         0.00000000
  ---------------------------------------------------
  free energy    TOTEN  =       -36.91776952 eV

  energy without entropy =      -36.91776952  energy(sigma->0) =      -36.91776952


--------------------------------------------------------------------------------------------------------




--------------------------------------- Iteration      1(  20)  ---------------------------------------


    POTLOK:  cpu time    0.0117: real time    0.0118
    SETDIJ:  cpu time    0.0057: real time    0.0057
     EDDAV:  cpu time    0.3114: real time    0.3122
       DOS:  cpu time    0.0002: real time    0.0002
    --------------------------------------------
      LOOP:  cpu time    0.3290: real time    0.3298

 eigenvalue-minimisations  :  1752
 total energy-change (2. order) :-0.5996867E-08  (-0.1990019E-09)
 number of electron      16.0000000 magnetization 
 augmentation part        0.3849080 magnetization 

 Free energy of the ion-electron system (eV)
  ---------------------------------------------------
  alpha Z        PSCENC =        12.44266281
  Ewald energy   TEWEN  =      2472.80580789
  -Hartree energ DENC   =     -2997.17422777
  -exchange      EXHF   =         0.00000000
  -V(xc)+E(xc)   XCENC  =        57.63647241
  PAW double counting   =       279.83960254     -285.00061701
  entropy T*S    EENTRO =        -0.00000000
  eigenvalues    EBANDS =      -166.08516421
  atomic energy  EATOM  =       588.61769381
  Solvation  Ediel_sol  =         0.00000000
  ---------------------------------------------------
  free energy    TOTEN  =       -36.91776952 eV

  energy without entropy =      -36.91776952  energy(sigma->0) =      -36.91776952


--------------------------------------------------------------------------------------------------------




 average (electrostatic) potential at core
  the test charge radii are     0.6991
  (the norm of the test charge is              1.0000)
       1 -56.6349       2 -56.6349       3 -56.6349       4 -56.6349
 
 
 
 E-fermi :  -1.2198     XC(G=0):  -4.0330     alpha+bet : -3.8326


 k-point     1 :       0.0000    0.0000    0.0000
  band No.  band energies     occupation 
      1     -20.7948      2.00000
      2     -20.7831      2.00000
      3      -8.9731      2.00000
      4      -8.7915      2.00000
      5      -4.2421      2.00000
      6      -4.2421      2.00000
      7      -4.2417      2.00000
      8      -4.2416      2.00000
      9       1.9306      0.00000
     10       2.4891      0.00000
     11       3.1046      0.00000
     12       3.9974      0.00000

 k-point     2 :       0.0476    0.0000    0.0000
  band No.  band energies     occupation 
      1     -20.7410      2.00000
      2     -20.7293      2.00000
      3      -8.9085      2.00000
      4      -8.7274      2.00000
      5      -4.4631      2.00000
      6      -4.4624      2.00000
      7      -4.3590      2.00000
      8      -4.3585      2.00000
      9       2.0027      0.00000
     10       2.5623      0.00000
     11       3.1780      0.00000
     12       4.0697      0.00000

 k-point     3 :       0.0952    0.0000    0.0000
  band No.  band energies     occupation 
      1     -20.5796      2.00000
      2     -20.5680      2.00000
      3      -8.7149      2.00000
      4      -8.5354      2.00000
      5      -5.0831      2.00000
      6      -5.0821      2.00000
      7      -4.6788      2.00000
      8      -4.6782      2.00000
      9       2.2190      0.00000
     10       2.7819      0.00000
     11       3.3980      0.00000
     12       4.2865      0.00000

 k-point     4 :       0.1429    0.0000    0.0000
  band No.  band energies     occupation 
      1     -20.3112      2.00000
      2     -20.2999      2.00000
      3      -8.3942      2.00000
      4      -8.2174      2.00000
      5      -6.0028      2.00000
      6      -6.0012      2.00000
      7      -5.1305      2.00000
      8      -5.1298      2.00000
      9       2.5794      0.00000
     10       3.1476      0.00000
     11       3.7643      0.00000
     12       4.6469      0.00000

 k-point     5 :       0.1905    0.0000    0.0000
  band No.  band energies     occupation 
      1     -19.9368      2.00000
      2     -19.9259      2.00000
      3      -7.9494      2.00000
      4      -7.7765      2.00000
      5      -7.1157      2.00000
      6      -7.1136      2.00000
      7      -5.6393      2.00000
      8      -5.6385      2.00000
      9       3.0836      0.00000
     10       3.6585      0.00000
     11       4.2756      0.00000
     12       5.1478      0.00000

 k-point     6 :       0.2381    0.0000    0.0000
  band No.  band energies     occupation 
      1     -19.4580      2.00000
      2     -19.4475      2.00000
      3      -8.3356      2.00000
      4      -8.3329      2.00000
      5      -7.3857      2.00000
      6      -7.2182      2.00000
      7      -6.1464      2.00000
      8      -6.1454      2.00000
      9       3.7303      0.00000
     10       4.3112      0.00000
     11       4.9245      0.00000
     12       5.7544      0.00000

 k-point     7 :       0.2857    0.0000    0.0000
  band No.  band energies     occupation 
      1     -18.8770      2.00000
      2     -18.8670      2.00000
      3      -9.5999      2.00000
      4      -9.5965      2.00000
      5      -6.7122      2.00000
      6      -6.6108      2.00000
      7      -6.6098      2.00000
      8      -6.5518      2.00000
      9       4.5152      0.00000
     10       4.9739      0.00000
     11       4.9814      0.00000
     12       5.2687      0.00000

 k-point     8 :       0.3333    0.0000    0.0000
  band No.  band energies     occupation 
      1     -18.1973      2.00000
      2     -18.1879      2.00000
      3     -10.8639      2.00000
      4     -10.8598      2.00000
      5      -7.0057      2.00000
      6      -7.0047      2.00000
      7      -5.9453      2.00000
      8      -5.7940      2.00000
      9       3.6654      0.00000
     10       3.7803      0.00000
     11       5.4399      0.00000
     12       6.0643      0.00000

 k-point     9 :       0.3810    0.0000    0.0000
  band No.  band energies     occupation 
      1     -17.4250      2.00000
      2     -17.4162      2.00000
      3     -12.0941      2.00000
      4     -12.0892      2.00000
      5      -7.3139      2.00000
      6      -7.3128      2.00000
      7      -5.1184      2.00000
      8      -4.9791      2.00000
      9       2.3752      0.00000
     10       2.5071      0.00000
     11       6.3104      0.00000
     12       6.4062      0.00000

 k-point    10 :       0.4286    0.0000    0.0000
  band No.  band energies     occupation 
      1     -16.5752      2.00000
      2     -16.5671      2.00000
      3     -13.2577      2.00000
      4     -13.2522      2.00000
      5      -7.5245      2.00000
      6      -7.5234      2.00000
      7      -4.3112      2.00000
      8      -4.1875      2.00000
      9       1.2412      0.00000
     10       1.3927      0.00000
     11       6.2875      0.00000
     12       6.3090      0.00000

 k-point    11 :       0.4762    0.0000    0.0000
  band No.  band energies     occupation 
      1     -15.7301      2.00000
      2     -15.7226      2.00000
      3     -14.2622      2.00000
      4     -14.2560      2.00000
      5      -7.6313      2.00000
      6      -7.6302      2.00000
      7      -3.7306      2.00000
      8      -3.6228      2.00000
      9       0.4922      0.00000
     10       0.6619      0.00000
     11       6.2379      0.00000
     12       6.2559      0.00000

 k-point    12 :       0.0952    0.0476    0.0000
  band No.  band energies     occupation 
      1     -20.6333      2.00000
      2     -20.6217      2.00000
      3      -8.7794      2.00000
      4      -8.5993      2.00000
      5      -4.8682      2.00000
      6      -4.8673      2.00000
      7      -4.5929      2.00000
      8      -4.5922      2.00000
      9       2.1469      0.00000
     10       2.7087      0.00000
     11       3.3247      0.00000
     12       4.2143      0.00000

 k-point    13 :       0.1429    0.0476    0.0000
  band No.  band energies     occupation 
      1     -20.4184      2.00000
      2     -20.4071      2.00000
      3      -8.5222      2.00000
      4      -8.3443      2.00000
      5      -5.6052      2.00000
      6      -5.6039      2.00000
      7      -5.0120      2.00000
      8      -5.0112      2.00000
      9       2.4354      0.00000
     10       3.0015      0.00000
     11       3.6179      0.00000
     12       4.5030      0.00000

 k-point    14 :       0.1905    0.0476    0.0000
  band No.  band energies     occupation 
      1     -20.0971      2.00000
      2     -20.0860      2.00000
      3      -8.1393      2.00000
      4      -7.9648      2.00000
      5      -6.5915      2.00000
      6      -6.5897      2.00000
      7      -5.5230      2.00000
      8      -5.5220      2.00000
      9       2.8679      0.00000
     10       3.4400      0.00000
     11       4.0570      0.00000
     12       4.9344      0.00000

 k-point    15 :       0.2381    0.0476    0.0000
  band No.  band energies     occupation 
      1     -19.6705      2.00000
      2     -19.6598      2.00000
      3      -7.7366      2.00000
      4      -7.7343      2.00000
      5      -7.6347      2.00000
      6      -7.4648      2.00000
      7      -6.0529      2.00000
      8      -6.0518      2.00000
      9       3.4436      0.00000
     10       4.0227      0.00000
     11       4.6393      0.00000
     12       5.5011      0.00000

 k-point    16 :       0.2857    0.0476    0.0000
  band No.  band energies     occupation 
      1     -19.1406      2.00000
      2     -19.1304      2.00000
      3      -8.9649      2.00000
      4      -8.9619      2.00000
      5      -7.0153      2.00000
      6      -6.8515      2.00000
      7      -6.5528      2.00000
      8      -6.5517      2.00000
      9       4.1609      0.00000
     10       4.7396      0.00000
     11       5.3118      0.00000
     12       5.6658      0.00000

 k-point    17 :       0.3333    0.0476    0.0000
  band No.  band energies     occupation 
      1     -18.5101      2.00000
      2     -18.5005      2.00000
      3     -10.2205      2.00000
      4     -10.2168      2.00000
      5      -6.9912      2.00000
      6      -6.9900      2.00000
      7      -6.2929      2.00000
      8      -6.1371      2.00000
      9       4.2947      0.00000
     10       4.3966      0.00000
     11       5.0199      0.00000
     12       5.6438      0.00000

 k-point    18 :       0.3810    0.0476    0.0000
  band No.  band energies     occupation 
      1     -17.7837      2.00000
      2     -17.7747      2.00000
      3     -11.4627      2.00000
      4     -11.4582      2.00000
      5      -7.3479      2.00000
      6      -7.3466      2.00000
      7      -5.4904      2.00000
      8      -5.3451      2.00000
      9       2.9870      0.00000
     10       3.1059      0.00000
     11       6.0003      0.00000
     12       6.5914      0.00000

 k-point    19 :       0.4286    0.0476    0.0000
  band No.  band energies     occupation 
      1     -16.9705      2.00000
      2     -16.9621      2.00000
      3     -12.6587      2.00000
      4     -12.6535      2.00000
      5      -7.6102      2.00000
      6      -7.6089      2.00000
      7      -4.6580      2.00000
      8      -4.5263      2.00000
      9       1.7648      0.00000
     10       1.9024      0.00000
     11       6.5594      0.00000
     12       6.5964      0.00000

 k-point    20 :       0.4762    0.0476    0.0000
  band No.  band energies     occupation 
      1     -16.1011      2.00000
      2     -16.0933      2.00000
      3     -13.7631      2.00000
      4     -13.7573      2.00000
      5      -7.7704      2.00000
      6      -7.7691      2.00000
      7      -3.9237      2.00000
      8      -3.8089      2.00000
      9       0.7865      0.00000
     10       0.9443      0.00000
     11       6.4993      0.00000
     12       6.5197      0.00000

 k-point    21 :      -0.4762    0.0476    0.0000
  band No.  band energies     occupation 
      1     -15.4820      2.00000
      2     -15.4746      2.00000
      3     -14.4614      2.00000
      4     -14.4552      2.00000
      5      -7.8242      2.00000
      6      -7.8229      2.00000
      7      -3.5925      2.00000
      8      -3.4879      2.00000
      9       0.3722      0.00000
     10       0.5416      0.00000
     11       6.4738      0.00000
     12       6.4928      0.00000

 k-point    22 :       0.1905    0.0952    0.0000
  band No.  band energies     occupation 
      1     -20.1506      2.00000
      2     -20.1394      2.00000
      3      -8.2028      2.00000
      4      -8.0277      2.00000
      5      -6.3475      2.00000
      6      -6.3459      2.00000
      7      -5.5526      2.00000
      8      -5.5515      2.00000
      9       2.7961      0.00000
     10       3.3671      0.00000
     11       3.9841      0.00000
     12       4.8631      0.00000

 k-point    23 :       0.2381    0.0952    0.0000
  band No.  band energies     occupation 
      1     -19.7770      2.00000
      2     -19.7662      2.00000
      3      -7.7598      2.00000
      4      -7.5887      2.00000
      5      -7.2906      2.00000
      6      -7.2885      2.00000
      7      -6.1614      2.00000
      8      -6.1601      2.00000
      9       3.3006      0.00000
     10       3.8781      0.00000
     11       4.4955      0.00000
     12       5.3647      0.00000

 k-point    24 :       0.2857    0.0952    0.0000
  band No.  band energies     occupation 
      1     -19.2993      2.00000
      2     -19.2890      2.00000
      3      -8.3907      2.00000
      4      -8.3881      2.00000
      5      -7.1984      2.00000
      6      -7.0327      2.00000
      7      -6.7385      2.00000
      8      -6.7370      2.00000
      9       3.9477      0.00000
     10       4.5316      0.00000
     11       5.1455      0.00000
     12       5.9391      0.00000

 k-point    25 :       0.3333    0.0952    0.0000
  band No.  band energies     occupation 
      1     -18.7199      2.00000
      2     -18.7101      2.00000
      3      -9.5788      2.00000
      4      -9.5755      2.00000
      5      -7.2444      2.00000
[...]
      7      -3.5925      2.00000
      8      -3.4879      2.00000
      9       0.3722      0.00000
     10       0.5416      0.00000
     11       6.4738      0.00000
     12       6.4928      0.00000

 k-point    22 :       0.1905    0.0952    0.0000
  band No.  band energies     occupation 
      1     -20.1506      2.00000
      2     -20.1395      2.00000
      3      -8.2028      2.00000
      4      -8.0277      2.00000
      5      -6.3476      2.00000
      6      -6.3459      2.00000
      7      -5.5526      2.00000
      8      -5.5515      2.00000
      9       2.7965      0.00000
     10       3.3686      0.00000
     11       3.9907      0.00000
     12       4.8630      0.00000

 k-point    23 :       0.2381    0.0952    0.0000
  band No.  band energies     occupation 
      1     -19.7770      2.00000
      2     -19.7662      2.00000
      3      -7.7598      2.00000
      4      -7.5887      2.00000
      5      -7.2906      2.00000
      6      -7.2886      2.00000
      7      -6.1614      2.00000
      8      -6.1601      2.00000
      9       3.3010      0.00000
     10       3.8796      0.00000
     11       4.5019      0.00000
     12       5.3647      0.00000

 k-point    24 :       0.2857    0.0952    0.0000
  band No.  band energies     occupation 
      1     -19.2993      2.00000
      2     -19.2890      2.00000
      3      -8.3907      2.00000
      4      -8.3881      2.00000
      5      -7.1985      2.00000
      6      -7.0328      2.00000
      7      -6.7385      2.00000
      8      -6.7371      2.00000
      9       3.9481      0.00000
     10       4.5330      0.00000
     11       5.1517      0.00000
     12       5.9397      0.00000

 k-point    25 :       0.3333    0.0952    0.0000
  band No.  band energies     occupation 
      1     -18.7199      2.00000
      2     -18.7101      2.00000
      3      -9.5788      2.00000
      4      -9.5755      2.00000
      5      -7.2444      2.00000
      6      -7.2428      2.00000
      7      -6.5275      2.00000
      8      -6.3689      2.00000
      9       4.7282      0.00000
     10       4.8233      0.00000
     11       4.8867      0.00000
     12       5.3607      0.00000

 k-point    26 :       0.3810    0.0952    0.0000
  band No.  band energies     occupation 
      1     -18.0424      2.00000
      2     -18.0332      2.00000
      3     -10.7950      2.00000
      4     -10.7910      2.00000
      5      -7.6626      2.00000
      6      -7.6609      2.00000
      7      -5.7629      2.00000
      8      -5.6133      2.00000
      9       3.5416      0.00000
     10       3.6403      0.00000
     11       5.6619      0.00000
     12       6.2817      0.00000

 k-point    27 :       0.4286    0.0952    0.0000
  band No.  band energies     occupation 
      1     -17.2732      2.00000
      2     -17.2646      2.00000
      3     -11.9946      2.00000
      4     -11.9899      2.00000
      5      -7.9834      2.00000
      6      -7.9817      2.00000
      7      -4.9368      2.00000
      8      -4.7990      2.00000
      9       2.2962      0.00000
     10       2.4132      0.00000
     11       6.7080      0.00000
     12       7.2688      0.00000

 k-point    28 :       0.4762    0.0952    0.0000
  band No.  band energies     occupation 
      1     -16.4280      2.00000
      2     -16.4200      2.00000
      3     -13.1383      2.00000
      4     -13.1328      2.00000
      5      -8.2005      2.00000
      6      -8.1988      2.00000
      7      -4.1259      2.00000
      8      -4.0032      2.00000
      9       1.1890      0.00000
     10       1.3260      0.00000
     11       7.2067      0.00000
     12       7.2407      0.00000

 k-point    29 :      -0.4762    0.0952    0.0000
  band No.  band energies     occupation 
      1     -15.5894      2.00000
      2     -15.5820      2.00000
      3     -14.1292      2.00000
      4     -14.1232      2.00000
      5      -8.3100      2.00000
      6      -8.3083      2.00000
      7      -3.5359      2.00000
      8      -3.4289      2.00000
      9       0.4458      0.00000
     10       0.6011      0.00000
     11       7.1647      0.00000
     12       7.1887      0.00000

 k-point    30 :       0.2857    0.1429    0.0000
  band No.  band energies     occupation 
      1     -19.3523      2.00000
      2     -19.3420      2.00000
      3      -8.1059      2.00000
      4      -8.1035      2.00000
      5      -7.2597      2.00000
      6      -7.0934      2.00000
      7      -6.9006      2.00000
      8      -6.8989      2.00000
      9       3.8770      0.00000
     10       4.4624      0.00000
     11       5.0844      0.00000
     12       5.9361      0.00000

 k-point    31 :       0.3333    0.1429    0.0000
  band No.  band energies     occupation 
      1     -18.8251      2.00000
      2     -18.8152      2.00000
      3      -9.0727      2.00000
      4      -9.0698      2.00000
      5      -7.5774      2.00000
      6      -7.5754      2.00000
      7      -6.6457      2.00000
      8      -6.4856      2.00000
      9       4.5944      0.00000
     10       5.1308      0.00000
     11       5.1529      0.00000
     12       5.2309      0.00000

 k-point    32 :       0.3810    0.1429    0.0000
  band No.  band energies     occupation 
      1     -18.1985      2.00000
      2     -18.1892      2.00000
      3     -10.1646      2.00000
      4     -10.1611      2.00000
      5      -8.1204      2.00000
      6      -8.1182      2.00000
      7      -5.9290      2.00000
      8      -5.7768      2.00000
      9       3.9496      0.00000
     10       4.0258      0.00000
     11       5.4515      0.00000
     12       6.0577      0.00000

 k-point    33 :       0.4286    0.1429    0.0000
  band No.  band energies     occupation 
      1     -17.4775      2.00000
      2     -17.4687      2.00000
      3     -11.3104      2.00000
      4     -11.3062      2.00000
      5      -8.5316      2.00000
      6      -8.5293      2.00000
      7      -5.1306      2.00000
      8      -4.9887      2.00000
      9       2.7508      0.00000
     10       2.8438      0.00000
     11       6.4427      0.00000
     12       7.0598      0.00000

 k-point    34 :       0.4762    0.1429    0.0000
  band No.  band energies     occupation 
      1     -16.6719      2.00000
      2     -16.6638      2.00000
      3     -12.4481      2.00000
      4     -12.4431      2.00000
      5      -8.8214      2.00000
      6      -8.8190      2.00000
      7      -4.2964      2.00000
      8      -4.1674      2.00000
      9       1.6079      0.00000
     10       1.7193      0.00000
     11       7.5543      0.00000
     12       8.1593      0.00000

 k-point    35 :      -0.4762    0.1429    0.0000
  band No.  band energies     occupation 
      1     -15.8134      2.00000
      2     -15.8059      2.00000
      3     -13.5159      2.00000
      4     -13.5102      2.00000
      5      -8.9943      2.00000
      6      -8.9919      2.00000
      7      -3.5469      2.00000
      8      -3.4338      2.00000
      9       0.6635      0.00000
     10       0.7945      0.00000
     11       8.1967      0.00000
     12       8.2409      0.00000

 k-point    36 :      -0.4286    0.1429    0.0000
  band No.  band energies     occupation 
      1     -15.2057      2.00000
      2     -15.1986      2.00000
      3     -14.1949      2.00000
      4     -14.1889      2.00000
      5      -9.0519      2.00000
      6      -9.0495      2.00000
      7      -3.1989      2.00000
      8      -3.0959      2.00000
      9       0.2489      0.00000
     10       0.3912      0.00000
     11       8.1798      0.00000
     12       8.2150      0.00000

 k-point    37 :       0.3810    0.1905    0.0000
  band No.  band energies     occupation 
      1     -18.2507      2.00000
      2     -18.2413      2.00000
      3      -9.8351      2.00000
      4      -9.8318      2.00000
      5      -8.3998      2.00000
      6      -8.3973      2.00000
      7      -5.9848      2.00000
      8      -5.8317      2.00000
      9       4.1039      0.00000
     10       4.1694      0.00000
     11       5.3807      0.00000
     12       5.9803      0.00000

 k-point    38 :       0.4286    0.1905    0.0000
  band No.  band energies     occupation 
      1     -17.5802      2.00000
      2     -17.5714      2.00000
      3     -10.7451      2.00000
      4     -10.7414      2.00000
      5      -9.0480      2.00000
      6      -9.0452      2.00000
      7      -5.2298      2.00000
      8      -5.0857      2.00000
      9       3.0220      0.00000
     10       3.0969      0.00000
     11       6.3026      0.00000
     12       6.9077      0.00000

 k-point    39 :       0.4762    0.1905    0.0000
  band No.  band energies     occupation 
      1     -16.8211      2.00000
      2     -16.8129      2.00000
      3     -11.7712      2.00000
      4     -11.7668      2.00000
      5      -9.4879      2.00000
      6      -9.4849      2.00000
      7      -4.4083      2.00000
      8      -4.2754      2.00000
      9       1.9333      0.00000
     10       2.0213      0.00000
     11       7.3526      0.00000
     12       7.9583      0.00000

 k-point    40 :      -0.4762    0.1905    0.0000
  band No.  band energies     occupation 
      1     -15.9900      2.00000
      2     -15.9824      2.00000
      3     -12.8199      2.00000
      4     -12.8147      2.00000
      5      -9.7592      2.00000
      6      -9.7561      2.00000
      7      -3.5856      2.00000
      8      -3.4665      2.00000
      9       0.9201      0.00000
     10       1.0242      0.00000
     11       8.5094      0.00000
     12       9.0959      0.00000

 k-point    41 :      -0.4286    0.1905    0.0000
  band No.  band energies     occupation 
      1     -15.1698      2.00000
      2     -15.1628      2.00000
      3     -13.7589      2.00000
      4     -13.7532      2.00000
      5      -9.8897      2.00000
      6      -9.8866      2.00000
      7      -2.9579      2.00000
      8      -2.8533      2.00000
      9       0.1929      0.00000
     10       0.3130      0.00000
     11       9.3961      0.00000
     12       9.4735      0.00000

 k-point    42 :       0.4762    0.2381    0.0000
  band No.  band energies     occupation 
      1     -16.8712      2.00000
      2     -16.8630      2.00000
      3     -11.4003      2.00000
      4     -11.3961      2.00000
      5      -9.8607      2.00000
      6      -9.8574      2.00000
      7      -4.4471      2.00000
      8      -4.3128      2.00000
      9       2.0580      0.00000
     10       2.1361      0.00000
     11       7.2822      0.00000
     12       7.8791      0.00000

 k-point    43 :      -0.4762    0.2381    0.0000
  band No.  band energies     occupation 
      1     -16.0828      2.00000
      2     -16.0752      2.00000
      3     -12.2147      2.00000
      4     -12.2101      2.00000
      5     -10.4086      2.00000
      6     -10.4050      2.00000
      7      -3.6148      2.00000
      8      -3.4922      2.00000
      9       1.0924      0.00000
     10       1.1782      0.00000
     11       8.3682      0.00000
     12       8.9277      0.00000

 k-point    44 :      -0.4286    0.2381    0.0000
  band No.  band energies     occupation 
      1     -15.2476      2.00000
      2     -15.2406      2.00000
      3     -13.1209      2.00000
      4     -13.1156      2.00000
      5     -10.6938      2.00000
      6     -10.6901      2.00000
      7      -2.8258      2.00000
      8      -2.7166      2.00000
      9       0.2206      0.00000
     10       0.3181      0.00000
     11       9.2920      0.00000
     12       9.6914      0.00000

 k-point    45 :      -0.3810    0.2381    0.0000
  band No.  band energies     occupation 
      1     -14.6542      2.00000
      2     -14.6476      2.00000
      3     -13.7477      2.00000
      4     -13.7420      2.00000
      5     -10.7810      2.00000
      6     -10.7773      2.00000
      7      -2.4176      2.00000
      8      -2.3177      2.00000
      9      -0.2158      0.00000
     10      -0.1095      0.00000
     11       9.4070      0.00000
     12      10.2007      0.00000

 k-point    46 :      -0.4286    0.2857    0.0000
  band No.  band energies     occupation 
      1     -15.2822      2.00000
      2     -15.2752      2.00000
      3     -12.7415      2.00000
      4     -12.7364      2.00000
      5     -11.1239      2.00000
      6     -11.1198      2.00000
      7      -2.7857      2.00000
      8      -2.6743      2.00000
      9       0.2443      0.00000
     10       0.3320      0.00000
     11       9.1418      0.00000
     12       9.6102      0.00000

 k-point    47 :      -0.3810    0.2857    0.0000
  band No.  band energies     occupation 
      1     -14.4904      2.00000
      2     -14.4840      2.00000
      3     -13.4056      2.00000
      4     -13.4001      2.00000
      5     -11.4788      2.00000
      6     -11.4746      2.00000
      7      -2.0423      2.00000
      8      -1.9419      2.00000
      9      -0.5047      0.00000
     10      -0.4108      0.00000
     11       9.1230      0.00000
     12       9.9452      0.00000

 k-point    48 :      -0.3333    0.3333    0.0000
  band No.  band energies     occupation 
      1     -13.8306      2.00000
      2     -13.8305      2.00000
      3     -13.8247      2.00000
      4     -13.8247      2.00000
      5     -11.8206      2.00000
      6     -11.8161      2.00000
      7      -1.2618      2.00000
      8      -1.2617      2.00000
      9      -1.1669      0.00000
     10      -1.1669      0.00000
     11       9.0120      0.00000
     12       9.8556      0.00000


--------------------------------------------------------------------------------------------------------


 soft charge-density along one line, spin component           1
         0         1         2         3         4         5         6         7         8         9
 total charge-density along one line
 
 pseudopotential strength for first ion, spin component:           1
 10.133   0.016  -0.000  -0.000   0.000   0.000   0.000  -0.000
  0.016  -0.002   0.000   0.000  -0.000   0.000   0.000  -0.000
 -0.000   0.000  -4.261  -0.000  -0.000  -0.017  -0.000  -0.000
 -0.000   0.000  -0.000  -4.254  -0.000  -0.000  -0.014  -0.000
  0.000  -0.000  -0.000  -0.000  -4.261  -0.000  -0.000  -0.017
  0.000   0.000  -0.017  -0.000  -0.000  -0.770  -0.000  -0.000
  0.000   0.000  -0.000  -0.014  -0.000  -0.000  -0.770  -0.000
 -0.000  -0.000  -0.000  -0.000  -0.017  -0.000  -0.000  -0.770
 total augmentation occupancy for first ion, spin component:           1
  1.469  -1.133   0.000   0.000   0.000   0.000  -0.000   0.000
 -1.133   1.076   0.000   0.000  -0.000  -0.000   0.000   0.000
  0.000   0.000   1.227   0.000   0.000   0.230   0.000   0.000
  0.000   0.000  -0.000   0.931  -0.000   0.000   0.106   0.000
  0.000  -0.000   0.000  -0.000   1.227   0.000   0.000   0.230
 -0.000   0.000   0.230   0.000   0.000   0.049  -0.000   0.000
 -0.000   0.000   0.000   0.106  -0.000  -0.000   0.014  -0.000
 -0.000   0.000   0.000   0.000   0.230   0.000   0.000   0.049


------------------------ aborting loop because EDIFF is reached ----------------------------------------


    CHARGE:  cpu time    0.0326: real time    0.0327
    FORLOC:  cpu time    0.0010: real time    0.0010
    FORNL :  cpu time    0.0493: real time    0.0494
    STRESS:  cpu time    0.2065: real time    0.2070
    FORHAR:  cpu time    0.0034: real time    0.0034
    MIXING:  cpu time    0.0006: real time    0.0006
    OFIELD:  cpu time    0.0000: real time    0.0000

  FORCE on cell =-STRESS in cart. coord.  units (eV):
  Direction    XX          YY          ZZ          XY          YZ          ZX
  --------------------------------------------------------------------------------------
  Alpha Z    12.44266    12.44266    12.44266
  Ewald    3011.96209  3011.96086 -3551.11753     0.00000     0.00000    -0.00000
  Hartree  2974.64245  2974.64244 -2952.11087    -0.00000     0.00000    -0.00000
  E(xc)     -58.45137   -58.45137   -60.79524    -0.00000    -0.00000    -0.00000
  Local   -6165.03843 -6165.03782  6290.50624    -0.00000    -0.00000     0.00000
  n-local   -14.66661   -13.59600   -12.84970     0.71429     0.00000    -0.00000
  augment    -1.56153    -1.56153    -1.42743     0.00000    -0.00000    -0.00000
  Kinetic   245.07539   236.87264   275.30716    -6.59682     0.00000    -0.00000
  Fock        0.00000     0.00000     0.00000     0.00000     0.00000     0.00000
  -------------------------------------------------------------------------------------
  Total       0.83826     0.83826    -0.04471     0.00000     0.00000     0.00000
  in kB      12.81835    12.81835    -0.68374     0.00000     0.00000     0.00000
  external pressure =        8.32 kB  Pullay stress =        0.00 kB


 VOLUME and BASIS-vectors are now :
 -----------------------------------------------------------------------------
  energy-cutoff  :      800.00
  volume of cell :      104.78
      direct lattice vectors                 reciprocal lattice vectors
     2.130000000 -1.229756000  0.000000000     0.234741784 -0.406584721  0.000000000
     2.130000000  1.229756000  0.000000000     0.234741784  0.406584721  0.000000000
     0.000000000  0.000000000 20.000000000     0.000000000  0.000000000  0.050000000

  length of vectors
     2.459512110  2.459512110 20.000000000     0.469483589  0.469483589  0.050000000


 FORCES acting on ions
    electron-ion (+dipol)            ewald-force                    non-local-force                 convergence-correction
 -----------------------------------------------------------------------------------------------
   -.880E-05 -.272E-12 0.307E+03   -.241E-03 0.688E-14 -.307E+03   -.258E-16 -.127E-16 -.126E-02   0.123E-13 -.509E-15 -.919E-04
   0.262E-03 0.849E-13 0.307E+03   0.241E-03 -.457E-14 -.307E+03   -.424E-16 0.248E-16 -.126E-02   -.415E-12 0.198E-14 -.919E-04
   -.881E-05 -.220E-13 -.307E+03   -.241E-03 0.685E-14 0.307E+03   0.209E-16 -.314E-16 0.126E-02   0.405E-12 -.546E-15 0.919E-04
   0.262E-03 0.729E-13 -.307E+03   0.241E-03 -.460E-14 0.307E+03   0.766E-17 -.336E-16 0.126E-02   -.568E-12 0.859E-15 0.919E-04
 -----------------------------------------------------------------------------------------------
   0.506E-03 -.136E-12 -.130E-03   0.858E-14 0.456E-14 0.000E+00   -.397E-16 -.530E-16 -.217E-18   -.565E-12 0.179E-14 0.143E-09
 
 
 POSITION                                       TOTAL-FORCE (eV/Angst)
 -----------------------------------------------------------------------------------
      0.00000      0.00000     19.78038        -0.000000     -0.000000      0.000010
      1.42000      0.00000     19.78038         0.000000      0.000000      0.000010
      0.00000      0.00000      4.21962        -0.000000     -0.000000     -0.000010
      1.42000      0.00000      4.21962        -0.000000      0.000000     -0.000010
 -----------------------------------------------------------------------------------
    total drift:                                0.000506     -0.000000     -0.000130


--------------------------------------------------------------------------------------------------------



  FREE ENERGIE OF THE ION-ELECTRON SYSTEM (eV)
  ---------------------------------------------------
  free  energy   TOTEN  =       -36.91776954 eV

  energy  without entropy=      -36.91776954  energy(sigma->0) =      -36.91776954
 
 d Force =-0.1544347E-08[-0.231E-08,-0.775E-09]  d Energy = 0.5555876E-09-0.210E-08
 d Force = 0.7278604E-01[ 0.728E-01, 0.728E-01]  d Ewald  = 0.7278604E-01 0.273E-11


--------------------------------------------------------------------------------------------------------


    POTLOK:  cpu time    0.0169: real time    0.0169


--------------------------------------------------------------------------------------------------------


