C-4                                     
           1
     2.130000   -1.229756    0.000000
     2.130000    1.229756    0.000000
     0.000000    0.000000   20.000000
   C 
   4
Direct configuration=     1
   0.00000000  0.00000000  0.98901900
   0.33333300  0.33333300  0.98901900
   0.00000000  0.00000000  0.21098100
   0.33333300  0.33333300  0.21098100
Direct configuration=     2
   0.00000000  0.00000000  0.98901902
   0.33333300  0.33333300  0.98901902
   0.00000000  0.00000000  0.21098098
   0.33333300  0.33333300  0.21098098
Direct configuration=     3
   0.00000000  0.00000000  0.98901904
   0.33333300  0.33333300  0.98901904
   0.00000000  0.00000000  0.21098096
   0.33333300  0.33333300  0.21098096
Direct configuration=     4
   0.00000000  0.00000000  0.98901909
   0.33333300  0.33333300  0.98901909
   0.00000000  0.00000000  0.21098091
   0.33333300  0.33333300  0.21098091
Direct configuration=     5
   0.00000000  0.00000000  0.98901918
   0.33333300  0.33333300  0.98901918
   0.00000000  0.00000000  0.21098082
   0.33333300  0.33333300  0.21098082
Direct configuration=     6
   0.00000000  0.00000000  0.98901936
   0.33333300  0.33333300  0.98901936
   0.00000000  0.00000000  0.21098064
   0.33333300  0.33333300  0.21098064
Direct configuration=     7
   0.00000000  0.00000000  0.98901974
   0.33333300  0.33333300  0.98901974
   0.00000000  0.00000000  0.21098026
   0.33333300  0.33333300  0.21098026
Direct configuration=     8
   0.00000000  0.00000000  0.98902048
   0.33333300  0.33333300  0.98902048
   0.00000000  0.00000000  0.21097952
   0.33333300  0.33333300  0.21097952
Direct configuration=     9
   0.00000000  0.00000000  0.98902196
   0.33333300  0.33333300  0.98902196
   0.00000000  0.00000000  0.21097804
   0.33333300  0.33333300  0.21097804
Direct configuration=    10
   0.00000000  0.00000000  0.98902159
   0.33333300  0.33333300  0.98902159
   0.00000000  0.00000000  0.21097841
   0.33333300  0.33333300  0.21097841
Direct configuration=    11
   0.00000000  0.00000000  0.98902193
   0.33333300  0.33333300  0.98902193
   0.00000000  0.00000000  0.21097807
   0.33333300  0.33333300  0.21097807
Direct configuration=    12
   0.00000000  0.00000000  0.98902196
   0.33333300  0.33333300  0.98902196
   0.00000000  0.00000000  0.21097804
   0.33333300  0.33333300  0.21097804
Direct configuration=    13
   0.00000000  0.00000000  0.98902196
   0.33333300  0.33333300  0.98902196
   0.00000000  0.00000000  0.21097804
   0.33333300  0.33333300  0.21097804
Direct configuration=    14
   0.00000000  0.00000000  0.98902196
   0.33333300  0.33333300  0.98902196
   0.00000000  0.00000000  0.21097804
   0.33333300  0.33333300  0.21097804
Direct configuration=    15
   0.00000000  0.00000000  0.98902196
   0.33333300  0.33333300  0.98902196
   0.00000000  0.00000000  0.21097804
   0.33333300  0.33333300  0.21097804
Direct configuration=    16
   0.00000000  0.00000000  0.98902196
   0.33333300  0.33333300  0.98902196
   0.00000000  0.00000000  0.21097804
   0.33333300  0.33333300  0.21097804
Direct configuration=    17
   0.00000000  0.00000000  0.98902196
   0.33333300  0.33333300  0.98902196
   0.00000000  0.00000000  0.21097804
   0.33333300  0.33333300  0.21097804
