   3   3   0   0
  0.6214970E+02  0.3282000E-09  0.3280428E-09  0.2000000E-08  0.5000000E-15
  1.000000000000000E-004
  CAR 
 W-1, se-2                               
      9.47945849    -17.78696033  301     -1.68841222      1.00000000
    -17.787  0.0000E+00  0.0000E+00
    -17.696  0.0000E+00  0.0000E+00
    -17.605  0.0000E+00  0.0000E+00
    -17.514  0.0000E+00  0.0000E+00
    -17.423  0.0000E+00  0.0000E+00
    -17.333  0.0000E+00  0.0000E+00
    -17.242  0.0000E+00  0.0000E+00
    -17.151  0.0000E+00  0.0000E+00
    -17.060  0.0000E+00  0.0000E+00
    -16.969  0.0000E+00  0.0000E+00
    -16.878  0.0000E+00  0.0000E+00
    -16.787  0.0000E+00  0.0000E+00
    -16.696  0.0000E+00  0.0000E+00
    -16.605  0.1039E-18  0.9441E-20
    -16.515  0.2305E-02  0.2095E-03
    -16.424  0.3993E-02  0.7597E-03
    -16.333  0.3731E-04  0.1080E-02
    -16.242  0.1072E-01  0.2055E-02
    -16.151  0.2634E-02  0.2337E-02
    -16.060  0.7484E-02  0.3118E-02
    -15.969  0.3742E-02  0.3458E-02
    -15.878  0.1288E-01  0.4629E-02
    -15.787  0.1301E-04  0.4820E-02
    -15.697  0.7642E-02  0.5514E-02
    -15.606  0.1028E-01  0.6456E-02
    -15.515  0.7719E-10  0.6859E-02
    -15.424  0.1122E-01  0.7879E-02
    -15.333  0.1177E-01  0.8950E-02
    -15.242  0.1679E-01  0.1048E-01
    -15.151  0.1994E-01  0.1281E-01
    -15.060  0.1868E-01  0.1474E-01
    -14.969  0.2245E-01  0.1678E-01
    -14.879  0.3315E-01  0.1979E-01
    -14.788  0.1580E-01  0.2128E-01
    -14.697  0.2470E-01  0.2379E-01
    -14.606  0.4255E-01  0.2826E-01
    -14.515  0.3049E-01  0.3112E-01
    -14.424  0.5303E-01  0.3657E-01
    -14.333  0.5013E-01  0.4174E-01
    -14.242  0.5075E-01  0.4691E-01
    -14.151  0.2238E-01  0.4920E-01
    -14.061  0.8563E-02  0.5000E-01
    -13.970  0.0000E+00  0.5000E-01
    -13.879  0.0000E+00  0.5000E-01
    -13.788  0.0000E+00  0.5000E-01
    -13.697  0.0000E+00  0.5000E-01
    -13.606  0.0000E+00  0.5000E-01
    -13.515  0.0000E+00  0.5000E-01
    -13.424  0.0000E+00  0.5000E-01
    -13.333  0.0000E+00  0.5000E-01
    -13.243  0.0000E+00  0.5000E-01
    -13.152  0.0000E+00  0.5000E-01
    -13.061  0.0000E+00  0.5000E-01
    -12.970  0.0000E+00  0.5000E-01
    -12.879  0.0000E+00  0.5000E-01
    -12.788  0.0000E+00  0.5000E-01
    -12.697  0.0000E+00  0.5000E-01
    -12.606  0.0000E+00  0.5000E-01
    -12.515  0.0000E+00  0.5000E-01
    -12.425  0.0000E+00  0.5000E-01
    -12.334  0.0000E+00  0.5000E-01
    -12.243  0.0000E+00  0.5000E-01
    -12.152  0.0000E+00  0.5000E-01
    -12.061  0.0000E+00  0.5000E-01
    -11.970  0.0000E+00  0.5000E-01
    -11.879  0.0000E+00  0.5000E-01
    -11.788  0.0000E+00  0.5000E-01
    -11.697  0.0000E+00  0.5000E-01
    -11.607  0.0000E+00  0.5000E-01
    -11.516  0.0000E+00  0.5000E-01
    -11.425  0.0000E+00  0.5000E-01
    -11.334  0.0000E+00  0.5000E-01
    -11.243  0.0000E+00  0.5000E-01
    -11.152  0.0000E+00  0.5000E-01
    -11.061  0.0000E+00  0.5000E-01
    -10.970  0.0000E+00  0.5000E-01
    -10.879  0.0000E+00  0.5000E-01
    -10.789  0.0000E+00  0.5000E-01
    -10.698  0.0000E+00  0.5000E-01
    -10.607  0.0000E+00  0.5000E-01
    -10.516  0.0000E+00  0.5000E-01
    -10.425  0.0000E+00  0.5000E-01
    -10.334  0.0000E+00  0.5000E-01
    -10.243  0.0000E+00  0.5000E-01
    -10.152  0.0000E+00  0.5000E-01
    -10.061  0.0000E+00  0.5000E-01
     -9.971  0.0000E+00  0.5000E-01
     -9.880  0.0000E+00  0.5000E-01
     -9.789  0.0000E+00  0.5000E-01
     -9.698  0.0000E+00  0.5000E-01
     -9.607  0.0000E+00  0.5000E-01
     -9.516  0.0000E+00  0.5000E-01
     -9.425  0.0000E+00  0.5000E-01
     -9.334  0.0000E+00  0.5000E-01
     -9.243  0.0000E+00  0.5000E-01
     -9.153  0.0000E+00  0.5000E-01
     -9.062  0.0000E+00  0.5000E-01
     -8.971  0.0000E+00  0.5000E-01
     -8.880  0.0000E+00  0.5000E-01
     -8.789  0.0000E+00  0.5000E-01
     -8.698  0.0000E+00  0.5000E-01
     -8.607  0.0000E+00  0.5000E-01
     -8.516  0.0000E+00  0.5000E-01
     -8.425  0.0000E+00  0.5000E-01
     -8.335  0.0000E+00  0.5000E-01
     -8.244  0.0000E+00  0.5000E-01
     -8.153  0.8160E-08  0.5000E-01
     -8.062  0.7485E-02  0.5068E-01
     -7.971  0.1579E-01  0.5212E-01
     -7.880  0.7709E-02  0.5282E-01
     -7.789  0.1586E-01  0.5456E-01
     -7.698  0.1235E-01  0.5628E-01
     -7.607  0.1465E-01  0.5785E-01
     -7.517  0.2122E-01  0.5981E-01
     -7.426  0.1122E-01  0.6094E-01
     -7.335  0.2735E-01  0.6343E-01
     -7.244  0.1266E-01  0.6549E-01
     -7.153  0.2644E-01  0.6845E-01
     -7.062  0.2240E-01  0.7091E-01
     -6.971  0.3430E-01  0.7404E-01
     -6.880  0.4497E-01  0.7886E-01
     -6.790  0.2654E-01  0.8229E-01
     -6.699  0.1156E-01  0.8365E-01
     -6.608  0.1254E-01  0.8510E-01
     -6.517  0.1207E-01  0.8641E-01
     -6.426  0.1108E-17  0.8668E-01
     -6.335  0.1444E-01  0.8799E-01
     -6.244  0.3108E-01  0.9086E-01
     -6.153  0.2399E-01  0.9362E-01
     -6.062  0.1831E-01  0.9594E-01
     -5.972  0.5043E-01  0.1006E+00
     -5.881  0.5130E-01  0.1061E+00
     -5.790  0.4063E-01  0.1109E+00
     -5.699  0.1863E-01  0.1126E+00
     -5.608  0.7485E-02  0.1133E+00
     -5.517  0.1294E-01  0.1145E+00
     -5.426  0.8749E-02  0.1162E+00
     -5.335  0.7495E-02  0.1168E+00
     -5.244  0.1628E-01  0.1183E+00
     -5.154  0.5083E-01  0.1232E+00
     -5.063  0.4998E-01  0.1279E+00
     -4.972  0.3096E-01  0.1309E+00
     -4.881  0.2040E-01  0.1327E+00
     -4.790  0.2225E-01  0.1352E+00
     -4.699  0.4706E-01  0.1399E+00
     -4.608  0.2440E-01  0.1423E+00
     -4.517  0.1723E-01  0.1445E+00
     -4.426  0.2548E-01  0.1468E+00
     -4.336  0.1492E-01  0.1482E+00
     -4.245  0.8943E-02  0.1491E+00
     -4.154  0.2426E-01  0.1518E+00
     -4.063  0.2718E-01  0.1548E+00
     -3.972  0.4510E-01  0.1589E+00
     -3.881  0.5761E-01  0.1644E+00
     -3.790  0.1690E-01  0.1671E+00
     -3.699  0.3819E-01  0.1707E+00
     -3.608  0.5816E-01  0.1763E+00
     -3.518  0.3755E-01  0.1809E+00
     -3.427  0.2502E-01  0.1831E+00
     -3.336  0.2282E-01  0.1853E+00
     -3.245  0.3596E-01  0.1890E+00
     -3.154  0.1895E-01  0.1907E+00
     -3.063  0.3607E-01  0.1941E+00
     -2.972  0.2475E-01  0.1964E+00
     -2.881  0.3954E-01  0.2001E+00
     -2.790  0.3829E-02  0.2007E+00
     -2.700  0.2185E-01  0.2027E+00
     -2.609  0.2842E-01  0.2053E+00
     -2.518  0.4224E-01  0.2093E+00
     -2.427  0.3822E-01  0.2136E+00
     -2.336  0.3648E-01  0.2169E+00
     -2.245  0.2546E-01  0.2197E+00
     -2.154  0.1871E-01  0.2222E+00
     -2.063  0.7485E-02  0.2228E+00
     -1.972  0.1140E-01  0.2239E+00
     -1.882  0.3576E-02  0.2242E+00
     -1.791  0.7496E-02  0.2249E+00
     -1.700  0.1232E-02  0.2250E+00
     -1.609  0.0000E+00  0.2250E+00
     -1.518  0.0000E+00  0.2250E+00
     -1.427  0.0000E+00  0.2250E+00
     -1.336  0.0000E+00  0.2250E+00
     -1.245  0.0000E+00  0.2250E+00
     -1.154  0.0000E+00  0.2250E+00
     -1.064  0.0000E+00  0.2250E+00
     -0.973  0.0000E+00  0.2250E+00
     -0.882  0.0000E+00  0.2250E+00
     -0.791  0.0000E+00  0.2250E+00
     -0.700  0.0000E+00  0.2250E+00
     -0.609  0.0000E+00  0.2250E+00
     -0.518  0.0000E+00  0.2250E+00
     -0.427  0.0000E+00  0.2250E+00
     -0.336  0.0000E+00  0.2250E+00
     -0.246  0.0000E+00  0.2250E+00
     -0.155  0.1686E-04  0.2250E+00
     -0.064  0.1978E-01  0.2268E+00
      0.027  0.2452E-01  0.2294E+00
      0.118  0.3592E-01  0.2331E+00
      0.209  0.2386E-01  0.2358E+00
      0.300  0.3391E-01  0.2391E+00
      0.391  0.2559E-01  0.2427E+00
      0.482  0.3974E-02  0.2432E+00
      0.572  0.4458E-01  0.2472E+00
      0.663  0.5515E-01  0.2526E+00
      0.754  0.5929E-01  0.2588E+00
      0.845  0.7290E-01  0.2654E+00
      0.936  0.4107E-01  0.2693E+00
      1.027  0.6471E-01  0.2758E+00
      1.118  0.3965E-01  0.2802E+00
      1.209  0.3671E-01  0.2850E+00
      1.300  0.3557E-01  0.2887E+00
      1.390  0.2150E-01  0.2909E+00
      1.481  0.2240E-01  0.2935E+00
      1.572  0.1871E-01  0.2952E+00
      1.663  0.2254E-01  0.2972E+00
      1.754  0.1257E-01  0.2984E+00
      1.845  0.2272E-01  0.3004E+00
      1.936  0.7996E-02  0.3018E+00
      2.027  0.1120E-01  0.3035E+00
      2.118  0.1507E-01  0.3048E+00
      2.208  0.3641E-02  0.3052E+00
      2.299  0.2677E-01  0.3076E+00
      2.390  0.8255E-02  0.3086E+00
      2.481  0.5830E-01  0.3148E+00
      2.572  0.3161E-01  0.3186E+00
      2.663  0.1578E-01  0.3203E+00
      2.754  0.2619E-01  0.3232E+00
      2.845  0.5202E-02  0.3237E+00
      2.936  0.7197E-02  0.3249E+00
      3.026  0.2588E-01  0.3279E+00
      3.117  0.1063E-01  0.3294E+00
      3.208  0.1520E-01  0.3308E+00
      3.299  0.1856E-01  0.3326E+00
      3.390  0.2162E-01  0.3346E+00
      3.481  0.3170E-02  0.3354E+00
      3.572  0.3020E-01  0.3381E+00
      3.663  0.1423E-01  0.3394E+00
      3.754  0.1010E-01  0.3404E+00
      3.844  0.2717E-01  0.3429E+00
      3.935  0.3725E-01  0.3466E+00
      4.026  0.2728E-01  0.3491E+00
      4.117  0.9035E-02  0.3499E+00
      4.208  0.2470E-01  0.3527E+00
      4.299  0.2613E-01  0.3563E+00
      4.390  0.1123E-01  0.3573E+00
      4.481  0.7653E-02  0.3580E+00
      4.572  0.5160E-01  0.3627E+00
      4.662  0.1869E-01  0.3645E+00
      4.753  0.2134E-02  0.3650E+00
      4.844  0.2686E-01  0.3677E+00
      4.935  0.4563E-01  0.3725E+00
      5.026  0.2243E-01  0.3745E+00
      5.117  0.4336E-01  0.3791E+00
      5.208  0.2849E-01  0.3818E+00
      5.299  0.2618E-01  0.3847E+00
      5.389  0.4495E-01  0.3888E+00
      5.480  0.3911E-01  0.3934E+00
      5.571  0.4771E-01  0.3982E+00
      5.662  0.2550E-01  0.4006E+00
      5.753  0.4826E-01  0.4051E+00
      5.844  0.2529E-01  0.4078E+00
      5.935  0.2602E-01  0.4102E+00
      6.026  0.3368E-01  0.4133E+00
      6.117  0.2589E-01  0.4156E+00
      6.207  0.5580E-01  0.4207E+00
      6.298  0.1195E-01  0.4218E+00
      6.389  0.2772E-01  0.4250E+00
      6.480  0.3574E-01  0.4285E+00
      6.571  0.1865E-01  0.4306E+00
      6.662  0.2916E-01  0.4333E+00
      6.753  0.1829E-01  0.4350E+00
      6.844  0.2956E-01  0.4377E+00
      6.935  0.2467E-01  0.4403E+00
      7.025  0.1712E-01  0.4426E+00
      7.116  0.5318E-02  0.4435E+00
      7.207  0.8681E-02  0.4444E+00
      7.298  0.0000E+00  0.4450E+00
      7.389  0.7723E-04  0.4450E+00
      7.480  0.2238E-01  0.4471E+00
      7.571  0.0000E+00  0.4471E+00
      7.662  0.0000E+00  0.4471E+00
      7.753  0.1568E-05  0.4471E+00
      7.843  0.8731E-02  0.4478E+00
      7.934  0.7620E-02  0.4485E+00
      8.025  0.7350E-02  0.4492E+00
      8.116  0.1790E-05  0.4492E+00
      8.207  0.7483E-02  0.4499E+00
      8.298  0.1247E-02  0.4500E+00
      8.389  0.0000E+00  0.4500E+00
      8.480  0.0000E+00  0.4500E+00
      8.571  0.0000E+00  0.4500E+00
      8.661  0.0000E+00  0.4500E+00
      8.752  0.0000E+00  0.4500E+00
      8.843  0.0000E+00  0.4500E+00
      8.934  0.0000E+00  0.4500E+00
      9.025  0.0000E+00  0.4500E+00
      9.116  0.0000E+00  0.4500E+00
      9.207  0.0000E+00  0.4500E+00
      9.298  0.0000E+00  0.4500E+00
      9.389  0.0000E+00  0.4500E+00
      9.479  0.0000E+00  0.4500E+00
