    3    3   80    1
  0.6214970E+02  0.3282000E-09  0.3280428E-09  0.2000000E-08  0.5000000E-15
  1.000000000000000E-004
  CAR 
 W-1, se-2                               
     18    121     18
 
  0.3742002E-15  0.3742002E-15  0.1262379E-14  0.2267574E-02
    1      -16.547578   1.000000
    2      -15.366168   1.000000
    3       -8.004613   1.000000
    4       -4.050070   1.000000
    5       -4.046201   1.000000
    6       -4.039006   1.000000
    7       -2.915230   1.000000
    8       -2.910352   1.000000
    9       -2.235985   1.000000
   10        1.228652   0.000000
   11        1.232299   0.000000
   12        1.369577   0.000000
   13        1.376094   0.000000
   14        2.499059   0.000000
   15        2.958749   0.000000
   16        3.440739   0.000000
   17        4.158870   0.000000
   18        4.909737   0.000000
 
  0.4761905E-01  0.3796665E-15  0.1262379E-14  0.9070295E-02
    1      -16.513639   1.000000
    2      -15.347349   1.000000
    3       -7.959891   1.000000
    4       -4.151856   1.000000
    5       -4.123157   1.000000
    6       -4.006640   1.000000
    7       -2.973020   1.000000
    8       -2.904882   1.000000
    9       -2.241094   1.000000
   10        1.131472   0.000000
   11        1.182784   0.000000
   12        1.292395   0.000000
   13        1.327342   0.000000
   14        2.627849   0.000000
   15        3.006341   0.000000
   16        3.540368   0.000000
   17        4.255643   0.000000
   18        4.953806   0.000000
 
  0.9523810E-01  0.3841020E-15  0.1262379E-14  0.9070295E-02
    1      -16.413129   1.000000
    2      -15.291701   1.000000
    3       -7.828528   1.000000
    4       -4.449295   1.000000
    5       -4.316479   1.000000
    6       -3.906915   1.000000
    7       -3.140799   1.000000
    8       -2.918168   1.000000
    9       -2.266477   1.000000
   10        0.803156   0.000000
   11        0.929938   0.000000
   12        1.198919   0.000000
   13        1.456475   0.000000
   14        2.860797   0.000000
   15        3.142987   0.000000
   16        3.777628   0.000000
   17        4.563108   0.000000
   18        5.081715   0.000000
 
  0.1428571E+00  0.3850610E-15  0.1262379E-14  0.9070295E-02
    1      -16.250123   1.000000
    2      -15.201738   1.000000
    3       -7.619942   1.000000
    4       -4.879727   1.000000
    5       -4.591202   1.000000
    6       -3.749314   1.000000
    7       -3.377654   1.000000
    8       -3.016420   1.000000
    9       -2.340166   1.000000
   10        0.432257   0.000000
   11        0.789259   0.000000
   12        1.022043   0.000000
   13        1.679822   0.000000
   14        3.110069   0.000000
   15        3.360439   0.000000
   16        4.050703   0.000000
   17        5.019984   0.000000
   18        5.286512   0.000000
 
  0.1904762E+00  0.3803337E-15  0.1262379E-14  0.9070295E-02
    1      -16.031696   1.000000
    2      -15.081912   1.000000
    3       -7.354317   1.000000
    4       -5.380553   1.000000
    5       -4.928864   1.000000
    6       -3.644783   1.000000
    7       -3.547539   1.000000
    8       -3.205706   1.000000
    9       -2.491125   1.000000
   10        0.180783   0.000000
   11        0.799231   0.000000
   12        0.835989   0.000000
   13        1.916449   0.000000
   14        3.387542   0.000000
   15        3.652479   0.000000
   16        4.344121   0.000000
   17        5.397714   0.000000
   18        5.558797   0.000000
 
  0.2380952E+00  0.3756063E-15  0.1262379E-14  0.9070295E-02
    1      -15.768612   1.000000
    2      -14.939010   1.000000
    3       -7.078182   1.000000
    4       -5.885054   1.000000
    5       -5.319794   1.000000
    6       -3.911738   1.000000
    7       -3.431571   1.000000
    8       -3.321560   1.000000
    9       -2.708031   1.000000
   10        0.096536   0.000000
   11        0.677071   0.000000
   12        0.951207   0.000000
   13        2.131969   0.000000
   14        3.696235   0.000000
   15        4.009828   0.000000
   16        4.661030   0.000000
   17        5.507053   0.000000
   18        5.871736   0.000000
 
  0.2857143E+00  0.4050391E-15  0.1262379E-14  0.9070295E-02
    1      -15.476276   1.000000
    2      -14.782658   1.000000
    3       -6.950786   1.000000
    4       -6.237767   1.000000
    5       -5.742295   1.000000
    6       -4.157156   1.000000
    7       -3.635553   1.000000
    8       -3.096705   1.000000
    9       -2.920832   1.000000
   10        0.160598   0.000000
   11        0.573453   0.000000
   12        1.189400   0.000000
   13        2.307363   0.000000
   14        4.009249   0.000000
   15        4.413813   0.000000
   16        4.906617   0.000000
   17        5.420983   0.000000
   18        6.087065   0.000000
 
  0.3333333E+00  0.3889250E-15  0.1262379E-14  0.9070295E-02
    1      -15.176296   1.000000
    2      -14.625692   1.000000
    3       -7.224162   1.000000
    4       -6.205124   1.000000
    5       -6.157355   1.000000
    6       -4.366638   1.000000
    7       -3.790977   1.000000
    8       -3.042532   1.000000
    9       -2.899343   1.000000
   10        0.324588   0.000000
   11        0.539712   0.000000
   12        1.452521   0.000000
   13        2.437132   0.000000
   14        4.172488   0.000000
   15        4.757265   0.000000
   16        4.819175   0.000000
   17        5.647785   0.000000
   18        5.979686   0.000000
 
  0.3809524E+00  0.4069642E-15  0.1262379E-14  0.9070295E-02
    1      -14.897952   1.000000
    2      -14.484068   1.000000
    3       -7.620141   1.000000
    4       -6.519383   1.000000
    5       -6.071716   1.000000
    6       -4.530642   1.000000
    7       -3.896431   1.000000
    8       -3.027708   1.000000
    9       -2.749353   1.000000
   10        0.544481   0.000000
   11        0.569297   0.000000
   12        1.686652   0.000000
   13        2.524682   0.000000
   14        3.748918   0.000000
   15        4.851177   0.000000
   16        5.114294   0.000000
   17        5.969404   0.000000
   18        6.106046   0.000000
 
  0.4285714E+00  0.4186057E-15  0.1262379E-14  0.9070295E-02
    1      -14.678012   1.000000
    2      -14.375531   1.000000
    3       -7.942227   1.000000
    4       -6.787115   1.000000
    5       -5.994707   1.000000
    6       -4.643010   1.000000
    7       -3.959771   1.000000
    8       -2.914922   1.000000
    9       -2.653581   1.000000
   10        0.630265   0.000000
   11        0.783471   0.000000
   12        1.852880   0.000000
   13        2.577180   0.000000
   14        3.142277   0.000000
   15        5.087765   0.000000
   16        5.234442   0.000000
   17        6.197739   0.000000
   18        6.616344   0.000000
 
  0.4761905E+00  0.3747360E-15  0.1262379E-14  0.9070295E-02
    1      -14.554876   1.000000
    2      -14.316267   1.000000
    3       -8.120703   1.000000
    4       -6.929461   1.000000
    5       -5.967966   1.000000
    6       -4.700058   1.000000
    7       -3.989087   1.000000
    8       -2.811433   1.000000
    9       -2.608381   1.000000
   10        0.677787   0.000000
   11        0.972861   0.000000
   12        1.935533   0.000000
   13        2.601446   0.000000
   14        2.718290   0.000000
   15        5.261829   0.000000
   16        5.287275   0.000000
   17        6.388834   0.000000
   18        6.906798   0.000000
 
  0.3742002E-15  0.4761905E-01  0.1262379E-14  0.4535147E-02
    1      -16.513600   1.000000
    2      -15.347308   1.000000
    3       -7.959843   1.000000
    4       -4.146683   1.000000
    5       -4.122898   1.000000
    6       -4.012068   1.000000
    7       -2.976786   1.000000
    8       -2.901428   1.000000
    9       -2.240986   1.000000
   10        1.133718   0.000000
   11        1.187581   0.000000
   12        1.289758   0.000000
   13        1.322327   0.000000
   14        2.627963   0.000000
   15        3.006388   0.000000
   16        3.540419   0.000000
   17        4.255758   0.000000
   18        4.953850   0.000000
 
  0.9523810E-01  0.4761905E-01  0.1262379E-14  0.4535147E-02
    1      -16.446442   1.000000
    2      -15.310150   1.000000
    3       -7.871830   1.000000
    4       -4.354155   1.000000
    5       -4.253663   1.000000
    6       -3.939498   1.000000
    7       -3.109611   1.000000
    8       -2.886728   1.000000
    9       -2.256267   1.000000
   10        0.913215   0.000000
   11        0.978201   0.000000
   12        1.233967   0.000000
   13        1.409456   0.000000
   14        2.797979   0.000000
   15        3.098336   0.000000
   16        3.708693   0.000000
   17        4.460875   0.000000
   18        5.039657   0.000000
 
  0.1428571E+00  0.4761905E-01  0.1262379E-14  0.9070295E-02
    1      -16.314694   1.000000
    2      -15.237347   1.000000
    3       -7.701334   1.000000
    4       -4.712809   1.000000
    5       -4.475123   1.000000
    6       -3.816012   1.000000
    7       -3.364566   1.000000
    8       -2.898341   1.000000
    9       -2.304765   1.000000
   10        0.561989   0.000000
   11        0.801533   0.000000
   12        1.068259   0.000000
   13        1.610289   0.000000
   14        3.024830   0.000000
   15        3.275627   0.000000
   16        3.957445   0.000000
   17        4.863057   0.000000
   18        5.206057   0.000000
 
  0.1904762E+00  0.4761905E-01  0.1262379E-14  0.9070295E-02
    1      -16.123892   1.000000
    2      -15.132368   1.000000
    3       -7.461959   1.000000
    4       -5.171007   1.000000
    5       -4.762336   1.000000
    6       -3.675261   1.000000
    7       -3.648095   1.000000
    8       -2.997811   1.000000
    9       -2.414098   1.000000
   10        0.262458   0.000000
   11        0.731823   0.000000
   12        0.880778   0.000000
   13        1.844921   0.000000
   14        3.284705   0.000000
   15        3.531524   0.000000
   16        4.236031   0.000000
   17        5.310432   0.000000
   18        5.445942   0.000000
 
  0.2380952E+00  0.4761905E-01  0.1262379E-14  0.9070295E-02
    1      -15.882865   1.000000
    2      -15.000751   1.000000
    3       -7.182739   1.000000
    4       -5.669131   1.000000
    5       -5.113010   1.000000
    6       -3.981039   1.000000
    7       -3.462092   1.000000
    8       -3.178484   1.000000
    9       -2.587330   1.000000
   10        0.093059   0.000000
   11        0.718546   0.000000
   12        0.811627   0.000000
   13        2.070768   0.000000
   14        3.582705   0.000000
   15        3.858128   0.000000
   16        4.546933   0.000000
   17        5.562217   0.000000
   18        5.745200   0.000000
 
  0.2857143E+00  0.4761905E-01  0.1262379E-14  0.9070295E-02
    1      -15.604521   1.000000
    2      -14.850603   1.000000
    3       -6.945304   1.000000
    4       -6.118337   1.000000
    5       -5.519511   1.000000
    6       -4.238005   1.000000
    7       -3.393767   1.000000
    8       -3.312414   1.000000
    9       -2.751983   1.000000
   10        0.066976   0.000000
   11        0.618937   0.000000
   12        1.008964   0.000000
   13        2.259625   0.000000
   14        3.909948   0.000000
   15        4.242313   0.000000
   16        4.870086   0.000000
   17        5.514513   0.000000
   18        6.053738   0.000000
 
  0.3333333E+00  0.4761905E-01  0.1262379E-14  0.9070295E-02
    1      -15.307136   1.000000
    2      -14.693055   1.000000
    3       -7.025075   1.000000
    4       -6.256775   1.000000
    5       -5.946958   1.000000
    6       -4.434223   1.000000
    7       -3.598816   1.000000
    8       -3.278309   1.000000
    9       -2.772333   1.000000
   10        0.151487   0.000000
   11        0.601601   0.000000
   12        1.267393   0.000000
   13        2.395893   0.000000
   14        4.216823   0.000000
   15        4.657944   0.000000
   16        4.913681   0.000000
   17        5.503964   0.000000
   18        6.152067   0.000000
 
  0.3809524E+00  0.4761905E-01  0.1262379E-14  0.9070295E-02
    1      -15.015923   1.000000
    2      -14.542505   1.000000
    3       -7.402479   1.000000
    4       -6.345315   1.000000
    5       -6.122176   1.000000
    6       -4.577120   1.000000
    7       -3.767212   1.000000
    8       -3.283440   1.000000
    9       -2.674037   1.000000
   10        0.309190   0.000000
   11        0.659318   0.000000
   12        1.534545   0.000000
   13        2.472067   0.000000
   14        4.120628   0.000000
   15        4.783608   0.000000
   16        5.045188   0.000000
   17        5.902204   0.000000
   18        6.070932   0.000000
 
  0.4285714E+00  0.4761905E-01  0.1262379E-14  0.9070295E-02
    1      -14.763915   1.000000
    2      -14.415958   1.000000
    3       -7.768288   1.000000
    4       -6.667698   1.000000
    5       -6.011429   1.000000
    6       -4.675516   1.000000
    7       -3.888016   1.000000
    8       -3.222662   1.000000
    9       -2.562898   1.000000
   10        0.496810   0.000000
   11        0.771462   0.000000
   12        1.769620   0.000000
   13        2.488337   0.000000
   14        3.508489   0.000000
   15        5.034870   0.000000
   16        5.310134   0.000000
   17        6.177199   0.000000
   18        6.409428   0.000000
 
  0.4761905E+00  0.4761905E-01  0.1262379E-14  0.9070295E-02
    1      -14.589512   1.000000
    2      -14.330805   1.000000
    3       -8.020684   1.000000
    4       -6.877324   1.000000
    5       -5.963640   1.000000
    6       -4.733907   1.000000
    7       -3.959266   1.000000
    8       -3.135150   1.000000
    9       -2.474118   1.000000
   10        0.632435   0.000000
   11        0.930805   0.000000
   12        1.940954   0.000000
   13        2.462065   0.000000
   14        2.952680   0.000000
   15        5.284184   0.000000
   16        5.460896   0.000000
   17        6.378863   0.000000
   18        6.873241   0.000000
 
 -0.4761905E+00  0.4761905E-01  0.1262379E-14  0.9070295E-02
    1      -14.526636   1.000000
    2      -14.300628   1.000000
    3       -8.110838   1.000000
    4       -6.950113   1.000000
    5       -5.952545   1.000000
    6       -4.753484   1.000000
    7       -3.982479   1.000000
    8       -3.096001   1.000000
    9       -2.437791   1.000000
   10        0.673496   0.000000
   11        1.029948   0.000000
   12        2.008562   0.000000
   13        2.440521   0.000000
   14        2.715120   0.000000
   15        5.396302   0.000000
   16        5.523210   0.000000
   17        6.448826   0.000000
   18        6.973514   0.000000
 
 -0.4285714E+00  0.4761905E-01  0.1262379E-14  0.9070295E-02
    1      -14.589353   1.000000
    2      -14.330680   1.000000
    3       -8.021015   1.000000
    4       -6.877557   1.000000
    5       -5.963558   1.000000
    6       -4.734283   1.000000
    7       -3.958695   1.000000
    8       -3.134005   1.000000
    9       -2.475382   1.000000
   10        0.630586   0.000000
   11        0.934323   0.000000
   12        1.939910   0.000000
   13        2.463113   0.000000
   14        2.951728   0.000000
   15        5.284277   0.000000
   16        5.460860   0.000000
   17        6.378615   0.000000
   18        6.873331   0.000000
 
 -0.3809524E+00  0.4761905E-01  0.1262379E-14  0.9070295E-02
    1      -14.763635   1.000000
    2      -14.415730   1.000000
    3       -7.768868   1.000000
    4       -6.668138   1.000000
    5       -6.011304   1.000000
    6       -4.676138   1.000000
    7       -3.887029   1.000000
    8       -3.220673   1.000000
    9       -2.564944   1.000000
   10        0.493752   0.000000
   11        0.776736   0.000000
   12        1.768025   0.000000
   13        2.489957   0.000000
   14        3.507252   0.000000
   15        5.035081   0.000000
   16        5.310097   0.000000
   17        6.176806   0.000000
   18        6.409832   0.000000
 
 -0.3333333E+00  0.4761905E-01  0.1262379E-14  0.9070295E-02
    1      -15.015574   1.000000
    2      -14.542206   1.000000
    3       -7.403147   1.000000
    4       -6.345911   1.000000
    5       -6.122086   1.000000
    6       -4.577777   1.000000
    7       -3.766062   1.000000
    8       -3.280774   1.000000
    9       -2.676594   1.000000
   10        0.307015   0.000000
   11        0.663575   0.000000
   12        1.532635   0.000000
   13        2.473997   0.000000
   14        4.119338   0.000000
   15        4.783920   0.000000
   16        5.045336   0.000000
   17        5.902656   0.000000
   18        6.070156   0.000000
 
 -0.2857143E+00  0.4761905E-01  0.1262379E-14  0.9070295E-02
    1      -15.306766   1.000000
    2      -14.692723   1.000000
    3       -7.025487   1.000000
    4       -6.256920   1.000000
    5       -5.947638   1.000000
    6       -4.434725   1.000000
    7       -3.597757   1.000000
    8       -3.275066   1.000000
    9       -2.775388   1.000000
   10        0.150384   0.000000
   11        0.604410   0.000000
   12        1.265286   0.000000
   13        2.397910   0.000000
   14        4.216520   0.000000
   15        4.658222   0.000000
   16        4.913138   0.000000
   17        5.504316   0.000000
   18        6.151333   0.000000
 
 -0.2380952E+00  0.4761905E-01  0.1262379E-14  0.9070295E-02
    1      -15.604166   1.000000
    2      -14.850271   1.000000
    3       -6.945118   1.000000
    4       -6.118859   1.000000
    5       -5.520158   1.000000
    6       -4.238307   1.000000
    7       -3.392944   1.000000
    8       -3.310211   1.000000
    9       -2.754125   1.000000
   10        0.066555   0.000000
   11        0.620623   0.000000
   12        1.006766   0.000000
   13        2.261489   0.000000
   14        3.909941   0.000000
   15        4.242626   0.000000
   16        4.870062   0.000000
   17        5.514266   0.000000
   18        6.053831   0.000000
 
 -0.1904762E+00  0.4761905E-01  0.1262379E-14  0.9070295E-02
    1      -15.882549   1.000000
    2      -15.000446   1.000000
    3       -7.182452   1.000000
    4       -5.669283   1.000000
    5       -5.113441   1.000000
    6       -3.981335   1.000000
    7       -3.461843   1.000000
    8       -3.177874   1.000000
    9       -2.587915   1.000000
   10        0.093058   0.000000
   11        0.719366   0.000000
   12        0.809495   0.000000
   13        2.072235   0.000000
   14        3.582721   0.000000
   15        3.858431   0.000000
   16        4.547008   0.000000
   17        5.562267   0.000000
   18        5.745468   0.000000
 
 -0.1428571E+00  0.4761905E-01  0.1262379E-14  0.9070295E-02
    1      -16.123632   1.000000
    2      -15.132112   1.000000
    3       -7.461692   1.000000
    4       -5.170325   1.000000
    5       -4.762375   1.000000
    6       -3.675934   1.000000
    7       -3.649391   1.000000
    8       -2.997208   1.000000
    9       -2.413936   1.000000
   10        0.263037   0.000000
   11        0.730042   0.000000
   12        0.880614   0.000000
   13        1.845728   0.000000
   14        3.284691   0.000000
   15        3.531786   0.000000
   16        4.236068   0.000000
   17        5.310738   0.000000
   18        5.446197   0.000000
 
 -0.9523810E-01  0.4761905E-01  0.1262379E-14  0.9070295E-02
    1      -16.314502   1.000000
    2      -15.237154   1.000000
    3       -7.701121   1.000000
    4       -4.710731   1.000000
    5       -4.474768   1.000000
    6       -3.818902   1.000000
    7       -3.366050   1.000000
    8       -2.897333   1.000000
    9       -2.304398   1.000000
   10        0.563761   0.000000
   11        0.800622   0.000000
   12        1.066566   0.000000
   13        1.610082   0.000000
   14        3.024803   0.000000
   15        3.275827   0.000000
   16        3.957455   0.000000
   17        4.863433   0.000000
   18        5.206256   0.000000
 
 -0.4761905E-01  0.4761905E-01  0.1262379E-14  0.9070295E-02
    1      -16.446324   1.000000
    2      -15.310030   1.000000
    3       -7.871692   1.000000
    4       -4.349869   1.000000
    5       -4.253148   1.000000
    6       -3.944446   1.000000
    7       -3.112506   1.000000
    8       -2.884466   1.000000
    9       -2.255973   1.000000
   10        0.917075   0.000000
   11        0.978990   0.000000
   12        1.229900   0.000000
   13        1.407714   0.000000
   14        2.798034   0.000000
   15        3.098465   0.000000
   16        3.708746   0.000000
   17        4.461191   0.000000
   18        5.039783   0.000000
 
  0.3742002E-15  0.9523810E-01  0.1262379E-14  0.4535147E-02
    1      -16.412971   1.000000
    2      -15.291539   1.000000
    3       -7.828342   1.000000
    4       -4.444860   1.000000
    5       -4.315651   1.000000
    6       -3.912216   1.000000
    7       -3.145021   1.000000
    8       -2.915023   1.000000
    9       -2.266031   1.000000
   10        0.807672   0.000000
   11        0.931097   0.000000
   12        1.193761   0.000000
   13        1.454098   0.000000
   14        2.860957   0.000000
   15        3.143147   0.000000
   16        3.777740   0.000000
   17        4.563537   0.000000
   18        5.081877   0.000000
 
  0.1904762E+00  0.9523810E-01  0.1262379E-14  0.4535147E-02
    1      -16.155061   1.000000
    2      -15.149442   1.000000
    3       -7.498489   1.000000
    4       -5.092222   1.000000
    5       -4.686840   1.000000
    6       -3.738163   1.000000
    7       -3.691101   1.000000
    8       -2.882886   1.000000
    9       -2.386767   1.000000
   10        0.303092   0.000000
   11        0.687461   0.000000
   12        0.878034   0.000000
   13        1.831251   0.000000
   14        3.254685   0.000000
   15        3.492324   0.000000
   16        4.204094   0.000000
   17        5.288027   0.000000
   18        5.408324   0.000000
 
  0.2380952E+00  0.9523810E-01  0.1262379E-14  0.9070295E-02
    1      -15.941331   1.000000
    2      -15.032369   1.000000
    3       -7.238128   1.000000
    4       -5.536833   1.000000
    5       -4.948228   1.000000
    6       -4.141356   1.000000
    7       -3.565759   1.000000
    8       -2.952482   1.000000
    9       -2.512587   1.000000
   10        0.094107   0.000000
   11        0.679749   0.000000
   12        0.715402   0.000000
   13        2.060670   0.000000
   14        3.536631   0.000000
   15        3.785292   0.000000
   16        4.500506   0.000000
   17        5.646571   0.000000
   18        5.679938   0.000000
 
  0.2857143E+00  0.9523810E-01  0.1262379E-14  0.9070295E-02
    1      -15.684235   1.000000
    2      -14.892800   1.000000
    3       -6.964027   1.000000
    4       -5.987295   1.000000
    5       -5.293103   1.000000
    6       -4.468049   1.000000
    7       -3.503474   1.000000
    8       -3.109816   1.000000
    9       -2.625954   1.000000
   10       -0.023495   0.000000
   11        0.639920   0.000000
   12        0.800217   0.000000
   13        2.258331   0.000000
   14        3.864675   0.000000
   15        4.143045   0.000000
   16        4.841170   0.000000
   17        5.721841   0.000000
   18        6.000511   0.000000
 
  0.3333333E+00  0.9523810E-01  0.1262379E-14  0.9070295E-02
    1      -15.399144   1.000000
    2      -14.740161   1.000000
    3       -6.854167   1.000000
    4       -6.271344   1.000000
    5       -5.716244   1.000000
    6       -4.672232   1.000000
    7       -3.553498   1.000000
    8       -3.318246   1.000000
    9       -2.643507   1.000000
   10       -0.028135   0.000000
   11        0.658756   0.000000
   12        1.015536   0.000000
   13        2.400679   0.000000
   14        4.224511   0.000000
   15        4.548574   0.000000
   16        5.144818   0.000000
   17        5.513965   0.000000
   18        6.299420   0.000000
 
  0.3809524E+00  0.9523810E-01  0.1262379E-14  0.9070295E-02
    1      -15.107462   1.000000
    2      -14.587013   1.000000
    3       -7.150523   1.000000
    4       -6.168617   1.000000
    5       -6.147441   1.000000
    6       -4.784777   1.000000
    7       -3.643187   1.000000
    8       -3.536015   1.000000
    9       -2.578723   1.000000
   10        0.085391   0.000000
   11        0.737655   0.000000
   12        1.277109   0.000000
   13        2.472980   0.000000
   14        4.520922   0.000000
   15        4.835174   0.000000
   16        4.972659   0.000000
   17        5.777371   0.000000
   18        6.402338   0.000000
 
  0.4285714E+00  0.9523810E-01  0.1262379E-14  0.9070295E-02
    1      -14.837840   1.000000
    2      -14.448914   1.000000
    3       -7.526262   1.000000
    4       -6.522099   1.000000
    5       -6.018803   1.000000
    6       -4.840051   1.000000
    7       -3.730760   1.000000
    8       -3.673622   1.000000
    9       -2.483587   1.000000
   10        0.291111   0.000000
   11        0.834962   0.000000
   12        1.545111   0.000000
   13        2.466050   0.000000
   14        4.009044   0.000000
   15        5.041669   0.000000
   16        5.369423   0.000000
   17        6.270845   0.000000
   18        6.456004   0.000000
 
  0.4761905E+00  0.9523810E-01  0.1262379E-14  0.9070295E-02
    1      -14.625655   1.000000
    2      -14.343109   1.000000
    3       -7.825897   1.000000
    4       -6.796542   1.000000
    5       -5.942395   1.000000
    6       -4.860600   1.000000
    7       -3.878181   1.000000
    8       -3.640315   1.000000
    9       -2.381237   1.000000
   10        0.507356   0.000000
   11        0.945329   0.000000
   12        1.794977   0.000000
   13        2.382315   0.000000
   14        3.366564   0.000000
   15        5.390133   0.000000
   16        5.708459   0.000000
   17        6.602215   0.000000
   18        6.805096   0.000000
 
 -0.4761905E+00  0.9523810E-01  0.1262379E-14  0.9070295E-02
    1      -14.507212   1.000000
    2      -14.285305   1.000000
    3       -7.991480   1.000000
    4       -6.941607   1.000000
    5       -5.919255   1.000000
    6       -4.864664   1.000000
    7       -3.958357   1.000000
    8       -3.601687   1.000000
    9       -2.306499   1.000000
   10        0.617686   0.000000
   11        1.076062   0.000000
   12        2.007521   0.000000
   13        2.246259   0.000000
   14        2.936948   0.000000
   15        5.651748   0.000000
   16        5.972875   0.000000
   17        6.627219   0.000000
   18        7.112512   0.000000
 
 -0.4285714E+00  0.9523810E-01  0.1262379E-14  0.9070295E-02
    1      -14.507051   1.000000
    2      -14.285178   1.000000
    3       -7.991822   1.000000
    4       -6.941842   1.000000
    5       -5.919172   1.000000
    6       -4.864938   1.000000
    7       -3.957910   1.000000
    8       -3.601044   1.000000
    9       -2.307279   1.000000
   10        0.616767   0.000000
   11        1.078735   0.000000
   12        2.006126   0.000000
   13        2.247596   0.000000
   14        2.935940   0.000000
   15        5.651947   0.000000
   16        5.973160   0.000000
   17        6.626609   0.000000
   18        7.112467   0.000000
 
 -0.3809524E+00  0.9523810E-01  0.1262379E-14  0.9070295E-02
    1      -14.625211   1.000000
    2      -14.342749   1.000000
    3       -7.826838   1.000000
    4       -6.797221   1.000000
    5       -5.942184   1.000000
    6       -4.861260   1.000000
    7       -3.877022   1.000000
    8       -3.638498   1.000000
    9       -2.383251   1.000000
   10        0.504949   0.000000
   11        0.951541   0.000000
   12        1.793017   0.000000
   13        2.384138   0.000000
   14        3.364539   0.000000
   15        5.390590   0.000000
   16        5.708823   0.000000
   17        6.601330   0.000000
   18        6.805828   0.000000
 
 -0.3333333E+00  0.9523810E-01  0.1262379E-14  0.9070295E-02
    1      -14.837205   1.000000
    2      -14.448378   1.000000
    3       -7.527564   1.000000
    4       -6.523148   1.000000
    5       -6.018562   1.000000
    6       -4.840763   1.000000
    7       -3.729273   1.000000
    8       -3.670896   1.000000
    9       -2.486260   1.000000
   10        0.289085   0.000000
   11        0.841043   0.000000
   12        1.542675   0.000000
   13        2.468330   0.000000
   14        4.006860   0.000000
   15        5.042294   0.000000
   16        5.369841   0.000000
   17        6.271801   0.000000
   18        6.454870   0.000000
 
 -0.2857143E+00  0.9523810E-01  0.1262379E-14  0.9070295E-02
    1      -15.106740   1.000000
    2      -14.586373   1.000000
    3       -7.151769   1.000000
    4       -6.168504   1.000000
    5       -6.148747   1.000000
    6       -4.785277   1.000000
    7       -3.639867   1.000000
    8       -3.534551   1.000000
    9       -2.581735   1.000000
   10        0.084126   0.000000
   11        0.742349   0.000000
   12        1.274199   0.000000
   13        2.475662   0.000000
   14        4.519953   0.000000
   15        4.834733   0.000000
   16        4.973204   0.000000
   17        5.778284   0.000000
   18        6.401105   0.000000
 
 -0.2380952E+00  0.9523810E-01  0.1262379E-14  0.9070295E-02
    1      -15.398417   1.000000
    2      -14.739487   1.000000
    3       -6.854422   1.000000
    4       -6.271931   1.000000
    5       -5.717623   1.000000
    6       -4.672456   1.000000
    7       -3.550214   1.000000
    8       -3.317023   1.000000
    9       -2.646532   1.000000
   10       -0.028879   0.000000
   11        0.662015   0.000000
   12        1.012261   0.000000
   13        2.403458   0.000000
   14        4.224779   0.000000
   15        4.549182   0.000000
   16        5.144383   0.000000
   17        5.513845   0.000000
   18        6.299389   0.000000
 
 -0.1904762E+00  0.9523810E-01  0.1262379E-14  0.9070295E-02
    1      -15.683563   1.000000
    2      -14.892155   1.000000
    3       -6.963507   1.000000
    4       -5.987958   1.000000
    5       -5.294166   1.000000