Automatically generated mesh
     121
Reciprocal lattice
    0.00000000000000    0.00000000000000    0.00000000000000             1
    0.04761904761905    0.00000000000000    0.00000000000000             4
    0.09523809523810    0.00000000000000    0.00000000000000             4
    0.14285714285714    0.00000000000000    0.00000000000000             4
    0.19047619047619    0.00000000000000    0.00000000000000             4
    0.23809523809524    0.00000000000000    0.00000000000000             4
    0.28571428571429    0.00000000000000    0.00000000000000             4
    0.33333333333333    0.00000000000000    0.00000000000000             4
    0.38095238095238    0.00000000000000    0.00000000000000             4
    0.42857142857143    0.00000000000000    0.00000000000000             4
    0.47619047619048    0.00000000000000    0.00000000000000             4
    0.00000000000000    0.04761904761905    0.00000000000000             2
    0.09523809523810    0.04761904761905    0.00000000000000             2
    0.14285714285714    0.04761904761905    0.00000000000000             4
    0.19047619047619    0.04761904761905    0.00000000000000             4
    0.23809523809524    0.04761904761905    0.00000000000000             4
    0.28571428571429    0.04761904761905    0.00000000000000             4
    0.33333333333333    0.04761904761905    0.00000000000000             4
    0.38095238095238    0.04761904761905    0.00000000000000             4
    0.42857142857143    0.04761904761905    0.00000000000000             4
    0.47619047619048    0.04761904761905    0.00000000000000             4
   -0.47619047619048    0.04761904761905    0.00000000000000             4
   -0.42857142857143    0.04761904761905    0.00000000000000             4
   -0.38095238095238    0.04761904761905    0.00000000000000             4
   -0.33333333333333    0.04761904761905    0.00000000000000             4
   -0.28571428571429    0.04761904761905    0.00000000000000             4
   -0.23809523809524    0.04761904761905    0.00000000000000             4
   -0.19047619047619    0.04761904761905    0.00000000000000             4
   -0.14285714285714    0.04761904761905    0.00000000000000             4
   -0.09523809523809    0.04761904761905    0.00000000000000             4
   -0.04761904761905    0.04761904761905    0.00000000000000             4
    0.00000000000000    0.09523809523810    0.00000000000000             2
    0.19047619047619    0.09523809523810    0.00000000000000             2
    0.23809523809524    0.09523809523810    0.00000000000000             4
    0.28571428571429    0.09523809523810    0.00000000000000             4
    0.33333333333333    0.09523809523810    0.00000000000000             4
    0.38095238095238    0.09523809523810    0.00000000000000             4
    0.42857142857143    0.09523809523810    0.00000000000000             4
    0.47619047619048    0.09523809523810    0.00000000000000             4
   -0.47619047619048    0.09523809523810    0.00000000000000             4
   -0.42857142857143    0.09523809523810    0.00000000000000             4
   -0.38095238095238    0.09523809523810    0.00000000000000             4
   -0.33333333333333    0.09523809523810    0.00000000000000             4
   -0.28571428571429    0.09523809523810    0.00000000000000             4
   -0.23809523809524    0.09523809523810    0.00000000000000             4
   -0.19047619047619    0.09523809523810    0.00000000000000             4
   -0.14285714285714    0.09523809523810    0.00000000000000             4
   -0.09523809523809    0.09523809523810    0.00000000000000             4
   -0.04761904761905    0.09523809523810    0.00000000000000             4
    0.00000000000000    0.14285714285714    0.00000000000000             2
    0.28571428571429    0.14285714285714    0.00000000000000             2
    0.33333333333333    0.14285714285714    0.00000000000000             4
    0.38095238095238    0.14285714285714    0.00000000000000             4
    0.42857142857143    0.14285714285714    0.00000000000000             4
    0.47619047619048    0.14285714285714    0.00000000000000             4
   -0.47619047619048    0.14285714285714    0.00000000000000             4
   -0.42857142857143    0.14285714285714    0.00000000000000             4
   -0.38095238095238    0.14285714285714    0.00000000000000             4
   -0.33333333333333    0.14285714285714    0.00000000000000             4
   -0.28571428571429    0.14285714285714    0.00000000000000             4
   -0.23809523809524    0.14285714285714    0.00000000000000             4
   -0.19047619047619    0.14285714285714    0.00000000000000             4
   -0.14285714285714    0.14285714285714    0.00000000000000             4
   -0.09523809523809    0.14285714285714    0.00000000000000             4
   -0.04761904761905    0.14285714285714    0.00000000000000             4
    0.00000000000000    0.19047619047619    0.00000000000000             2
    0.38095238095238    0.19047619047619    0.00000000000000             2
    0.42857142857143    0.19047619047619    0.00000000000000             4
    0.47619047619048    0.19047619047619    0.00000000000000             4
   -0.47619047619048    0.19047619047619    0.00000000000000             4
   -0.42857142857143    0.19047619047619    0.00000000000000             4
   -0.38095238095238    0.19047619047619    0.00000000000000             4
   -0.33333333333333    0.19047619047619    0.00000000000000             4
   -0.28571428571429    0.19047619047619    0.00000000000000             4
   -0.23809523809524    0.19047619047619    0.00000000000000             4
   -0.19047619047619    0.19047619047619    0.00000000000000             4
   -0.14285714285714    0.19047619047619    0.00000000000000             4
   -0.09523809523809    0.19047619047619    0.00000000000000             4
   -0.04761904761905    0.19047619047619    0.00000000000000             4
    0.00000000000000    0.23809523809524    0.00000000000000             2
    0.47619047619048    0.23809523809524    0.00000000000000             2
   -0.47619047619048    0.23809523809524    0.00000000000000             4
   -0.42857142857143    0.23809523809524    0.00000000000000             4
   -0.38095238095238    0.23809523809524    0.00000000000000             4
   -0.33333333333333    0.23809523809524    0.00000000000000             4
   -0.28571428571429    0.23809523809524    0.00000000000000             4
   -0.23809523809524    0.23809523809524    0.00000000000000             4
   -0.19047619047619    0.23809523809524    0.00000000000000             4
   -0.14285714285714    0.23809523809524    0.00000000000000             4
   -0.09523809523809    0.23809523809524    0.00000000000000             4
   -0.04761904761905    0.23809523809524    0.00000000000000             4
    0.00000000000000    0.28571428571429    0.00000000000000             2
   -0.42857142857143    0.28571428571429    0.00000000000000             2
   -0.38095238095238    0.28571428571429    0.00000000000000             4
   -0.33333333333333    0.28571428571429    0.00000000000000             4
   -0.28571428571429    0.28571428571429    0.00000000000000             4
   -0.23809523809524    0.28571428571429    0.00000000000000             4
   -0.19047619047619    0.28571428571429    0.00000000000000             4
   -0.14285714285714    0.28571428571429    0.00000000000000             4
   -0.09523809523809    0.28571428571429    0.00000000000000             4
   -0.04761904761905    0.28571428571429    0.00000000000000             4
    0.00000000000000    0.33333333333333    0.00000000000000             2
   -0.33333333333333    0.33333333333333    0.00000000000000             2
   -0.28571428571429    0.33333333333333    0.00000000000000             4
   -0.23809523809524    0.33333333333333    0.00000000000000             4
   -0.19047619047619    0.33333333333333    0.00000000000000             4
   -0.14285714285714    0.33333333333333    0.00000000000000             4
   -0.09523809523809    0.33333333333333    0.00000000000000             4
   -0.04761904761905    0.33333333333333    0.00000000000000             4
    0.00000000000000    0.38095238095238    0.00000000000000             2
   -0.23809523809524    0.38095238095238    0.00000000000000             2
   -0.19047619047619    0.38095238095238    0.00000000000000             4
   -0.14285714285714    0.38095238095238    0.00000000000000             4
   -0.09523809523809    0.38095238095238    0.00000000000000             4
   -0.04761904761905    0.38095238095238    0.00000000000000             4
    0.00000000000000    0.42857142857143    0.00000000000000             2
   -0.14285714285714    0.42857142857143    0.00000000000000             2
   -0.09523809523809    0.42857142857143    0.00000000000000             4
   -0.04761904761905    0.42857142857143    0.00000000000000             4
    0.00000000000000    0.47619047619048    0.00000000000000             2
   -0.04761904761905    0.47619047619048    0.00000000000000             2
