       N       E                     dE             d eps       ncg     rms          rms(c)
DAV:   1     0.124957695749E+03    0.12496E+03   -0.78081E+03  4356   0.104E+03
DAV:   2    -0.108453516067E+02   -0.13580E+03   -0.12823E+03  7026   0.164E+02
DAV:   3    -0.224926722220E+02   -0.11647E+02   -0.11532E+02  5790   0.535E+01
DAV:   4    -0.226841625624E+02   -0.19149E+00   -0.19133E+00  6012   0.791E+00
DAV:   5    -0.226860584974E+02   -0.18959E-02   -0.18958E-02  6186   0.671E-01    0.536E+00
DAV:   6    -0.218802577870E+02    0.80580E+00   -0.52853E+00  6534   0.926E+00    0.198E+00
DAV:   7    -0.216988681313E+02    0.18139E+00   -0.95483E-01  6618   0.426E+00    0.135E+00
DAV:   8    -0.216382111578E+02    0.60657E-01   -0.17930E-01  5520   0.231E+00    0.226E-01
DAV:   9    -0.216353543350E+02    0.28568E-02   -0.96370E-03  5622   0.552E-01    0.913E-02
DAV:  10    -0.216334419585E+02    0.19124E-02   -0.14585E-03  5682   0.180E-01    0.484E-02
DAV:  11    -0.216327036096E+02    0.73835E-03   -0.25163E-04  6372   0.700E-02    0.315E-02
DAV:  12    -0.216315020520E+02    0.12016E-02   -0.65527E-04  5802   0.992E-02    0.272E-02
DAV:  13    -0.216305573095E+02    0.94474E-03   -0.63439E-04  4716   0.926E-02    0.207E-02
DAV:  14    -0.216302871347E+02    0.27017E-03   -0.72089E-05  6288   0.351E-02    0.165E-02
DAV:  15    -0.216312589843E+02   -0.97185E-03   -0.16200E-04  4974   0.537E-02    0.153E-02
DAV:  16    -0.216320166747E+02   -0.75769E-03   -0.11632E-04  5538   0.388E-02    0.858E-03
DAV:  17    -0.216321876834E+02   -0.17101E-03   -0.13343E-05  5808   0.184E-02    0.379E-03
DAV:  18    -0.216323531343E+02   -0.16545E-03   -0.20643E-05  4992   0.142E-02    0.248E-03
DAV:  19    -0.216323787642E+02   -0.25630E-04   -0.18081E-06  5826   0.542E-03    0.694E-04
DAV:  20    -0.216323825725E+02   -0.38083E-05   -0.36352E-07  5256   0.255E-03    0.467E-04
DAV:  21    -0.216323830194E+02   -0.44691E-06   -0.34188E-08  6372   0.813E-04    0.113E-04
DAV:  22    -0.216323833384E+02   -0.31903E-06   -0.11467E-08  4860   0.403E-04    0.485E-05
DAV:  23    -0.216323833889E+02   -0.50513E-07   -0.18927E-09  5688   0.162E-04    0.167E-05
DAV:  24    -0.216323834056E+02   -0.16706E-07   -0.18448E-10  5088   0.417E-05    0.691E-06
DAV:  25    -0.216323834089E+02   -0.32201E-08   -0.28353E-11  4500   0.183E-05
   1 F= -.21632383E+02 E0= -.21632383E+02  d E =-.216324E+02
       N       E                     dE             d eps       ncg     rms          rms(c)
DAV:   1    -0.216323834093E+02   -0.36304E-08   -0.79971E-09  5232   0.422E-04    0.149E-05
DAV:   2    -0.216323834106E+02   -0.12891E-08   -0.22555E-10  3564   0.954E-05    0.652E-06
DAV:   3    -0.216323834115E+02   -0.94997E-09   -0.90564E-12  3648   0.334E-05    0.447E-06
DAV:   4    -0.216323834124E+02   -0.87243E-09    0.61809E-12  3150   0.146E-05    0.277E-06
DAV:   5    -0.216323834129E+02   -0.51705E-09    0.88601E-12  3414   0.647E-06
   2 F= -.21632383E+02 E0= -.21632383E+02  d E =-.403884E-08
       N       E                     dE             d eps       ncg     rms          rms(c)
DAV:   1    -0.216323834130E+02   -0.65381E-09    0.27537E-12  3606   0.127E-05    0.226E-06
DAV:   2    -0.216323834131E+02   -0.39449E-10    0.95372E-12  3690   0.468E-06    0.221E-06
DAV:   3    -0.216323834131E+02   -0.41496E-10    0.10158E-11  3450   0.175E-06    0.221E-06
DAV:   4    -0.216323834132E+02   -0.43087E-10    0.99828E-12  3450   0.808E-07    0.220E-06
DAV:   5    -0.216323834132E+02   -0.22624E-10    0.98437E-12  3438   0.390E-07
   3 F= -.21632383E+02 E0= -.21632383E+02  d E =-.432226E-08
       N       E                     dE             d eps       ncg     rms          rms(c)
DAV:   1    -0.216323834132E+02    0.15575E-10   -0.49832E-10  3420   0.108E-04    0.417E-06
DAV:   2    -0.216323834133E+02   -0.18383E-09   -0.23447E-11  2562   0.346E-05    0.282E-06
DAV:   3    -0.216323834135E+02   -0.15950E-09    0.79728E-12  2352   0.107E-05    0.255E-06
DAV:   4    -0.216323834136E+02   -0.15473E-09    0.93867E-12  2340   0.439E-06    0.227E-06
DAV:   5    -0.216323834137E+02   -0.78899E-10    0.10433E-11  2340   0.183E-06
   4 F= -.21632383E+02 E0= -.21632383E+02  d E =-.538762E-09
       N       E                     dE             d eps       ncg     rms          rms(c)
DAV:   1    -0.216323834137E+02   -0.60936E-10   -0.22783E-12  2292   0.167E-05    0.227E-06
DAV:   2    -0.216323834137E+02   -0.63665E-11    0.96202E-12  2280   0.542E-06    0.222E-06
DAV:   3    -0.216323834137E+02    0.31037E-10    0.10440E-11  2274   0.171E-06    0.221E-06
DAV:   4    -0.216323834137E+02    0.12392E-10    0.10201E-11  2262   0.737E-07    0.220E-06
DAV:   5    -0.216323834136E+02    0.50250E-10    0.97709E-12  2538   0.329E-07
   5 F= -.21632383E+02 E0= -.21632383E+02  d E =-.433488E-09
       N       E                     dE             d eps       ncg     rms          rms(c)
DAV:   1    -0.216323834137E+02   -0.42519E-10    0.10038E-11  2322   0.201E-06    0.220E-06
DAV:   2    -0.216323834137E+02    0.11596E-10    0.10400E-11  2256   0.655E-07    0.220E-06
DAV:   3    -0.216323834137E+02   -0.18190E-10    0.10146E-11  2388   0.212E-07    0.220E-06
DAV:   4    -0.216323834137E+02    0.77307E-11    0.96452E-12  3186   0.106E-07    0.220E-06
DAV:   5    -0.216323834137E+02   -0.47748E-11    0.11009E-11  2712   0.515E-08
   6 F= -.21632383E+02 E0= -.21632383E+02  d E =-.529894E-09
       N       E                     dE             d eps       ncg     rms          rms(c)
DAV:   1    -0.216323834137E+02   -0.30013E-10    0.10274E-11  3312   0.184E-07    0.220E-06
DAV:   2    -0.216323834137E+02    0.35584E-10    0.10557E-11  2460   0.638E-08    0.220E-06
DAV:   3    -0.216323834137E+02   -0.22510E-10    0.98073E-12  2562   0.306E-08    0.220E-06
DAV:   4    -0.216323834137E+02   -0.79581E-12    0.10475E-11  3282   0.312E-08    0.220E-06
DAV:   5    -0.216323834137E+02    0.10459E-10    0.10347E-11  3306   0.268E-08
   7 F= -.21632383E+02 E0= -.21632383E+02  d E =-.532395E-09
       N       E                     dE             d eps       ncg     rms          rms(c)
DAV:   1    -0.216323834137E+02    0.35584E-10    0.97141E-12  3372   0.639E-08    0.220E-06
DAV:   2    -0.216323834137E+02   -0.56843E-12    0.10107E-11  2736   0.177E-08    0.220E-06
DAV:   3    -0.216323834137E+02   -0.30241E-10    0.98024E-12  2232   0.648E-09    0.220E-06
DAV:   4    -0.216323834137E+02    0.27967E-10    0.95309E-12  2232   0.277E-09    0.220E-06
DAV:   5    -0.216323834137E+02   -0.81855E-11    0.96506E-12  2232   0.148E-09
   8 F= -.21632383E+02 E0= -.21632383E+02  d E =-.518298E-09
       N       E                     dE             d eps       ncg     rms          rms(c)
DAV:   1    -0.216323834137E+02    0.41837E-10    0.94792E-12  2232   0.386E-06    0.220E-06
DAV:   2    -0.216323834136E+02    0.84128E-11    0.93387E-12  2232   0.130E-06    0.220E-06
DAV:   3    -0.216323834137E+02   -0.17394E-10    0.92351E-12  2232   0.416E-07    0.220E-06
DAV:   4    -0.216323834137E+02   -0.16939E-10    0.10212E-11  2232   0.173E-07    0.220E-06
DAV:   5    -0.216323834137E+02   -0.18872E-10    0.98494E-12  2232   0.738E-08
   9 F= -.21632383E+02 E0= -.21632383E+02  d E =0.522959E-11
