 vasp.5.4.4.18Apr17-6-g9f103f2a35 (build May 31 2018 21:15:54) complex          
  
 executed on          c7_intel_O1 date 2020.08.12  12:17:31
 running on   36 total cores
 distrk:  each k-point on   36 cores,    1 groups
 distr:  one band on NCORES_PER_BAND=   6 cores,    6 groups


--------------------------------------------------------------------------------------------------------


 INCAR:
 POTCAR:   PAW_PBE W 08Apr2002                    
 POTCAR:   PAW_PBE Se 06Sep2000                   
 POTCAR:   PAW_PBE W 08Apr2002                    
   VRHFIN =W : 6s5d                                                             
   LEXCH  = PE                                                                  
   EATOM  =   204.6100 eV,   15.0384 Ry                                         
                                                                                
   TITEL  = PAW_PBE W 08Apr2002                                                 
   LULTRA =        F    use ultrasoft PP ?                                      
   IUNSCR =        1    unscreen: 0-lin 1-nonlin 2-no                           
   RPACOR =    2.330    partial core radius                                     
   POMASS =  183.850; ZVAL   =    6.000    mass and valenz                      
   RCORE  =    2.750    outmost cutoff radius                                   
   RWIGS  =    2.750; RWIGS  =    1.455    wigner-seitz radius (au A)           
   ENMAX  =  223.057; ENMIN  =  167.293 eV                                      
   RCLOC  =    2.147    cutoff for local pot                                    
   LCOR   =        T    correct aug charges                                     
   LPAW   =        T    paw PP                                                  
   EAUG   =  373.438                                                            
   DEXC   =    -.060                                                            
   RMAX   =    3.087    core radius for proj-oper                               
   RAUG   =    1.300    factor for augmentation sphere                          
   RDEP   =    2.886    radius for radial grids                                 
   QCUT   =   -4.049; QGAM   =    8.098    optimization parameters              
                                                                                
   Description                                                                  
     l     E      TYP  RCUT    TYP  RCUT                                        
     2   .000     23  2.500                                                     
     2   .000     23  2.500                                                     
     0   .000     23  2.500                                                     
     0   .000     23  2.500                                                     
     1   .200     23  2.750                                                     
     1  2.000     23  2.750                                                     
     3   .000      7   .000                                                     
  local pseudopotential read in
  partial core-charges read in
  atomic valenz-charges read in
  non local Contribution for L=           2  read in
    real space projection operators read in
  non local Contribution for L=           2  read in
    real space projection operators read in
  non local Contribution for L=           0  read in
    real space projection operators read in
  non local Contribution for L=           0  read in
    real space projection operators read in
  non local Contribution for L=           1  read in
    real space projection operators read in
  non local Contribution for L=           1  read in
    real space projection operators read in
    PAW grid and wavefunctions read in
 
   number of l-projection  operators is LMAX  =           6
   number of lm-projection operators is LMMAX =          18
 
 POTCAR:   PAW_PBE Se 06Sep2000                   
   VRHFIN =Se: s2p4                                                             
   LEXCH  = PE                                                                  
   EATOM  =   256.9644 eV,   18.8864 Ry                                         
                                                                                
   TITEL  = PAW_PBE Se 06Sep2000                                                
   LULTRA =        F    use ultrasoft PP ?                                      
   IUNSCR =        1    unscreen: 0-lin 1-nonlin 2-no                           
   RPACOR =    1.900    partial core radius                                     
   POMASS =   78.960; ZVAL   =    6.000    mass and valenz                      
   RCORE  =    2.100    outmost cutoff radius                                   
   RWIGS  =    2.200; RWIGS  =    1.164    wigner-seitz radius (au A)           
   ENMAX  =  211.534; ENMIN  =  158.651 eV                                      
   ICORE  =        3    local potential                                         
   LCOR   =        T    correct aug charges                                     
   LPAW   =        T    paw PP                                                  
   EAUG   =  446.842                                                            
   DEXC   =    -.031                                                            
   RMAX   =    3.170    core radius for proj-oper                               
   RAUG   =    1.300    factor for augmentation sphere                          
   RDEP   =    2.177    radius for radial grids                                 
   QCUT   =   -3.943; QGAM   =    7.886    optimization parameters              
                                                                                
   Description                                                                  
     l     E      TYP  RCUT    TYP  RCUT                                        
     0   .000     23  2.100                                                     
     0   .000     23  2.100                                                     
     1   .000     23  2.100                                                     
     1   .000     23  2.100                                                     
     2   .000     23  2.100                                                     
     3  -.100      7  2.100                                                     
  local pseudopotential read in
  partial core-charges read in
  atomic valenz-charges read in
  non local Contribution for L=           0  read in
    real space projection operators read in
  non local Contribution for L=           0  read in
    real space projection operators read in
  non local Contribution for L=           1  read in
    real space projection operators read in
  non local Contribution for L=           1  read in
    real space projection operators read in
  non local Contribution for L=           2  read in
    real space projection operators read in
    PAW grid and wavefunctions read in
 
   number of l-projection  operators is LMAX  =           5
   number of lm-projection operators is LMMAX =          13
 
 WARNING: PSMAXN for non-local potential too small
          PSMAXN should be >   14.4904333269122       NTYP=           1
 PAW_PBE W 08Apr2002                    :
 energy of atom  1       EATOM= -204.6100
 kinetic energy error for atom=    0.0002 (will be added to EATOM!!)
 PAW_PBE Se 06Sep2000                   :
 energy of atom  2       EATOM= -256.9644
 kinetic energy error for atom=    0.0002 (will be added to EATOM!!)
 
 
 POSCAR: WSe2 Mono                               
  positions in direct lattice
  velocities in cartesian coordinates
 exchange correlation table for  LEXCH =        8
   RHO(1)=    0.500       N(1)  =     2000
   RHO(2)=  100.500       N(2)  =     4000
 


--------------------------------------------------------------------------------------------------------


 ion  position               nearest neighbor table
   1  1.000  0.000  0.000-   2 2.54   3 2.54   2 2.54   3 2.54   2 2.54   3 2.54
   2  0.333  0.333  0.915-   1 2.54   1 2.54   1 2.54
   3  0.333  0.333  0.085-   1 2.54   1 2.54   1 2.54
 
  LATTYP: Found a base centered orthorhombic cell.
 ALAT       =     3.2820000000
 B/A-ratio  =     1.7309445460
 C/A-ratio  =     6.0938452163
  
  Lattice vectors:
  
 A1 = (  -1.6410000000,  -2.8404800000,   0.0000000000)
 A2 = (  -1.6410000000,   2.8404800000,   0.0000000000)
 A3 = (   0.0000000000,   0.0000000000, -20.0000000000)


Analysis of symmetry for initial positions (statically):
=====================================================================
 Subroutine PRICEL returns:
 Original cell was already a primitive cell.
 

 Routine SETGRP: Setting up the symmetry group for a 
 base centered orthorhombic supercell.


 Subroutine GETGRP returns: Found  4 space group operations
 (whereof  4 operations were pure point group operations)
 out of a pool of  8 trial point group operations.


The static configuration has the point symmetry C_2v.


Analysis of symmetry for dynamics (positions and initial velocities):
=====================================================================
 Subroutine PRICEL returns:
 Original cell was already a primitive cell.
 

 Routine SETGRP: Setting up the symmetry group for a 
 base centered orthorhombic supercell.


 Subroutine GETGRP returns: Found  4 space group operations
 (whereof  4 operations were pure point group operations)
 out of a pool of  8 trial point group operations.


The dynamic configuration has the point symmetry C_2v.


 Subroutine INISYM returns: Found  4 space group operations
 (whereof  4 operations are pure point group operations),
 and found     1 'primitive' translations

 
 
 KPOINTS: W-1, Se-2                               

Automatic generation of k-mesh.
Space group operators:
 irot       det(A)        alpha          n_x          n_y          n_z        tau_x        tau_y        tau_z
    1     1.000000     0.000000     1.000000     0.000000     0.000000     0.000000     0.000000     0.000000
    2    -1.000000   180.000000     0.000000     0.000000     1.000000     0.000000     0.000000     0.000000
    3     1.000000   180.000000     0.000000     1.000000     0.000000     0.000000     0.000000     0.000000
    4    -1.000000   180.000000     1.000000    -0.000000     0.000000     0.000000     0.000000     0.000000
 
 Subroutine IBZKPT returns following result:
 ===========================================
 
 Found    121 irreducible k-points:
 
 Following reciprocal coordinates:
            Coordinates               Weight
  0.000000  0.000000  0.000000      1.000000
  0.047619  0.000000  0.000000      4.000000
  0.095238  0.000000  0.000000      4.000000
  0.142857  0.000000  0.000000      4.000000
  0.190476  0.000000  0.000000      4.000000
  0.238095  0.000000  0.000000      4.000000
  0.285714  0.000000  0.000000      4.000000
  0.333333  0.000000  0.000000      4.000000
  0.380952  0.000000  0.000000      4.000000
  0.428571  0.000000  0.000000      4.000000
  0.476190  0.000000  0.000000      4.000000
  0.000000  0.047619  0.000000      2.000000
  0.095238  0.047619  0.000000      2.000000
  0.142857  0.047619  0.000000      4.000000
  0.190476  0.047619  0.000000      4.000000
  0.238095  0.047619  0.000000      4.000000
  0.285714  0.047619  0.000000      4.000000
  0.333333  0.047619  0.000000      4.000000
  0.380952  0.047619  0.000000      4.000000
  0.428571  0.047619  0.000000      4.000000
  0.476190  0.047619  0.000000      4.000000
 -0.476190  0.047619  0.000000      4.000000
 -0.428571  0.047619  0.000000      4.000000
 -0.380952  0.047619  0.000000      4.000000
 -0.333333  0.047619  0.000000      4.000000
 -0.285714  0.047619  0.000000      4.000000
 -0.238095  0.047619  0.000000      4.000000
 -0.190476  0.047619  0.000000      4.000000
 -0.142857  0.047619  0.000000      4.000000
 -0.095238  0.047619  0.000000      4.000000
 -0.047619  0.047619  0.000000      4.000000
  0.000000  0.095238  0.000000      2.000000
  0.190476  0.095238  0.000000      2.000000
  0.238095  0.095238  0.000000      4.000000
  0.285714  0.095238  0.000000      4.000000
  0.333333  0.095238  0.000000      4.000000
  0.380952  0.095238  0.000000      4.000000
  0.428571  0.095238  0.000000      4.000000
  0.476190  0.095238  0.000000      4.000000
 -0.476190  0.095238  0.000000      4.000000
 -0.428571  0.095238  0.000000      4.000000
 -0.380952  0.095238  0.000000      4.000000
 -0.333333  0.095238  0.000000      4.000000
 -0.285714  0.095238  0.000000      4.000000
 -0.238095  0.095238  0.000000      4.000000
 -0.190476  0.095238  0.000000      4.000000
 -0.142857  0.095238  0.000000      4.000000
 -0.095238  0.095238  0.000000      4.000000
 -0.047619  0.095238  0.000000      4.000000
  0.000000  0.142857  0.000000      2.000000
  0.285714  0.142857  0.000000      2.000000
  0.333333  0.142857  0.000000      4.000000
  0.380952  0.142857  0.000000      4.000000
  0.428571  0.142857  0.000000      4.000000
  0.476190  0.142857  0.000000      4.000000
 -0.476190  0.142857  0.000000      4.000000
 -0.428571  0.142857  0.000000      4.000000
 -0.380952  0.142857  0.000000      4.000000
 -0.333333  0.142857  0.000000      4.000000
 -0.285714  0.142857  0.000000      4.000000
 -0.238095  0.142857  0.000000      4.000000
 -0.190476  0.142857  0.000000      4.000000
 -0.142857  0.142857  0.000000      4.000000
 -0.095238  0.142857  0.000000      4.000000
 -0.047619  0.142857  0.000000      4.000000
  0.000000  0.190476  0.000000      2.000000
  0.380952  0.190476  0.000000      2.000000
  0.428571  0.190476  0.000000      4.000000
  0.476190  0.190476  0.000000      4.000000
 -0.476190  0.190476  0.000000      4.000000
 -0.428571  0.190476  0.000000      4.000000
 -0.380952  0.190476  0.000000      4.000000
 -0.333333  0.190476  0.000000      4.000000
 -0.285714  0.190476  0.000000      4.000000
 -0.238095  0.190476  0.000000      4.000000
 -0.190476  0.190476  0.000000      4.000000
 -0.142857  0.190476  0.000000      4.000000
 -0.095238  0.190476  0.000000      4.000000
 -0.047619  0.190476  0.000000      4.000000
  0.000000  0.238095  0.000000      2.000000
  0.476190  0.238095  0.000000      2.000000
 -0.476190  0.238095  0.000000      4.000000
 -0.428571  0.238095  0.000000      4.000000
 -0.380952  0.238095  0.000000      4.000000
 -0.333333  0.238095  0.000000      4.000000
 -0.285714  0.238095  0.000000      4.000000
 -0.238095  0.238095  0.000000      4.000000
 -0.190476  0.238095  0.000000      4.000000
 -0.142857  0.238095  0.000000      4.000000
 -0.095238  0.238095  0.000000      4.000000
 -0.047619  0.238095  0.000000      4.000000
  0.000000  0.285714  0.000000      2.000000
 -0.428571  0.285714  0.000000      2.000000
 -0.380952  0.285714  0.000000      4.000000
 -0.333333  0.285714  0.000000      4.000000
 -0.285714  0.285714  0.000000      4.000000
 -0.238095  0.285714  0.000000      4.000000
 -0.190476  0.285714  0.000000      4.000000
 -0.142857  0.285714  0.000000      4.000000
 -0.095238  0.285714  0.000000      4.000000
 -0.047619  0.285714  0.000000      4.000000
  0.000000  0.333333  0.000000      2.000000
 -0.333333  0.333333  0.000000      2.000000
 -0.285714  0.333333  0.000000      4.000000
 -0.238095  0.333333  0.000000      4.000000
 -0.190476  0.333333  0.000000      4.000000
 -0.142857  0.333333  0.000000      4.000000
 -0.095238  0.333333  0.000000      4.000000
 -0.047619  0.333333  0.000000      4.000000
  0.000000  0.380952  0.000000      2.000000
 -0.238095  0.380952  0.000000      2.000000
 -0.190476  0.380952  0.000000      4.000000
 -0.142857  0.380952  0.000000      4.000000
 -0.095238  0.380952  0.000000      4.000000
 -0.047619  0.380952  0.000000      4.000000
  0.000000  0.428571  0.000000      2.000000
 -0.142857  0.428571  0.000000      2.000000
 -0.095238  0.428571  0.000000      4.000000
 -0.047619  0.428571  0.000000      4.000000
  0.000000  0.476190  0.000000      2.000000
 -0.047619  0.476190  0.000000      2.000000
 
 Following cartesian coordinates:
            Coordinates               Weight
  0.000000  0.000000  0.000000      1.000000
  0.014509 -0.008382  0.000000      4.000000
  0.029018 -0.016764  0.000000      4.000000
  0.043527 -0.025147  0.000000      4.000000
  0.058037 -0.033529  0.000000      4.000000
  0.072546 -0.041911  0.000000      4.000000
  0.087055 -0.050293  0.000000      4.000000
  0.101564 -0.058676  0.000000      4.000000
  0.116073 -0.067058  0.000000      4.000000
  0.130582 -0.075440  0.000000      4.000000
  0.145092 -0.083822  0.000000      4.000000
  0.000000  0.016764  0.000000      2.000000
  0.029018  0.000000  0.000000      2.000000
  0.043527 -0.008382  0.000000      4.000000
  0.058037 -0.016764  0.000000      4.000000
  0.072546 -0.025147  0.000000      4.000000
  0.087055 -0.033529  0.000000      4.000000
  0.101564 -0.041911  0.000000      4.000000
  0.116073 -0.050293  0.000000      4.000000
  0.130582 -0.058676  0.000000      4.000000
  0.145092 -0.067058  0.000000      4.000000
 -0.145092  0.100587  0.000000      4.000000
 -0.130582  0.092204  0.000000      4.000000
 -0.116073  0.083822  0.000000      4.000000
 -0.101564  0.075440  0.000000      4.000000
 -0.087055  0.067058  0.000000      4.000000
 -0.072546  0.058676  0.000000      4.000000
 -0.058037  0.050293  0.000000      4.000000
 -0.043527  0.041911  0.000000      4.000000
 -0.029018  0.033529  0.000000      4.000000
 -0.014509  0.025147  0.000000      4.000000
  0.000000  0.033529  0.000000      2.000000
  0.058037 -0.000000  0.000000      2.000000
  0.072546 -0.008382  0.000000      4.000000
  0.087055 -0.016764  0.000000      4.000000
  0.101564 -0.025147  0.000000      4.000000
  0.116073 -0.033529  0.000000      4.000000
  0.130582 -0.041911  0.000000      4.000000
  0.145092 -0.050293  0.000000      4.000000
 -0.145092  0.117351  0.000000      4.000000
 -0.130582  0.108969  0.000000      4.000000
 -0.116073  0.100587  0.000000      4.000000
 -0.101564  0.092204  0.000000      4.000000
 -0.087055  0.083822  0.000000      4.000000
 -0.072546  0.075440  0.000000      4.000000
 -0.058037  0.067058  0.000000      4.000000
 -0.043527  0.058676  0.000000      4.000000
 -0.029018  0.050293  0.000000      4.000000
 -0.014509  0.041911  0.000000      4.000000
  0.000000  0.050293  0.000000      2.000000
  0.087055  0.000000  0.000000      2.000000
  0.101564 -0.008382  0.000000      4.000000
  0.116073 -0.016764  0.000000      4.000000
  0.130582 -0.025147  0.000000      4.000000
  0.145092 -0.033529  0.000000      4.000000
 -0.145092  0.134115  0.000000      4.000000
 -0.130582  0.125733  0.000000      4.000000
 -0.116073  0.117351  0.000000      4.000000
 -0.101564  0.108969  0.000000      4.000000
 -0.087055  0.100587  0.000000      4.000000
 -0.072546  0.092204  0.000000      4.000000
 -0.058037  0.083822  0.000000      4.000000
 -0.043527  0.075440  0.000000      4.000000
 -0.029018  0.067058  0.000000      4.000000
 -0.014509  0.058676  0.000000      4.000000
  0.000000  0.067058  0.000000      2.000000
  0.116073  0.000000  0.000000      2.000000
  0.130582 -0.008382  0.000000      4.000000
  0.145092 -0.016764  0.000000      4.000000
 -0.145092  0.150880  0.000000      4.000000
 -0.130582  0.142498  0.000000      4.000000
 -0.116073  0.134115  0.000000      4.000000
 -0.101564  0.125733  0.000000      4.000000
 -0.087055  0.117351  0.000000      4.000000
 -0.072546  0.108969  0.000000      4.000000
 -0.058037  0.100587  0.000000      4.000000
 -0.043527  0.092204  0.000000      4.000000
 -0.029018  0.083822  0.000000      4.000000
 -0.014509  0.075440  0.000000      4.000000
  0.000000  0.083822  0.000000      2.000000
  0.145092  0.000000  0.000000      2.000000
 -0.145092  0.167644  0.000000      4.000000
 -0.130582  0.159262  0.000000      4.000000
 -0.116073  0.150880  0.000000      4.000000
 -0.101564  0.142498  0.000000      4.000000
 -0.087055  0.134115  0.000000      4.000000
 -0.072546  0.125733  0.000000      4.000000
 -0.058037  0.117351  0.000000      4.000000
 -0.043527  0.108969  0.000000      4.000000
 -0.029018  0.100587  0.000000      4.000000
 -0.014509  0.092204  0.000000      4.000000
  0.000000  0.100587  0.000000      2.000000
 -0.130582  0.176027  0.000000      2.000000
 -0.116073  0.167644  0.000000      4.000000
 -0.101564  0.159262  0.000000      4.000000
 -0.087055  0.150880  0.000000      4.000000
 -0.072546  0.142498  0.000000      4.000000
 -0.058037  0.134115  0.000000      4.000000
 -0.043527  0.125733  0.000000      4.000000
 -0.029018  0.117351  0.000000      4.000000
 -0.014509  0.108969  0.000000      4.000000
  0.000000  0.117351  0.000000      2.000000
 -0.101564  0.176027  0.000000      2.000000
 -0.087055  0.167644  0.000000      4.000000
 -0.072546  0.159262  0.000000      4.000000
 -0.058037  0.150880  0.000000      4.000000
 -0.043527  0.142498  0.000000      4.000000
 -0.029018  0.134115  0.000000      4.000000
 -0.014509  0.125733  0.000000      4.000000
  0.000000  0.134115  0.000000      2.000000
 -0.072546  0.176027  0.000000      2.000000
 -0.058037  0.167644  0.000000      4.000000
 -0.043527  0.159262  0.000000      4.000000
 -0.029018  0.150880  0.000000      4.000000
 -0.014509  0.142498  0.000000      4.000000
  0.000000  0.150880  0.000000      2.000000
 -0.043527  0.176027  0.000000      2.000000
 -0.029018  0.167644  0.000000      4.000000
 -0.014509  0.159262  0.000000      4.000000
  0.000000  0.167644  0.000000      2.000000
 -0.014509  0.176027  0.000000      2.000000
 


--------------------------------------------------------------------------------------------------------




 Dimension of arrays:
   k-points           NKPTS =    121   k-points in BZ     NKDIM =    121   number of bands    NBANDS=     18
   number of dos      NEDOS =    301   number of ions     NIONS =      3
   non local maximal  LDIM  =      6   non local SUM 2l+1 LMDIM =     18
   total plane-waves  NPLWV = 172800
   max r-space proj   IRMAX =      1   max aug-charges    IRDMAX= 423367
   dimension x,y,z NGX =    30 NGY =   30 NGZ =  192
   dimension x,y,z NGXF=    60 NGYF=   60 NGZF=  384
   support grid    NGXF=   120 NGYF=  120 NGZF=  768
   ions per type =               1   2
   NGX,Y,Z   is equivalent  to a cutoff of  15.20, 15.20, 15.96 a.u.
   NGXF,Y,Z  is equivalent  to a cutoff of  30.39, 30.41, 31.92 a.u.

 SYSTEM =  W-1, se-2                               
 POSCAR =  WSe2 Mono                               

 Startparameter for this run:
   NWRITE =      2    write-flag & timer
   PREC   = accura    normal or accurate (medium, high low for compatibility)
   ISTART =      0    job   : 0-new  1-cont  2-samecut
   ICHARG =      2    charge: 1-file 2-atom 10-const
   ISPIN  =      1    spin polarized calculation?
   LNONCOLLINEAR =      F non collinear calculations
   LSORBIT =      F    spin-orbit coupling
   INIWAV =      1    electr: 0-lowe 1-rand  2-diag
   LASPH  =      F    aspherical Exc in radial PAW
   METAGGA=      F    non-selfconsistent MetaGGA calc.

 Electronic Relaxation 1
   ENCUT  =  800.0 eV  58.80 Ry    7.67 a.u.   7.57  7.57 46.12*2*pi/ulx,y,z
   ENINI  =  800.0     initial cutoff
   ENAUG  =  446.8 eV  augmentation charge cutoff
   NELM   =     60;   NELMIN=  5; NELMDL= -5     # of ELM steps 
   EDIFF  = 0.1E-07   stopping-criterion for ELM
   LREAL  =      F    real-space projection
   NLSPLINE    = F    spline interpolate recip. space projectors
   LCOMPAT=      F    compatible to vasp.4.4
   GGA_COMPAT  = T    GGA compatible to vasp.4.4-vasp.4.6
   LMAXPAW     = -100 max onsite density
   LMAXMIX     =    2 max onsite mixed and CHGCAR
   VOSKOWN=      0    Vosko Wilk Nusair interpolation
   ROPT   =    0.00000   0.00000
 Ionic relaxation
   EDIFFG = -.1E-07   stopping-criterion for IOM
   NSW    =     80    number of steps for IOM
   NBLOCK =      1;   KBLOCK =     80    inner block; outer block 
   IBRION =      2    ionic relax: 0-MD 1-quasi-New 2-CG
   NFREE  =      1    steps in history (QN), initial steepest desc. (CG)
   ISIF   =      2    stress and relaxation
   IWAVPR =     11    prediction:  0-non 1-charg 2-wave 3-comb
   ISYM   =      2    0-nonsym 1-usesym 2-fastsym
   LCORR  =      T    Harris-Foulkes like correction to forces

   POTIM  = 0.5000    time-step for ionic-motion
   TEIN   =    0.0    initial temperature
   TEBEG  =    0.0;   TEEND  =   0.0 temperature during run
   SMASS  =  -3.00    Nose mass-parameter (am)
   estimated Nose-frequenzy (Omega)   =  0.10E-29 period in steps =****** mass=  -0.246E-27a.u.
   SCALEE = 1.0000    scale energy and forces
   NPACO  =    256;   APACO  = 16.0  distance and # of slots for P.C.
   PSTRESS=    0.0 pullay stress

  Mass of Ions in am
   POMASS = 183.85 78.96
  Ionic Valenz
   ZVAL   =   6.00  6.00
  Atomic Wigner-Seitz radii
   RWIGS  =  -1.00 -1.00
  virtual crystal weights 
   VCA    =   1.00  1.00
   NELECT =      18.0000    total number of electrons
   NUPDOWN=      -1.0000    fix difference up-down

 DOS related values:
   EMIN   =  10.00;   EMAX   =-10.00  energy-range for DOS
   EFERMI =   0.00
   ISMEAR =     0;   SIGMA  =   0.01  broadening in eV -4-tet -1-fermi 0-gaus

 Electronic relaxation 2 (details)
   IALGO  =     38    algorithm
   LDIAG  =      T    sub-space diagonalisation (order eigenvalues)
   LSUBROT=      F    optimize rotation matrix (better conditioning)
   TURBO    =      0    0=normal 1=particle mesh
   IRESTART =      0    0=no restart 2=restart with 2 vectors
   NREBOOT  =      0    no. of reboots
   NMIN     =      0    reboot dimension
   EREF     =   0.00    reference energy to select bands
   IMIX   =      4    mixing-type and parameters
     AMIX     =   0.40;   BMIX     =  1.00
     AMIX_MAG =   1.60;   BMIX_MAG =  1.00
     AMIN     =   0.01
     WC   =   100.;   INIMIX=   1;  MIXPRE=   1;  MAXMIX= -45

 Intra band minimization:
   WEIMIN = 0.0010     energy-eigenvalue tresh-hold
   EBREAK =  0.14E-10  absolut break condition
   DEPER  =   0.30     relativ break condition  

   TIME   =   0.40     timestep for ELM

  volume/ion in A,a.u.               =      62.15       419.41
  Fermi-wavevector in a.u.,A,eV,Ry     =   0.751010  1.419203  7.673898  0.564016
  Thomas-Fermi vector in A             =   1.847892
 
 Write flags
   LWAVE        =      F    write WAVECAR
   LDOWNSAMPLE  =      F    k-point downsampling of WAVECAR
   LCHARG       =      T    write CHGCAR
   LVTOT        =      F    write LOCPOT, total local potential
   LVHAR        =      F    write LOCPOT, Hartree potential only
   LELF         =      F    write electronic localiz. function (ELF)
   LORBIT       =      0    0 simple, 1 ext, 2 COOP (PROOUT), +10 PAW based schemes


 Dipole corrections
   LMONO  =      F    monopole corrections only (constant potential shift)
   LDIPOL =      F    correct potential (dipole corrections)
   IDIPOL =      0    1-x, 2-y, 3-z, 4-all directions 
   EPSILON=  1.0000000 bulk dielectric constant

 Exchange correlation treatment:
   GGA     =    --    GGA type
   LEXCH   =     8    internal setting for exchange type
   VOSKOWN=      0    Vosko Wilk Nusair interpolation
   LHFCALC =     F    Hartree Fock is set to
   LHFONE  =     F    Hartree Fock one center treatment
   AEXX    =    0.0000 exact exchange contribution

 Linear response parameters
   LEPSILON=     F    determine dielectric tensor
   LRPA    =     F    only Hartree local field effects (RPA)
   LNABLA  =     F    use nabla operator in PAW spheres
   LVEL    =     F    velocity operator in full k-point grid
   LINTERFAST=   F  fast interpolation
   KINTER  =     0    interpolate to denser k-point grid
   CSHIFT  =0.1000    complex shift for real part using Kramers Kronig
   OMEGAMAX=  -1.0    maximum frequency
   DEG_THRESHOLD= 0.2000000E-02 threshold for treating states as degnerate
   RTIME   =   -0.100 relaxation time in fs
  (WPLASMAI=    0.000 imaginary part of plasma frequency in eV, 0.658/RTIME)
   DFIELD  = 0.0000000 0.0000000 0.0000000 field for delta impulse in time
 
 Orbital magnetization related:
   ORBITALMAG=     F  switch on orbital magnetization
   LCHIMAG   =     F  perturbation theory with respect to B field
   DQ        =  0.001000  dq finite difference perturbation B field
   LLRAUG    =     F  two centre corrections for induced B field



--------------------------------------------------------------------------------------------------------


 conjugate gradient relaxation of ions
 charge density and potential will be updated during run
 non-spin polarized calculation
 Variant of blocked Davidson
 Davidson routine will perform the subspace rotation
 perform sub-space diagonalisation
    after iterative eigenvector-optimisation
 modified Broyden-mixing scheme, WC =      100.0
 initial mixing is a Kerker type mixing with AMIX =  0.4000 and BMIX =      1.0000
 Hartree-type preconditioning will be used
 using additional bands            9
 reciprocal scheme for non local part
 use partial core corrections
 calculate Harris-corrections to forces 
   (improved forces if not selfconsistent)
 use gradient corrections 
 use of overlap-Matrix (Vanderbilt PP)
 Gauss-broadening in eV      SIGMA  =   0.01


--------------------------------------------------------------------------------------------------------


  energy-cutoff  :      800.00
  volume of cell :      186.45
      direct lattice vectors                 reciprocal lattice vectors
     3.282000000  0.000000000  0.000000000     0.304692261 -0.176026587  0.000000000
     1.641000000  2.840480000  0.000000000     0.000000000  0.352053174  0.000000000
     0.000000000  0.000000000 20.000000000     0.000000000  0.000000000  0.050000000

  length of vectors
     3.282000000  3.280427965 20.000000000     0.351884545  0.352053174  0.050000000


 
 k-points in units of 2pi/SCALE and weight: W-1, Se-2                               
   0.00000000  0.00000000  0.00000000       0.002
   0.01450916 -0.00838222  0.00000000       0.009
   0.02901831 -0.01676444  0.00000000       0.009
   0.04352747 -0.02514666  0.00000000       0.009
   0.05803662 -0.03352887  0.00000000       0.009
   0.07254578 -0.04191109  0.00000000       0.009
   0.08705493 -0.05029331  0.00000000       0.009
   0.10156409 -0.05867553  0.00000000       0.009
   0.11607324 -0.06705775  0.00000000       0.009
   0.13058240 -0.07543997  0.00000000       0.009
   0.14509155 -0.08382218  0.00000000       0.009
   0.00000000  0.01676444  0.00000000       0.005
   0.02901831  0.00000000  0.00000000       0.005
   0.04352747 -0.00838222  0.00000000       0.009
   0.05803662 -0.01676444  0.00000000       0.009
   0.07254578 -0.02514666  0.00000000       0.009
   0.08705493 -0.03352887  0.00000000       0.009
   0.10156409 -0.04191109  0.00000000       0.009
   0.11607324 -0.05029331  0.00000000       0.009
   0.13058240 -0.05867553  0.00000000       0.009
   0.14509155 -0.06705775  0.00000000       0.009
  -0.14509155  0.10058662  0.00000000       0.009
  -0.13058240  0.09220440  0.00000000       0.009
  -0.11607324  0.08382218  0.00000000       0.009
  -0.10156409  0.07543997  0.00000000       0.009
  -0.08705493  0.06705775  0.00000000       0.009
  -0.07254578  0.05867553  0.00000000       0.009
  -0.05803662  0.05029331  0.00000000       0.009
  -0.04352747  0.04191109  0.00000000       0.009
  -0.02901831  0.03352887  0.00000000       0.009
  -0.01450916  0.02514666  0.00000000       0.009
   0.00000000  0.03352887  0.00000000       0.005
   0.05803662 -0.00000000  0.00000000       0.005
   0.07254578 -0.00838222  0.00000000       0.009
   0.08705493 -0.01676444  0.00000000       0.009
   0.10156409 -0.02514666  0.00000000       0.009
   0.11607324 -0.03352887  0.00000000       0.009
   0.13058240 -0.04191109  0.00000000       0.009
   0.14509155 -0.05029331  0.00000000       0.009
  -0.14509155  0.11735106  0.00000000       0.009
  -0.13058240  0.10896884  0.00000000       0.009
  -0.11607324  0.10058662  0.00000000       0.009
  -0.10156409  0.09220440  0.00000000       0.009
  -0.08705493  0.08382218  0.00000000       0.009
  -0.07254578  0.07543997  0.00000000       0.009
  -0.05803662  0.06705775  0.00000000       0.009
  -0.04352747  0.05867553  0.00000000       0.009
  -0.02901831  0.05029331  0.00000000       0.009
  -0.01450916  0.04191109  0.00000000       0.009
   0.00000000  0.05029331  0.00000000       0.005
   0.08705493  0.00000000  0.00000000       0.005
   0.10156409 -0.00838222  0.00000000       0.009
   0.11607324 -0.01676444  0.00000000       0.009
   0.13058240 -0.02514666  0.00000000       0.009
   0.14509155 -0.03352887  0.00000000       0.009
  -0.14509155  0.13411549  0.00000000       0.009
  -0.13058240  0.12573328  0.00000000       0.009
  -0.11607324  0.11735106  0.00000000       0.009
  -0.10156409  0.10896884  0.00000000       0.009
  -0.08705493  0.10058662  0.00000000       0.009
  -0.07254578  0.09220440  0.00000000       0.009
  -0.05803662  0.08382218  0.00000000       0.009
  -0.04352747  0.07543997  0.00000000       0.009
  -0.02901831  0.06705775  0.00000000       0.009
  -0.01450916  0.05867553  0.00000000       0.009
   0.00000000  0.06705775  0.00000000       0.005
   0.11607324  0.00000000  0.00000000       0.005
   0.13058240 -0.00838222  0.00000000       0.009
   0.14509155 -0.01676444  0.00000000       0.009
  -0.14509155  0.15087993  0.00000000       0.009
  -0.13058240  0.14249771  0.00000000       0.009
  -0.11607324  0.13411549  0.00000000       0.009
  -0.10156409  0.12573328  0.00000000       0.009
  -0.08705493  0.11735106  0.00000000       0.009
  -0.07254578  0.10896884  0.00000000       0.009
  -0.05803662  0.10058662  0.00000000       0.009
  -0.04352747  0.09220440  0.00000000       0.009
  -0.02901831  0.08382218  0.00000000       0.009
  -0.01450916  0.07543997  0.00000000       0.009
   0.00000000  0.08382218  0.00000000       0.005
   0.14509155  0.00000000  0.00000000       0.005
  -0.14509155  0.16764437  0.00000000       0.009
  -0.13058240  0.15926215  0.00000000       0.009
  -0.11607324  0.15087993  0.00000000       0.009
  -0.10156409  0.14249771  0.00000000       0.009
  -0.08705493  0.13411549  0.00000000       0.009
  -0.07254578  0.12573328  0.00000000       0.009
  -0.05803662  0.11735106  0.00000000       0.009
  -0.04352747  0.10896884  0.00000000       0.009
  -0.02901831  0.10058662  0.00000000       0.009
  -0.01450916  0.09220440  0.00000000       0.009
   0.00000000  0.10058662  0.00000000       0.005
  -0.13058240  0.17602659  0.00000000       0.005
  -0.11607324  0.16764437  0.00000000       0.009
  -0.10156409  0.15926215  0.00000000       0.009
  -0.08705493  0.15087993  0.00000000       0.009
  -0.07254578  0.14249771  0.00000000       0.009
  -0.05803662  0.13411549  0.00000000       0.009
  -0.04352747  0.12573328  0.00000000       0.009
  -0.02901831  0.11735106  0.00000000       0.009
  -0.01450916  0.10896884  0.00000000       0.009
   0.00000000  0.11735106  0.00000000       0.005
  -0.10156409  0.17602659  0.00000000       0.005
  -0.08705493  0.16764437  0.00000000       0.009
  -0.07254578  0.15926215  0.00000000       0.009
  -0.05803662  0.15087993  0.00000000       0.009
  -0.04352747  0.14249771  0.00000000       0.009
  -0.02901831  0.13411549  0.00000000       0.009
  -0.01450916  0.12573328  0.00000000       0.009
   0.00000000  0.13411549  0.00000000       0.005
  -0.07254578  0.17602659  0.00000000       0.005
  -0.05803662  0.16764437  0.00000000       0.009
  -0.04352747  0.15926215  0.00000000       0.009
  -0.02901831  0.15087993  0.00000000       0.009
  -0.01450916  0.14249771  0.00000000       0.009
   0.00000000  0.15087993  0.00000000       0.005
  -0.04352747  0.17602659  0.00000000       0.005
  -0.02901831  0.16764437  0.00000000       0.009
  -0.01450916  0.15926215  0.00000000       0.009
   0.00000000  0.16764437  0.00000000       0.005
  -0.01450916  0.17602659  0.00000000       0.005
 
 k-points in reciprocal lattice and weights: W-1, Se-2                               
   0.00000000  0.00000000  0.00000000       0.002
   0.04761905  0.00000000  0.00000000       0.009
   0.09523810  0.00000000  0.00000000       0.009
   0.14285714  0.00000000  0.00000000       0.009
   0.19047619  0.00000000  0.00000000       0.009
   0.23809524  0.00000000  0.00000000       0.009
   0.28571429  0.00000000  0.00000000       0.009
   0.33333333  0.00000000  0.00000000       0.009
   0.38095238  0.00000000  0.00000000       0.009
   0.42857143  0.00000000  0.00000000       0.009
   0.47619048  0.00000000  0.00000000       0.009
   0.00000000  0.04761905  0.00000000       0.005
   0.09523810  0.04761905  0.00000000       0.005
   0.14285714  0.04761905  0.00000000       0.009
   0.19047619  0.04761905  0.00000000       0.009
   0.23809524  0.04761905  0.00000000       0.009
   0.28571429  0.04761905  0.00000000       0.009
   0.33333333  0.04761905  0.00000000       0.009
   0.38095238  0.04761905  0.00000000       0.009
   0.42857143  0.04761905  0.00000000       0.009
   0.47619048  0.04761905  0.00000000       0.009
  -0.47619048  0.04761905  0.00000000       0.009
  -0.42857143  0.04761905  0.00000000       0.009
  -0.38095238  0.04761905  0.00000000       0.009
  -0.33333333  0.04761905  0.00000000       0.009
  -0.28571429  0.04761905  0.00000000       0.009
  -0.23809524  0.04761905  0.00000000       0.009
  -0.19047619  0.04761905  0.00000000       0.009
  -0.14285714  0.04761905  0.00000000       0.009
  -0.09523810  0.04761905  0.00000000       0.009
  -0.04761905  0.04761905  0.00000000       0.009
   0.00000000  0.09523810  0.00000000       0.005
   0.19047619  0.09523810  0.00000000       0.005
   0.23809524  0.09523810  0.00000000       0.009
   0.28571429  0.09523810  0.00000000       0.009
   0.33333333  0.09523810  0.00000000       0.009
   0.38095238  0.09523810  0.00000000       0.009
   0.42857143  0.09523810  0.00000000       0.009
   0.47619048  0.09523810  0.00000000       0.009
  -0.47619048  0.09523810  0.00000000       0.009
  -0.42857143  0.09523810  0.00000000       0.009
  -0.38095238  0.09523810  0.00000000       0.009
  -0.33333333  0.09523810  0.00000000       0.009
  -0.28571429  0.09523810  0.00000000       0.009
  -0.23809524  0.09523810  0.00000000       0.009
  -0.19047619  0.09523810  0.00000000       0.009
  -0.14285714  0.09523810  0.00000000       0.009
  -0.09523810  0.09523810  0.00000000       0.009
  -0.04761905  0.09523810  0.00000000       0.009
   0.00000000  0.14285714  0.00000000       0.005
   0.28571429  0.14285714  0.00000000       0.005
   0.33333333  0.14285714  0.00000000       0.009
   0.38095238  0.14285714  0.00000000       0.009
   0.42857143  0.14285714  0.00000000       0.009
   0.47619048  0.14285714  0.00000000       0.009
  -0.47619048  0.14285714  0.00000000       0.009
  -0.42857143  0.14285714  0.00000000       0.009
  -0.38095238  0.14285714  0.00000000       0.009
  -0.33333333  0.14285714  0.00000000       0.009
  -0.28571429  0.14285714  0.00000000       0.009
  -0.23809524  0.14285714  0.00000000       0.009
  -0.19047619  0.14285714  0.00000000       0.009
  -0.14285714  0.14285714  0.00000000       0.009
  -0.09523810  0.14285714  0.00000000       0.009
  -0.04761905  0.14285714  0.00000000       0.009
   0.00000000  0.19047619  0.00000000       0.005
   0.38095238  0.19047619  0.00000000       0.005
   0.42857143  0.19047619  0.00000000       0.009
   0.47619048  0.19047619  0.00000000       0.009
  -0.47619048  0.19047619  0.00000000       0.009
  -0.42857143  0.19047619  0.00000000       0.009
  -0.38095238  0.19047619  0.00000000       0.009
  -0.33333333  0.19047619  0.00000000       0.009
  -0.28571429  0.19047619  0.00000000       0.009
  -0.23809524  0.19047619  0.00000000       0.009
  -0.19047619  0.19047619  0.00000000       0.009
  -0.14285714  0.19047619  0.00000000       0.009
  -0.09523810  0.19047619  0.00000000       0.009
  -0.04761905  0.19047619  0.00000000       0.009
   0.00000000  0.23809524  0.00000000       0.005
   0.47619048  0.23809524  0.00000000       0.005
  -0.47619048  0.23809524  0.00000000       0.009
  -0.42857143  0.23809524  0.00000000       0.009
  -0.38095238  0.23809524  0.00000000       0.009
  -0.33333333  0.23809524  0.00000000       0.009
  -0.28571429  0.23809524  0.00000000       0.009
  -0.23809524  0.23809524  0.00000000       0.009
  -0.19047619  0.23809524  0.00000000       0.009
  -0.14285714  0.23809524  0.00000000       0.009
  -0.09523810  0.23809524  0.00000000       0.009
  -0.04761905  0.23809524  0.00000000       0.009
   0.00000000  0.28571429  0.00000000       0.005
  -0.42857143  0.28571429  0.00000000       0.005
  -0.38095238  0.28571429  0.00000000       0.009
  -0.33333333  0.28571429  0.00000000       0.009
  -0.28571429  0.28571429  0.00000000       0.009
  -0.23809524  0.28571429  0.00000000       0.009
  -0.19047619  0.28571429  0.00000000       0.009
  -0.14285714  0.28571429  0.00000000       0.009
  -0.09523810  0.28571429  0.00000000       0.009
  -0.04761905  0.28571429  0.00000000       0.009
   0.00000000  0.33333333  0.00000000       0.005
  -0.33333333  0.33333333  0.00000000       0.005
  -0.28571429  0.33333333  0.00000000       0.009
  -0.23809524  0.33333333  0.00000000       0.009
  -0.19047619  0.33333333  0.00000000       0.009
  -0.14285714  0.33333333  0.00000000       0.009
  -0.09523810  0.33333333  0.00000000       0.009
  -0.04761905  0.33333333  0.00000000       0.009
   0.00000000  0.38095238  0.00000000       0.005
  -0.23809524  0.38095238  0.00000000       0.005
  -0.19047619  0.38095238  0.00000000       0.009
  -0.14285714  0.38095238  0.00000000       0.009
  -0.09523810  0.38095238  0.00000000       0.009
  -0.04761905  0.38095238  0.00000000       0.009
   0.00000000  0.42857143  0.00000000       0.005
  -0.14285714  0.42857143  0.00000000       0.005
  -0.09523810  0.42857143  0.00000000       0.009
  -0.04761905  0.42857143  0.00000000       0.009
   0.00000000  0.47619048  0.00000000       0.005
  -0.04761905  0.47619048  0.00000000       0.005
 
 position of ions in fractional coordinates (direct lattice) 
   0.99990000  0.00020000  0.00000000
   0.33327700  0.33344600  0.91545900
   0.33327700  0.33344600  0.08454100
 
 position of ions in cartesian coordinates  (Angst):
   3.28200000  0.00056810  0.00000000
   1.64100000  0.94714669 18.30918000
   1.64100000  0.94714669  1.69082000
 


--------------------------------------------------------------------------------------------------------


 k-point  1 :   0.0000 0.0000 0.0000  plane waves:    9575
 k-point  2 :   0.0476 0.0000 0.0000  plane waves:    9605
 k-point  3 :   0.0952 0.0000 0.0000  plane waves:    9617
 k-point  4 :   0.1429 0.0000 0.0000  plane waves:    9633
 k-point  5 :   0.1905 0.0000 0.0000  plane waves:    9629
 k-point  6 :   0.2381 0.0000 0.0000  plane waves:    9641
 k-point  7 :   0.2857 0.0000 0.0000  plane waves:    9615
 k-point  8 :   0.3333 0.0000 0.0000  plane waves:    9595
 k-point  9 :   0.3810 0.0000 0.0000  plane waves:    9581
 k-point 10 :   0.4286 0.0000 0.0000  plane waves:    9545
 k-point 11 :   0.4762 0.0000 0.0000  plane waves:    9540
 k-point 12 :   0.0000 0.0476 0.0000  plane waves:    9611
 k-point 13 :   0.0952 0.0476 0.0000  plane waves:    9605
 k-point 14 :   0.1429 0.0476 0.0000  plane waves:    9618
 k-point 15 :   0.1905 0.0476 0.0000  plane waves:    9631
 k-point 16 :   0.2381 0.0476 0.0000  plane waves:    9631
 k-point 17 :   0.2857 0.0476 0.0000  plane waves:    9611
 k-point 18 :   0.3333 0.0476 0.0000  plane waves:    9599
 k-point 19 :   0.3810 0.0476 0.0000  plane waves:    9593
 k-point 20 :   0.4286 0.0476 0.0000  plane waves:    9566
 k-point 21 :   0.4762 0.0476 0.0000  plane waves:    9549
 k-point 22 :  -0.4762 0.0476 0.0000  plane waves:    9555
 k-point 23 :  -0.4286 0.0476 0.0000  plane waves:    9558
 k-point 24 :  -0.3810 0.0476 0.0000  plane waves:    9572
 k-point 25 :  -0.3333 0.0476 0.0000  plane waves:    9591
 k-point 26 :  -0.2857 0.0476 0.0000  plane waves:    9602
 k-point 27 :  -0.2381 0.0476 0.0000  plane waves:    9613
 k-point 28 :  -0.1905 0.0476 0.0000  plane waves:    9623
 k-point 29 :  -0.1429 0.0476 0.0000  plane waves:    9633
 k-point 30 :  -0.0952 0.0476 0.0000  plane waves:    9615
 k-point 31 :  -0.0476 0.0476 0.0000  plane waves:    9613
 k-point 32 :   0.0000 0.0952 0.0000  plane waves:    9617
 k-point 33 :   0.1905 0.0952 0.0000  plane waves:    9605
 k-point 34 :   0.2381 0.0952 0.0000  plane waves:    9628
 k-point 35 :   0.2857 0.0952 0.0000  plane waves:    9613
 k-point 36 :   0.3333 0.0952 0.0000  plane waves:    9605
 k-point 37 :   0.3810 0.0952 0.0000  plane waves:    9578
 k-point 38 :   0.4286 0.0952 0.0000  plane waves:    9574
 k-point 39 :   0.4762 0.0952 0.0000  plane waves:    9563
 k-point 40 :  -0.4762 0.0952 0.0000  plane waves:    9565
 k-point 41 :  -0.4286 0.0952 0.0000  plane waves:    9563
 k-point 42 :  -0.3810 0.0952 0.0000  plane waves:    9563
 k-point 43 :  -0.3333 0.0952 0.0000  plane waves:    9574
 k-point 44 :  -0.2857 0.0952 0.0000  plane waves:    9578
 k-point 45 :  -0.2381 0.0952 0.0000  plane waves:    9609
 k-point 46 :  -0.1905 0.0952 0.0000  plane waves:    9619
 k-point 47 :  -0.1429 0.0952 0.0000  plane waves:    9624
 k-point 48 :  -0.0952 0.0952 0.0000  plane waves:    9613
 k-point 49 :  -0.0476 0.0952 0.0000  plane waves:    9623
 k-point 50 :   0.0000 0.1429 0.0000  plane waves:    9633
 k-point 51 :   0.2857 0.1429 0.0000  plane waves:    9601
 k-point 52 :   0.3333 0.1429 0.0000  plane waves:    9601
 k-point 53 :   0.3810 0.1429 0.0000  plane waves:    9578
 k-point 54 :   0.4286 0.1429 0.0000  plane waves:    9566
 k-point 55 :   0.4762 0.1429 0.0000  plane waves:    9561
 k-point 56 :  -0.4762 0.1429 0.0000  plane waves:    9561
 k-point 57 :  -0.4286 0.1429 0.0000  plane waves:    9554
 k-point 58 :  -0.3810 0.1429 0.0000  plane waves:    9559
 k-point 59 :  -0.3333 0.1429 0.0000  plane waves:    9559
 k-point 60 :  -0.2857 0.1429 0.0000  plane waves:    9564
 k-point 61 :  -0.2381 0.1429 0.0000  plane waves:    9572
 k-point 62 :  -0.1905 0.1429 0.0000  plane waves:    9603
 k-point 63 :  -0.1429 0.1429 0.0000  plane waves:    9601
 k-point 64 :  -0.0952 0.1429 0.0000  plane waves:    9628
 k-point 65 :  -0.0476 0.1429 0.0000  plane waves:    9625
 k-point 66 :   0.0000 0.1905 0.0000  plane waves:    9627
 k-point 67 :   0.3810 0.1905 0.0000  plane waves:    9581
 k-point 68 :   0.4286 0.1905 0.0000  plane waves:    9573
 k-point 69 :   0.4762 0.1905 0.0000  plane waves:    9554
 k-point 70 :  -0.4762 0.1905 0.0000  plane waves:    9545
 k-point 71 :  -0.4286 0.1905 0.0000  plane waves:    9540
 k-point 72 :  -0.3810 0.1905 0.0000  plane waves:    9544
 k-point 73 :  -0.3333 0.1905 0.0000  plane waves:    9545
 k-point 74 :  -0.2857 0.1905 0.0000  plane waves:    9550
 k-point 75 :  -0.2381 0.1905 0.0000  plane waves:    9569
 k-point 76 :  -0.1905 0.1905 0.0000  plane waves:    9581
 k-point 77 :  -0.1429 0.1905 0.0000  plane waves:    9605
 k-point 78 :  -0.0952 0.1905 0.0000  plane waves:    9613
 k-point 79 :  -0.0476 0.1905 0.0000  plane waves:    9631
 k-point 80 :   0.0000 0.2381 0.0000  plane waves:    9639
 k-point 81 :   0.4762 0.2381 0.0000  plane waves:    9556
 k-point 82 :  -0.4762 0.2381 0.0000  plane waves:    9534
 k-point 83 :  -0.4286 0.2381 0.0000  plane waves:    9530
 k-point 84 :  -0.3810 0.2381 0.0000  plane waves:    9518
 k-point 85 :  -0.3333 0.2381 0.0000  plane waves:    9530
 k-point 86 :  -0.2857 0.2381 0.0000  plane waves:    9531
 k-point 87 :  -0.2381 0.2381 0.0000  plane waves:    9554
 k-point 88 :  -0.1905 0.2381 0.0000  plane waves:    9571
 k-point 89 :  -0.1429 0.2381 0.0000  plane waves:    9578
 k-point 90 :  -0.0952 0.2381 0.0000  plane waves:    9599
 k-point 91 :  -0.0476 0.2381 0.0000  plane waves:    9613
 k-point 92 :   0.0000 0.2857 0.0000  plane waves:    9607
 k-point 93 :  -0.4286 0.2857 0.0000  plane waves:    9538
 k-point 94 :  -0.3810 0.2857 0.0000  plane waves:    9547
 k-point 95 :  -0.3333 0.2857 0.0000  plane waves:    9545
 k-point 96 :  -0.2857 0.2857 0.0000  plane waves:    9536
 k-point 97 :  -0.2381 0.2857 0.0000  plane waves:    9534
 k-point 98 :  -0.1905 0.2857 0.0000  plane waves:    9548
 k-point 99 :  -0.1429 0.2857 0.0000  plane waves:    9566
 k-point ** :  -0.0952 0.2857 0.0000  plane waves:    9582
 k-point ** :  -0.0476 0.2857 0.0000  plane waves:    9602
 k-point ** :   0.0000 0.3333 0.0000  plane waves:    9599
 k-point ** :  -0.3333 0.3333 0.0000  plane waves:    9524
 k-point ** :  -0.2857 0.3333 0.0000  plane waves:    9548
 k-point ** :  -0.2381 0.3333 0.0000  plane waves:    9529
 k-point ** :  -0.1905 0.3333 0.0000  plane waves:    9543
 k-point ** :  -0.1429 0.3333 0.0000  plane waves:    9557
 k-point ** :  -0.0952 0.3333 0.0000  plane waves:    9570
 k-point ** :  -0.0476 0.3333 0.0000  plane waves:    9591
 k-point ** :   0.0000 0.3810 0.0000  plane waves:    9579
 k-point ** :  -0.2381 0.3810 0.0000  plane waves:    9518
 k-point ** :  -0.1905 0.3810 0.0000  plane waves:    9544
 k-point ** :  -0.1429 0.3810 0.0000  plane waves:    9555
 k-point ** :  -0.0952 0.3810 0.0000  plane waves:    9567
 k-point ** :  -0.0476 0.3810 0.0000  plane waves:    9566
 k-point ** :   0.0000 0.4286 0.0000  plane waves:    9545
 k-point ** :  -0.1429 0.4286 0.0000  plane waves:    9558
 k-point ** :  -0.0952 0.4286 0.0000  plane waves:    9561
 k-point ** :  -0.0476 0.4286 0.0000  plane waves:    9550
 k-point ** :   0.0000 0.4762 0.0000  plane waves:    9538
 k-point ** :  -0.0476 0.4762 0.0000  plane waves:    9552

 maximum and minimum number of plane-waves per node :      1641     1559

 maximum number of plane-waves:      9641
 maximum index in each direction: 
   IXMAX=    8   IYMAX=    7   IZMAX=   46
   IXMIN=   -8   IYMIN=   -8   IZMIN=  -46


 parallel 3D FFT for wavefunctions:
    minimum data exchange during FFTs selected (reduces bandwidth)
 parallel 3D FFT for charge:
    minimum data exchange during FFTs selected (reduces bandwidth)


 total amount of memory used by VASP MPI-rank0   108087. kBytes
=======================================================================

   base      :      30000. kBytes
   nonl-proj :      57369. kBytes
   fftplans  :       7307. kBytes
   grid      :       3744. kBytes
   one-center:         15. kBytes
   wavefun   :       9652. kBytes
 
     INWAV:  cpu time    0.0000: real time    0.0000
 Broyden mixing: mesh for mixing (old mesh)
   NGX = 15   NGY = 15   NGZ = 93
  (NGX  = 60   NGY  = 60   NGZ  =384)
  gives a total of  20925 points

 initial charge density was supplied:
 charge density of overlapping atoms calculated
 number of electron      18.0000000 magnetization 
 keeping initial charge density in first step


--------------------------------------------------------------------------------------------------------


 Maximum index for augmentation-charges        15399 (set IRDMAX)


--------------------------------------------------------------------------------------------------------


 First call to EWALD:  gamma=   0.310
 Maximum number of real-space cells 5x 5x 1
 Maximum number of reciprocal cells 2x 2x 8

    FEWALD:  cpu time    0.0012: real time    0.0012


--------------------------------------- Iteration      1(   1)  ---------------------------------------


    POTLOK:  cpu time    0.0235: real time    0.0407
    SETDIJ:  cpu time    0.0308: real time    0.0308
     EDDAV:  cpu time    1.4638: real time    1.4673
       DOS:  cpu time    0.0010: real time    0.0010
    --------------------------------------------
      LOOP:  cpu time    1.5191: real time    1.5399

 eigenvalue-minimisations  :  4356
 total energy-change (2. order) : 0.1249577E+03  (-0.7808079E+03)
 number of electron      18.0000000 magnetization 
 augmentation part       18.0000000 magnetization 

 Free energy of the ion-electron system (eV)
  ---------------------------------------------------
  alpha Z        PSCENC =        22.94334738
  Ewald energy   TEWEN  =      2158.26868162
  -Hartree energ DENC   =     -2819.40721861
  -exchange      EXHF   =         0.00000000
  -V(xc)+E(xc)   XCENC  =       -48.79646308
  PAW double counting   =       394.08237266     -307.39168671
  entropy T*S    EENTRO =        -0.00011520
  eigenvalues    EBANDS =         6.72068670
  atomic energy  EATOM  =       718.53809099
  Solvation  Ediel_sol  =         0.00000000
  ---------------------------------------------------
  free energy    TOTEN  =       124.95769575 eV

  energy without entropy =      124.95781095  energy(sigma->0) =      124.95775335


--------------------------------------------------------------------------------------------------------




--------------------------------------- Iteration      1(   2)  ---------------------------------------


     EDDAV:  cpu time    2.0198: real time    2.0247
       DOS:  cpu time    0.0004: real time    0.0004
    --------------------------------------------
      LOOP:  cpu time    2.0202: real time    2.0251

 eigenvalue-minimisations  :  7026
 total energy-change (2. order) :-0.1358030E+03  (-0.1282275E+03)
 number of electron      18.0000000 magnetization 
 augmentation part       18.0000000 magnetization 

 Free energy of the ion-electron system (eV)
  ---------------------------------------------------
  alpha Z        PSCENC =        22.94334738
  Ewald energy   TEWEN  =      2158.26868162
  -Hartree energ DENC   =     -2819.40721861
  -exchange      EXHF   =         0.00000000
  -V(xc)+E(xc)   XCENC  =       -48.79646308
  PAW double counting   =       394.08237266     -307.39168671
  entropy T*S    EENTRO =        -0.00000000
  eigenvalues    EBANDS =      -129.08247586
  atomic energy  EATOM  =       718.53809099
  Solvation  Ediel_sol  =         0.00000000
  ---------------------------------------------------
  free energy    TOTEN  =       -10.84535161 eV

  energy without entropy =      -10.84535161  energy(sigma->0) =      -10.84535161


--------------------------------------------------------------------------------------------------------




--------------------------------------- Iteration      1(   3)  ---------------------------------------


     EDDAV:  cpu time    1.8233: real time    1.8278
       DOS:  cpu time    0.0004: real time    0.0004
    --------------------------------------------
      LOOP:  cpu time    1.8238: real time    1.8282

 eigenvalue-minimisations  :  5790
 total energy-change (2. order) :-0.1164732E+02  (-0.1153196E+02)
 number of electron      18.0000000 magnetization 
 augmentation part       18.0000000 magnetization 

 Free energy of the ion-electron system (eV)
  ---------------------------------------------------
  alpha Z        PSCENC =        22.94334738
  Ewald energy   TEWEN  =      2158.26868162
  -Hartree energ DENC   =     -2819.40721861
  -exchange      EXHF   =         0.00000000
  -V(xc)+E(xc)   XCENC  =       -48.79646308
  PAW double counting   =       394.08237266     -307.39168671
  entropy T*S    EENTRO =        -0.00000000
  eigenvalues    EBANDS =      -140.72979647
  atomic energy  EATOM  =       718.53809099
  Solvation  Ediel_sol  =         0.00000000
  ---------------------------------------------------
  free energy    TOTEN  =       -22.49267222 eV

  energy without entropy =      -22.49267222  energy(sigma->0) =      -22.49267222


--------------------------------------------------------------------------------------------------------




--------------------------------------- Iteration      1(   4)  ---------------------------------------


     EDDAV:  cpu time    1.8008: real time    1.8052
       DOS:  cpu time    0.0004: real time    0.0004
    --------------------------------------------
      LOOP:  cpu time    1.8012: real time    1.8056

 eigenvalue-minimisations  :  6012
 total energy-change (2. order) :-0.1914903E+00  (-0.1913342E+00)
 number of electron      18.0000000 magnetization 
 augmentation part       18.0000000 magnetization 

 Free energy of the ion-electron system (eV)
  ---------------------------------------------------
  alpha Z        PSCENC =        22.94334738
  Ewald energy   TEWEN  =      2158.26868162
  -Hartree energ DENC   =     -2819.40721861
  -exchange      EXHF   =         0.00000000
  -V(xc)+E(xc)   XCENC  =       -48.79646308
  PAW double counting   =       394.08237266     -307.39168671
  entropy T*S    EENTRO =        -0.00000000
  eigenvalues    EBANDS =      -140.92128681
  atomic energy  EATOM  =       718.53809099
  Solvation  Ediel_sol  =         0.00000000
  ---------------------------------------------------
  free energy    TOTEN  =       -22.68416256 eV

  energy without entropy =      -22.68416256  energy(sigma->0) =      -22.68416256


--------------------------------------------------------------------------------------------------------




--------------------------------------- Iteration      1(   5)  ---------------------------------------


     EDDAV:  cpu time    1.8330: real time    1.8375
       DOS:  cpu time    0.0004: real time    0.0004
    CHARGE:  cpu time    0.1180: real time    0.1183
    MIXING:  cpu time    0.0029: real time    0.0029
    --------------------------------------------
      LOOP:  cpu time    1.9542: real time    1.9590

 eigenvalue-minimisations  :  6186
 total energy-change (2. order) :-0.1895935E-02  (-0.1895834E-02)
 number of electron      18.0000000 magnetization 
 augmentation part       -1.7883022 magnetization 

 Broyden mixing:
  rms(total) = 0.53553E+00    rms(broyden)= 0.53552E+00
  rms(prec ) = 0.61039E+00
  weight for this iteration     100.00

 Free energy of the ion-electron system (eV)
  ---------------------------------------------------
  alpha Z        PSCENC =        22.94334738
  Ewald energy   TEWEN  =      2158.26868162
  -Hartree energ DENC   =     -2819.40721861
  -exchange      EXHF   =         0.00000000
  -V(xc)+E(xc)   XCENC  =       -48.79646308
  PAW double counting   =       394.08237266     -307.39168671
  entropy T*S    EENTRO =        -0.00000000
  eigenvalues    EBANDS =      -140.92318275
  atomic energy  EATOM  =       718.53809099
  Solvation  Ediel_sol  =         0.00000000
  ---------------------------------------------------
  free energy    TOTEN  =       -22.68605850 eV

  energy without entropy =      -22.68605850  energy(sigma->0) =      -22.68605850


--------------------------------------------------------------------------------------------------------




--------------------------------------- Iteration      1(   6)  ---------------------------------------


    POTLOK:  cpu time    0.0170: real time    0.0171
    SETDIJ:  cpu time    0.0298: real time    0.0299
     EDDAV:  cpu time    1.9160: real time    1.9206
       DOS:  cpu time    0.0004: real time    0.0004
    CHARGE:  cpu time    0.1161: real time    0.1163
    MIXING:  cpu time    0.0029: real time    0.0029
    --------------------------------------------
      LOOP:  cpu time    2.0822: real time    2.0873

 eigenvalue-minimisations  :  6534
 total energy-change (2. order) : 0.8058007E+00  (-0.5285324E+00)
 number of electron      18.0000000 magnetization 
 augmentation part       -1.4796162 magnetization 

 Broyden mixing:
  rms(total) = 0.19775E+00    rms(broyden)= 0.19775E+00
  rms(prec ) = 0.25354E+00
  weight for this iteration     100.00

 eigenvalues of (default mixing * dielectric matrix)
  average eigenvalue GAMMA=   1.0040
  1.0040

 Free energy of the ion-electron system (eV)
  ---------------------------------------------------
  alpha Z        PSCENC =        22.94334738
  Ewald energy   TEWEN  =      2158.26868162
  -Hartree energ DENC   =     -2818.81261902
  -exchange      EXHF   =         0.00000000
  -V(xc)+E(xc)   XCENC  =       -48.17700527
  PAW double counting   =       416.45608505     -330.60041902
  entropy T*S    EENTRO =        -0.00000000
  eigenvalues    EBANDS =      -140.49641951
  atomic energy  EATOM  =       718.53809099
  Solvation  Ediel_sol  =         0.00000000
  ---------------------------------------------------
  free energy    TOTEN  =       -21.88025779 eV

  energy without entropy =      -21.88025779  energy(sigma->0) =      -21.88025779


--------------------------------------------------------------------------------------------------------




--------------------------------------- Iteration      1(   7)  ---------------------------------------


    POTLOK:  cpu time    0.0172: real time    0.0173
    SETDIJ:  cpu time    0.0299: real time    0.0300
     EDDAV:  cpu time    2.0023: real time    2.0071
       DOS:  cpu time    0.0004: real time    0.0004
    CHARGE:  cpu time    0.1172: real time    0.1175
    MIXING:  cpu time    0.0029: real time    0.0029
    --------------------------------------------
      LOOP:  cpu time    2.1699: real time    2.1751

 eigenvalue-minimisations  :  6618
 total energy-change (2. order) : 0.1813897E+00  (-0.9548299E-01)
 number of electron      18.0000000 magnetization 
 augmentation part       -1.5687891 magnetization 

 Broyden mixing:
  rms(total) = 0.13479E+00    rms(broyden)= 0.13479E+00
  rms(prec ) = 0.14949E+00
  weight for this iteration     100.00

 eigenvalues of (default mixing * dielectric matrix)
  average eigenvalue GAMMA=   1.4878
  0.7156  2.2600

 Free energy of the ion-electron system (eV)
  ---------------------------------------------------
  alpha Z        PSCENC =        22.94334738
  Ewald energy   TEWEN  =      2158.26868162
  -Hartree energ DENC   =     -2821.66763737
  -exchange      EXHF   =         0.00000000
  -V(xc)+E(xc)   XCENC  =       -48.14295161
  PAW double counting   =       435.68757240     -350.08594172
  entropy T*S    EENTRO =        -0.00000000
  eigenvalues    EBANDS =      -137.24002983
  atomic energy  EATOM  =       718.53809099
  Solvation  Ediel_sol  =         0.00000000
  ---------------------------------------------------
  free energy    TOTEN  =       -21.69886813 eV

  energy without entropy =      -21.69886813  energy(sigma->0) =      -21.69886813


--------------------------------------------------------------------------------------------------------




--------------------------------------- Iteration      1(   8)  ---------------------------------------


    POTLOK:  cpu time    0.0171: real time    0.0172
    SETDIJ:  cpu time    0.0301: real time    0.0301
     EDDAV:  cpu time    1.7167: real time    1.7209
       DOS:  cpu time    0.0004: real time    0.0004
    CHARGE:  cpu time    0.1197: real time    0.1200
    MIXING:  cpu time    0.0032: real time    0.0032
    --------------------------------------------
      LOOP:  cpu time    1.8872: real time    1.8918

 eigenvalue-minimisations  :  5520
 total energy-change (2. order) : 0.6065697E-01  (-0.1793024E-01)
 number of electron      18.0000000 magnetization 
 augmentation part       -1.5306043 magnetization 

 Broyden mixing:
  rms(total) = 0.22644E-01    rms(broyden)= 0.22644E-01
  rms(prec ) = 0.29229E-01
  weight for this iteration     100.00

 eigenvalues of (default mixing * dielectric matrix)
  average eigenvalue GAMMA=   1.5269
  2.0562  1.8185  0.7061

 Free energy of the ion-electron system (eV)
  ---------------------------------------------------
  alpha Z        PSCENC =        22.94334738
  Ewald energy   TEWEN  =      2158.26868162
  -Hartree energ DENC   =     -2824.07856037
  -exchange      EXHF   =         0.00000000
  -V(xc)+E(xc)   XCENC  =       -47.83102042
  PAW double counting   =       462.22788032     -377.09259712
  entropy T*S    EENTRO =        -0.00000000
  eigenvalues    EBANDS =      -134.61403356
  atomic energy  EATOM  =       718.53809099
  Solvation  Ediel_sol  =         0.00000000
  ---------------------------------------------------
  free energy    TOTEN  =       -21.63821116 eV

  energy without entropy =      -21.63821116  energy(sigma->0) =      -21.63821116


--------------------------------------------------------------------------------------------------------




--------------------------------------- Iteration      1(   9)  ---------------------------------------


    POTLOK:  cpu time    0.0177: real time    0.0178
    SETDIJ:  cpu time    0.0301: real time    0.0302
     EDDAV:  cpu time    1.7302: real time    1.7344
       DOS:  cpu time    0.0004: real time    0.0004
    CHARGE:  cpu time    0.1165: real time    0.1168
    MIXING:  cpu time    0.0029: real time    0.0029
    --------------------------------------------
      LOOP:  cpu time    1.8980: real time    1.9026

 eigenvalue-minimisations  :  5622
 total energy-change (2. order) : 0.2856823E-02  (-0.9637040E-03)
 number of electron      18.0000000 magnetization 
 augmentation part       -1.5329618 magnetization 

 Broyden mixing:
  rms(total) = 0.91332E-02    rms(broyden)= 0.91332E-02
  rms(prec ) = 0.16826E-01
  weight for this iteration     100.00

 eigenvalues of (default mixing * dielectric matrix)
  average eigenvalue GAMMA=   1.5339
  0.7043  0.9555  1.9207  2.5551

 Free energy of the ion-electron system (eV)
  ---------------------------------------------------
  alpha Z        PSCENC =        22.94334738
  Ewald energy   TEWEN  =      2158.26868162
  -Hartree energ DENC   =     -2825.00625658
  -exchange      EXHF   =         0.00000000
  -V(xc)+E(xc)   XCENC  =       -47.79268093
  PAW double counting   =       465.42661017     -380.31367967
  entropy T*S    EENTRO =        -0.00000000
  eigenvalues    EBANDS =      -133.69946731
  atomic energy  EATOM  =       718.53809099
  Solvation  Ediel_sol  =         0.00000000
  ---------------------------------------------------
  free energy    TOTEN  =       -21.63535433 eV

  energy without entropy =      -21.63535433  energy(sigma->0) =      -21.63535433


--------------------------------------------------------------------------------------------------------




--------------------------------------- Iteration      1(  10)  ---------------------------------------


    POTLOK:  cpu time    0.0172: real time    0.0173
    SETDIJ:  cpu time    0.0300: real time    0.0301
     EDDAV:  cpu time    1.7245: real time    1.7286
       DOS:  cpu time    0.0004: real time    0.0004
    CHARGE:  cpu time    0.1166: real time    0.1169
    MIXING:  cpu time    0.0031: real time    0.0031
    --------------------------------------------
      LOOP:  cpu time    1.8917: real time    1.8963

 eigenvalue-minimisations  :  5682
 total energy-change (2. order) : 0.1912376E-02  (-0.1458455E-03)
 number of electron      18.0000000 magnetization 
 augmentation part       -1.5330596 magnetization 

 Broyden mixing:
  rms(total) = 0.48397E-02    rms(broyden)= 0.48397E-02
  rms(prec ) = 0.12120E-01
  weight for this iteration     100.00

 eigenvalues of (default mixing * dielectric matrix)
  average eigenvalue GAMMA=   1.4740
  2.2158  2.2158  0.7069  1.1157  1.1157

 Free energy of the ion-electron system (eV)
  ---------------------------------------------------
  alpha Z        PSCENC =        22.94334738
  Ewald energy   TEWEN  =      2158.26868162
  -Hartree energ DENC   =     -2826.03843970
  -exchange      EXHF   =         0.00000000
  -V(xc)+E(xc)   XCENC  =       -47.75961411
  PAW double counting   =       467.59531314     -382.49924892
  entropy T*S    EENTRO =        -0.00000000
  eigenvalues    EBANDS =      -132.68157235
  atomic energy  EATOM  =       718.53809099
  Solvation  Ediel_sol  =         0.00000000
  ---------------------------------------------------
  free energy    TOTEN  =       -21.63344196 eV

  energy without entropy =      -21.63344196  energy(sigma->0) =      -21.63344196


--------------------------------------------------------------------------------------------------------




--------------------------------------- Iteration      1(  11)  ---------------------------------------


    POTLOK:  cpu time    0.0173: real time    0.0224
    SETDIJ:  cpu time    0.0299: real time    0.0300
     EDDAV:  cpu time    1.8686: real time    1.8731
       DOS:  cpu time    0.0004: real time    0.0004
    CHARGE:  cpu time    0.1165: real time    0.1168
    MIXING:  cpu time    0.0031: real time    0.0031
    --------------------------------------------
      LOOP:  cpu time    2.0358: real time    2.0457

 eigenvalue-minimisations  :  6372
 total energy-change (2. order) : 0.7383489E-03  (-0.2516286E-04)
 number of electron      18.0000000 magnetization 
 augmentation part       -1.5327026 magnetization 

 Broyden mixing:
  rms(total) = 0.31528E-02    rms(broyden)= 0.31528E-02
  rms(prec ) = 0.99521E-02
  weight for this iteration     100.00

 eigenvalues of (default mixing * dielectric matrix)
  average eigenvalue GAMMA=   1.6744
  3.0473  2.5297  0.7049  0.9258  1.4194  1.4194

 Free energy of the ion-electron system (eV)
  ---------------------------------------------------
  alpha Z        PSCENC =        22.94334738
  Ewald energy   TEWEN  =      2158.26868162
  -Hartree energ DENC   =     -2826.68407870
  -exchange      EXHF   =         0.00000000
  -V(xc)+E(xc)   XCENC  =       -47.75509480
  PAW double counting   =       466.92525892     -381.81776936
  entropy T*S    EENTRO =        -0.00000000
  eigenvalues    EBANDS =      -132.05113966
  atomic energy  EATOM  =       718.53809099
  Solvation  Ediel_sol  =         0.00000000
  ---------------------------------------------------
  free energy    TOTEN  =       -21.63270361 eV

  energy without entropy =      -21.63270361  energy(sigma->0) =      -21.63270361


--------------------------------------------------------------------------------------------------------




--------------------------------------- Iteration      1(  12)  ---------------------------------------


    POTLOK:  cpu time    0.0691: real time    0.0694
    SETDIJ:  cpu time    0.0297: real time    0.0297
     EDDAV:  cpu time    1.7412: real time    1.7454
       DOS:  cpu time    0.0004: real time    0.0004
    CHARGE:  cpu time    0.1165: real time    0.1168
    MIXING:  cpu time    0.0029: real time    0.0029
    --------------------------------------------
      LOOP:  cpu time    1.9599: real time    1.9647

 eigenvalue-minimisations  :  5802
 total energy-change (2. order) : 0.1201558E-02  (-0.6552729E-04)
 number of electron      18.0000000 magnetization 
 augmentation part       -1.5320467 magnetization 

 Broyden mixing:
  rms(total) = 0.27199E-02    rms(broyden)= 0.27199E-02
  rms(prec ) = 0.70695E-02
  weight for this iteration     100.00

 eigenvalues of (default mixing * dielectric matrix)
  average eigenvalue GAMMA=   1.9330
  3.9483  2.7410  2.4268  1.7300  0.7052  0.9900  0.9900

 Free energy of the ion-electron system (eV)
  ---------------------------------------------------
  alpha Z        PSCENC =        22.94334738
  Ewald energy   TEWEN  =      2158.26868162
  -Hartree energ DENC   =     -2828.33571028
  -exchange      EXHF   =         0.00000000
  -V(xc)+E(xc)   XCENC  =       -47.73438572
  PAW double counting   =       466.47957499     -381.36217755
  entropy T*S    EENTRO =        -0.00000000
  eigenvalues    EBANDS =      -130.42892348
  atomic energy  EATOM  =       718.53809099
  Solvation  Ediel_sol  =         0.00000000
  ---------------------------------------------------
  free energy    TOTEN  =       -21.63150205 eV

  energy without entropy =      -21.63150205  energy(sigma->0) =      -21.63150205


--------------------------------------------------------------------------------------------------------




--------------------------------------- Iteration      1(  13)  ---------------------------------------


    POTLOK:  cpu time    0.0168: real time    0.0169
    SETDIJ:  cpu time    0.0301: real time    0.0302
     EDDAV:  cpu time    1.5218: real time    1.5254
       DOS:  cpu time    0.0004: real time    0.0004
    CHARGE:  cpu time    0.1175: real time    0.1178
    MIXING:  cpu time    0.0030: real time    0.0030
    --------------------------------------------
      LOOP:  cpu time    1.6897: real time    1.6938

 eigenvalue-minimisations  :  4716
 total energy-change (2. order) : 0.9447425E-03  (-0.6343904E-04)
 number of electron      18.0000000 magnetization 
 augmentation part       -1.5320972 magnetization 

 Broyden mixing:
  rms(total) = 0.20653E-02    rms(broyden)= 0.20653E-02
  rms(prec ) = 0.50237E-02
  weight for this iteration     100.00

 eigenvalues of (default mixing * dielectric matrix)
  average eigenvalue GAMMA=   2.1048
  6.0227  2.8293  2.2517  1.6336  1.4568  0.7051  0.9696  0.9696

 Free energy of the ion-electron system (eV)
  ---------------------------------------------------
  alpha Z        PSCENC =        22.94334738
  Ewald energy   TEWEN  =      2158.26868162
  -Hartree energ DENC   =     -2829.63790554
  -exchange      EXHF   =         0.00000000
  -V(xc)+E(xc)   XCENC  =       -47.72840980
  PAW double counting   =       465.87807111     -380.76637568
  entropy T*S    EENTRO =        -0.00000000
  eigenvalues    EBANDS =      -129.12605738
  atomic energy  EATOM  =       718.53809099
  Solvation  Ediel_sol  =         0.00000000
  ---------------------------------------------------
  free energy    TOTEN  =       -21.63055731 eV

  energy without entropy =      -21.63055731  energy(sigma->0) =      -21.63055731


--------------------------------------------------------------------------------------------------------




--------------------------------------- Iteration      1(  14)  ---------------------------------------


    POTLOK:  cpu time    0.0168: real time    0.0169
    SETDIJ:  cpu time    0.0304: real time    0.0305
     EDDAV:  cpu time    1.8714: real time    1.8764
       DOS:  cpu time    0.0004: real time    0.0004
    CHARGE:  cpu time    0.1168: real time    0.1171
    MIXING:  cpu time    0.0032: real time    0.0032
    --------------------------------------------
      LOOP:  cpu time    2.0390: real time    2.0444

 eigenvalue-minimisations  :  6288
 total energy-change (2. order) : 0.2701748E-03  (-0.7208888E-05)
 number of electron      18.0000000 magnetization 
 augmentation part       -1.5321488 magnetization 

 Broyden mixing:
  rms(total) = 0.16481E-02    rms(broyden)= 0.16481E-02
  rms(prec ) = 0.39951E-02
  weight for this iteration     100.00

 eigenvalues of (default mixing * dielectric matrix)
  average eigenvalue GAMMA=   2.3235
  7.2149  3.6211  2.5344  2.0859  1.7215  0.7052  0.9849  0.9849  1.0586

 Free energy of the ion-electron system (eV)
  ---------------------------------------------------
  alpha Z        PSCENC =        22.94334738
  Ewald energy   TEWEN  =      2158.26868162
  -Hartree energ DENC   =     -2830.38779910
  -exchange      EXHF   =         0.00000000
  -V(xc)+E(xc)   XCENC  =       -47.72539735
  PAW double counting   =       465.83868553     -380.72444415
  entropy T*S    EENTRO =        -0.00000000
  eigenvalues    EBANDS =      -128.38145206
  atomic energy  EATOM  =       718.53809099
  Solvation  Ediel_sol  =         0.00000000
  ---------------------------------------------------
  free energy    TOTEN  =       -21.63028713 eV

  energy without entropy =      -21.63028713  energy(sigma->0) =      -21.63028713


--------------------------------------------------------------------------------------------------------




--------------------------------------- Iteration      1(  15)  ---------------------------------------


    POTLOK:  cpu time    0.0162: real time    0.0163
    SETDIJ:  cpu time    0.0305: real time    0.0306
     EDDAV:  cpu time    1.5777: real time    1.5819
       DOS:  cpu time    0.0004: real time    0.0004
    CHARGE:  cpu time    0.1167: real time    0.1169
    MIXING:  cpu time    0.0032: real time    0.0032
    --------------------------------------------
      LOOP:  cpu time    1.7447: real time    1.7494

 eigenvalue-minimisations  :  4974
 total energy-change (2. order) :-0.9718496E-03  (-0.1620033E-04)
 number of electron      18.0000000 magnetization 
 augmentation part       -1.5321160 magnetization 

 Broyden mixing:
  rms(total) = 0.15284E-02    rms(broyden)= 0.15284E-02
  rms(prec ) = 0.24653E-02
  weight for this iteration     100.00

 eigenvalues of (default mixing * dielectric matrix)
  average eigenvalue GAMMA=   2.5747
  8.8182  4.7152  2.5191  2.5191  1.7687  1.7687  0.7052  0.9882  0.9882  0.9563

 Free energy of the ion-electron system (eV)
  ---------------------------------------------------
  alpha Z        PSCENC =        22.94334738
  Ewald energy   TEWEN  =      2158.26868162
  -Hartree energ DENC   =     -2831.19786761
  -exchange      EXHF   =         0.00000000
  -V(xc)+E(xc)   XCENC  =       -47.72471787
  PAW double counting   =       466.48415645     -381.37508296
  entropy T*S    EENTRO =        -0.00000000
  eigenvalues    EBANDS =      -127.56786699
  atomic energy  EATOM  =       718.53809099
  Solvation  Ediel_sol  =         0.00000000
  ---------------------------------------------------
  free energy    TOTEN  =       -21.63125898 eV

  energy without entropy =      -21.63125898  energy(sigma->0) =      -21.63125898


--------------------------------------------------------------------------------------------------------




--------------------------------------- Iteration      1(  16)  ---------------------------------------


    POTLOK:  cpu time    0.0160: real time    0.0161
    SETDIJ:  cpu time    0.0303: real time    0.0303
     EDDAV:  cpu time    1.7159: real time    1.7200
       DOS:  cpu time    0.0004: real time    0.0004
    CHARGE:  cpu time    0.1161: real time    0.1163
    MIXING:  cpu time    0.0036: real time    0.0036
    --------------------------------------------
      LOOP:  cpu time    1.8822: real time    1.8868

 eigenvalue-minimisations  :  5538
 total energy-change (2. order) :-0.7576904E-03  (-0.1163183E-04)
 number of electron      18.0000000 magnetization 
 augmentation part       -1.5321710 magnetization 

 Broyden mixing:
  rms(total) = 0.85785E-03    rms(broyden)= 0.85785E-03
  rms(prec ) = 0.11995E-02
  weight for this iteration     100.00

 eigenvalues of (default mixing * dielectric matrix)
  average eigenvalue GAMMA=   2.8546
 12.0791  5.2304  2.8940  2.4980  1.8371  1.8371  0.7052  0.9733  0.9733  1.0290
  1.3446

 Free energy of the ion-electron system (eV)
  ---------------------------------------------------
  alpha Z        PSCENC =        22.94334738
  Ewald energy   TEWEN  =      2158.26868162
  -Hartree energ DENC   =     -2831.50751538
  -exchange      EXHF   =         0.00000000
  -V(xc)+E(xc)   XCENC  =       -47.72723658
  PAW double counting   =       466.18392625     -381.06892854
  entropy T*S    EENTRO =        -0.00000000
  eigenvalues    EBANDS =      -127.26238242
  atomic energy  EATOM  =       718.53809099
  Solvation  Ediel_sol  =         0.00000000
  ---------------------------------------------------
  free energy    TOTEN  =       -21.63201667 eV

  energy without entropy =      -21.63201667  energy(sigma->0) =      -21.63201667


--------------------------------------------------------------------------------------------------------




--------------------------------------- Iteration      1(  17)  ---------------------------------------


    POTLOK:  cpu time    0.0166: real time    0.0168
    SETDIJ:  cpu time    0.0301: real time    0.0302
     EDDAV:  cpu time    1.7698: real time    1.7741
       DOS:  cpu time    0.0004: real time    0.0004
    CHARGE:  cpu time    0.1166: real time    0.1169
    MIXING:  cpu time    0.0037: real time    0.0037
    --------------------------------------------
      LOOP:  cpu time    1.9373: real time    1.9421

 eigenvalue-minimisations  :  5808
 total energy-change (2. order) :-0.1710088E-03  (-0.1334255E-05)
 number of electron      18.0000000 magnetization 
 augmentation part       -1.5320073 magnetization 

 Broyden mixing:
[...]
      2     -14.4466      2.00000
      3      -7.5258      2.00000
      4      -6.5227      2.00000
      5      -6.0173      2.00000
      6      -4.8450      2.00000
      7      -3.7293      2.00000
      8      -3.6741      2.00000
      9      -2.4866      2.00000
     10       0.2894      0.00000
     11       0.8393      0.00000
     12       1.5417      0.00000
     13       2.4659      0.00000
     14       4.0108      0.00000
     15       5.0426      0.00000
     16       5.3705      0.00000
     17       6.2729      0.00000
     18       6.4524      0.00000

 k-point   109 :      -0.0476    0.3333    0.0000
  band No.  band energies     occupation 
      1     -15.0139      2.00000
      2     -14.5404      2.00000
      3      -7.4014      2.00000
      4      -6.3452      2.00000
      5      -6.1204      2.00000
      6      -4.5832      2.00000
      7      -3.7656      2.00000
      8      -3.2829      2.00000
      9      -2.6783      2.00000
     10       0.3073      0.00000
     11       0.6611      0.00000
     12       1.5319      0.00000
     13       2.4709      0.00000
     14       4.1214      0.00000
     15       4.7860      0.00000
     16       5.0462      0.00000
     17       5.9042      0.00000
     18       6.0682      0.00000

 k-point   110 :       0.0000    0.3810    0.0000
  band No.  band energies     occupation 
      1     -14.8959      2.00000
      2     -14.4818      2.00000
      3      -7.6186      2.00000
      4      -6.5192      2.00000
      5      -6.0702      2.00000
      6      -4.5376      2.00000
      7      -3.8944      2.00000
      8      -3.0253      2.00000
      9      -2.7559      2.00000
     10       0.5450      0.00000
     11       0.5678      0.00000
     12       1.6851      0.00000
     13       2.5218      0.00000
     14       3.7516      0.00000
     15       4.8524      0.00000
     16       5.1144      0.00000
     17       5.9676      0.00000
     18       6.1078      0.00000

 k-point   111 :      -0.2381    0.3810    0.0000
  band No.  band energies     occupation 
      1     -14.3093      2.00000
      2     -14.1613      2.00000
      3      -7.4016      2.00000
      4      -7.0880      2.00000
      5      -5.8405      2.00000
      6      -5.2452      2.00000
      7      -5.1299      2.00000
      8      -4.0772      2.00000
      9      -1.9604      2.00000
     10       0.1747      0.00000
     11       1.1189      0.00000
     12       1.5209      0.00000
     13       2.9818      0.00000
     14       3.6095      0.00000
     15       5.4227      0.00000
     16       6.6798      0.00000
     17       7.1782      0.00000
     18       7.9855      0.00000

 k-point   112 :      -0.1905    0.3810    0.0000
  band No.  band energies     occupation 
      1     -14.3862      2.00000
      2     -14.2075      2.00000
      3      -7.6316      2.00000
      4      -7.0121      2.00000
      5      -5.8236      2.00000
      6      -5.0938      2.00000
      7      -4.7545      2.00000
      8      -3.9961      2.00000
      9      -2.1019      2.00000
     10       0.3774      0.00000
     11       1.3303      0.00000
     12       1.3450      0.00000
     13       2.7261      0.00000
     14       3.4015      0.00000
     15       5.9834      0.00000
     16       6.4852      0.00000
     17       6.7418      0.00000
     18       7.7800      0.00000

 k-point   113 :      -0.1429    0.3810    0.0000
  band No.  band energies     occupation 
      1     -14.4940      2.00000
      2     -14.2696      2.00000
      3      -7.7802      2.00000
      4      -6.9125      2.00000
      5      -5.8729      2.00000
      6      -5.0091      2.00000
      7      -4.1796      2.00000
      8      -3.9180      2.00000
      9      -2.2410      2.00000
     10       0.5034      0.00000
     11       1.1214      0.00000
     12       1.6175      0.00000
     13       2.4738      0.00000
     14       3.3226      0.00000
     15       5.8693      0.00000
     16       6.1523      0.00000
     17       6.9397      0.00000
     18       7.2104      0.00000

 k-point   114 :      -0.0952    0.3810    0.0000
  band No.  band energies     occupation 
      1     -14.6233      2.00000
      2     -14.3406      2.00000
      3      -7.8251      2.00000
      4      -6.7975      2.00000
      5      -5.9413      2.00000
      6      -4.8661      2.00000
      7      -3.8762      2.00000
      8      -3.6418      2.00000
      9      -2.3833      2.00000
     10       0.5063      0.00000
     11       0.9500      0.00000
     12       1.7915      0.00000
     13       2.3814      0.00000
     14       3.3684      0.00000
     15       5.3901      0.00000
     16       5.7087      0.00000
     17       6.5983      0.00000
     18       6.8070      0.00000

 k-point   115 :      -0.0476    0.3810    0.0000
  band No.  band energies     occupation 
      1     -14.7616      2.00000
      2     -14.4135      2.00000
      3      -7.7671      2.00000
      4      -6.6681      2.00000
      5      -6.0101      2.00000
      6      -4.6821      2.00000
      7      -3.8859      2.00000
      8      -3.2225      2.00000
      9      -2.5671      2.00000
     10       0.4948      0.00000
     11       0.7748      0.00000
     12       1.7668      0.00000
     13       2.4867      0.00000
     14       3.5110      0.00000
     15       5.0352      0.00000
     16       5.3096      0.00000
     17       6.1751      0.00000
     18       6.4114      0.00000

 k-point   116 :       0.0000    0.4286    0.0000
  band No.  band energies     occupation 
      1     -14.6757      2.00000
      2     -14.3729      2.00000
      3      -7.9407      2.00000
      4      -6.7875      2.00000
      5      -5.9937      2.00000
      6      -4.6502      2.00000
      7      -3.9574      2.00000
      8      -2.9121      2.00000
      9      -2.6606      2.00000
     10       0.6303      0.00000
     11       0.7839      0.00000
     12       1.8509      0.00000
     13       2.5741      0.00000
     14       3.1457      0.00000
     15       5.0876      0.00000
     16       5.2322      0.00000
     17       6.1977      0.00000
     18       6.6182      0.00000

 k-point   117 :      -0.1429    0.4286    0.0000
  band No.  band energies     occupation 
      1     -14.4364      2.00000
      2     -14.2411      2.00000
      3      -7.8543      2.00000
      4      -6.9858      2.00000
      5      -5.8682      2.00000
      6      -4.9937      2.00000
      7      -4.1757      2.00000
      8      -3.9741      2.00000
      9      -2.1915      2.00000
     10       0.5308      0.00000
     11       1.2176      0.00000
     12       1.6786      0.00000
     13       2.4461      0.00000
     14       3.0953      0.00000
     15       6.0646      0.00000
     16       6.3683      0.00000
     17       6.9405      0.00000
     18       7.1273      0.00000

 k-point   118 :      -0.0952    0.4286    0.0000
  band No.  band energies     occupation 
      1     -14.5048      2.00000
      2     -14.2827      2.00000
      3      -7.9904      2.00000
      4      -6.9426      2.00000
      5      -5.9186      2.00000
      6      -4.8704      2.00000
      7      -3.9562      2.00000
      8      -3.6043      2.00000
      9      -2.3074      2.00000
     10       0.6182      0.00000
     11       1.0789      0.00000
     12       2.0042      0.00000
     13       2.2447      0.00000
     14       2.9390      0.00000
     15       5.6511      0.00000
     16       5.9717      0.00000
     17       6.6254      0.00000
     18       7.1131      0.00000

 k-point   119 :      -0.0476    0.4286    0.0000
  band No.  band energies     occupation 
      1     -14.5870      2.00000
      2     -14.3281      2.00000
      3      -8.0194      2.00000
      4      -6.8781      2.00000
      5      -5.9628      2.00000
      6      -4.7408      2.00000
      7      -3.9568      2.00000
      8      -3.1360      2.00000
      9      -2.4774      2.00000
     10       0.6320      0.00000
     11       0.9334      0.00000
     12       1.9381      0.00000
     13       2.4598      0.00000
     14       2.9553      0.00000
     15       5.2836      0.00000
     16       5.4581      0.00000
     17       6.3792      0.00000
     18       6.8751      0.00000

 k-point   120 :       0.0000    0.4762    0.0000
  band No.  band energies     occupation 
      1     -14.5523      2.00000
      2     -14.3135      2.00000
      3      -8.1192      2.00000
      4      -6.9302      2.00000
      5      -5.9672      2.00000
      6      -4.7073      2.00000
      7      -3.9865      2.00000
      8      -2.8084      2.00000
      9      -2.6157      2.00000
     10       0.6786      0.00000
     11       0.9734      0.00000
     12       1.9333      0.00000
     13       2.5982      0.00000
     14       2.7215      0.00000
     15       5.2611      0.00000
     16       5.2834      0.00000
     17       6.3913      0.00000
     18       6.9089      0.00000

 k-point   121 :      -0.0476    0.4762    0.0000
  band No.  band energies     occupation 
      1     -14.5241      2.00000
      2     -14.2979      2.00000
      3      -8.1094      2.00000
      4      -6.9509      2.00000
      5      -5.9519      2.00000
      6      -4.7603      2.00000
      7      -3.9801      2.00000
      8      -3.0978      2.00000
      9      -2.4400      2.00000
     10       0.6745      0.00000
     11       1.0308      0.00000
     12       2.0061      0.00000
     13       2.4376      0.00000
     14       2.7180      0.00000
     15       5.3954      0.00000
     16       5.5192      0.00000
     17       6.4513      0.00000
     18       6.9754      0.00000


--------------------------------------------------------------------------------------------------------


 soft charge-density along one line, spin component           1
         0         1         2         3         4         5         6         7         8         9
 total charge-density along one line
 
 pseudopotential strength for first ion, spin component:           1
 -8.649   0.000  -0.000   0.000  -0.000  -0.032   0.000  -0.000
  0.000  -8.648  -0.000   0.000   0.000   0.000  -0.032  -0.000
 -0.000  -0.000  -8.633  -0.000   0.000  -0.000  -0.000  -0.031
  0.000   0.000  -0.000  -8.648   0.000   0.000   0.000  -0.000
 -0.000   0.000   0.000   0.000  -8.649  -0.000   0.000   0.000
 -0.032   0.000  -0.000   0.000  -0.000   0.071   0.000  -0.000
  0.000  -0.032  -0.000   0.000   0.000   0.000   0.071   0.000
 -0.000  -0.000  -0.031  -0.000   0.000  -0.000   0.000   0.071
  0.000   0.000  -0.000  -0.032   0.000  -0.000   0.000   0.000
 -0.000   0.000   0.000   0.000  -0.032   0.000  -0.000   0.000
 -0.000  -0.000  -0.002  -0.000   0.000  -0.000  -0.000  -0.000
  0.000   0.000   0.000   0.000  -0.000   0.000   0.000   0.000
  0.000  -0.000   0.000   0.000   0.007   0.000  -0.000  -0.000
  0.000  -0.000  -0.000   0.000  -0.000  -0.000   0.000  -0.000
  0.007   0.000  -0.000  -0.000   0.000  -0.000  -0.000  -0.000
 -0.000   0.000   0.000  -0.000  -0.003  -0.000   0.000   0.000
 -0.000  -0.000   0.000  -0.000   0.000   0.000  -0.000   0.000
 -0.003  -0.000   0.000   0.000  -0.000   0.000   0.000   0.000
 total augmentation occupancy for first ion, spin component:           1
  0.919   0.000  -0.000   0.000   0.000  -0.527   0.000   0.000   0.000   0.000   0.000   0.000  -0.000   0.000   0.050   0.000
  0.000   0.881   0.000   0.000   0.000   0.000  -0.727   0.000  -0.000   0.000   0.000   0.000   0.000  -0.000   0.000   0.000
 -0.000   0.000   0.963   0.000   0.000   0.000   0.000  -0.483   0.000  -0.000   0.088  -0.021  -0.000   0.000   0.000   0.000
  0.000   0.000   0.000   0.881   0.000   0.000  -0.000   0.000  -0.727   0.000   0.000   0.000   0.000   0.000   0.000   0.000
  0.000   0.000   0.000   0.000   0.919   0.000   0.000  -0.000   0.000  -0.526  -0.000   0.000   0.050   0.000   0.000   0.000
 -0.527   0.000   0.000   0.000   0.000   0.529   0.000  -0.000   0.000   0.000   0.000   0.000   0.000   0.000  -0.108  -0.000
  0.000  -0.727   0.000  -0.000   0.000   0.000   0.850   0.000   0.000   0.000   0.000   0.000   0.000   0.000   0.000   0.000
  0.000   0.000  -0.483   0.000  -0.000  -0.000   0.000   0.424   0.000   0.000  -0.079   0.037   0.000   0.000   0.000  -0.000
  0.000  -0.000   0.000  -0.727   0.000   0.000   0.000   0.000   0.850   0.000   0.000   0.000   0.000   0.000   0.000   0.000
  0.000   0.000  -0.000   0.000  -0.526   0.000   0.000   0.000   0.000   0.529   0.000  -0.000  -0.108   0.000  -0.000   0.009
  0.000   0.000   0.088   0.000  -0.000   0.000   0.000  -0.079   0.000   0.000   1.102  -0.280  -0.000   0.000   0.000   0.000
  0.000   0.000  -0.021   0.000   0.000   0.000   0.000   0.037   0.000  -0.000  -0.280   0.117   0.000   0.000   0.000  -0.000
 -0.000   0.000  -0.000   0.000   0.050   0.000   0.000   0.000   0.000  -0.108  -0.000   0.000   0.227   0.000   0.000  -0.018
  0.000  -0.000   0.000   0.000   0.000   0.000   0.000   0.000   0.000   0.000   0.000   0.000   0.000   0.276   0.000   0.000
  0.050   0.000   0.000   0.000   0.000  -0.108   0.000   0.000   0.000  -0.000   0.000   0.000   0.000   0.000   0.227  -0.000
  0.000   0.000   0.000   0.000   0.000  -0.000   0.000  -0.000   0.000   0.009   0.000  -0.000  -0.018   0.000  -0.000   0.002
  0.000   0.000   0.000   0.000   0.000   0.000  -0.000   0.000   0.000   0.000   0.000   0.000   0.000  -0.021   0.000   0.000
  0.000   0.000   0.000   0.000   0.000   0.009   0.000  -0.000   0.000   0.000   0.000   0.000  -0.000   0.000  -0.018   0.000


------------------------ aborting loop because EDIFF is reached ----------------------------------------


    CHARGE:  cpu time    0.1143: real time    0.1147
    FORLOC:  cpu time    0.0031: real time    0.0031
    FORNL :  cpu time    0.3358: real time    0.3367
    STRESS:  cpu time    1.4206: real time    1.4240
    FORCOR:  cpu time    0.0175: real time    0.0175
    FORHAR:  cpu time    0.0045: real time    0.0045
    MIXING:  cpu time    0.0009: real time    0.0009
    OFIELD:  cpu time    0.0000: real time    0.0000

  FORCE on cell =-STRESS in cart. coord.  units (eV):
  Direction    XX          YY          ZZ          XY          YZ          ZX
  --------------------------------------------------------------------------------------
  Alpha Z    22.94335    22.94335    22.94335
  Ewald    2703.62889  2703.71739 -3249.07573    -0.00000     0.00000     0.00000
  Hartree  2805.80707  2805.83918 -2779.91652     0.00000    -0.00000    -0.00000
  E(xc)     -71.38513   -71.38741   -72.23291     0.00000    -0.00000    -0.00000
  Local   -5748.04122 -5748.16776  5788.32620     0.00000     0.00000    -0.00000
  n-local    69.48113    69.48034    74.89883    -0.01096     0.00000     0.00000
  augment    -2.78705    -2.78618    -3.50638    -0.00000     0.00000     0.00000
  Kinetic   221.27519   221.32334   218.56358     5.31498     0.00000     0.00000
  Fock        0.00000     0.00000     0.00000     0.00000     0.00000     0.00000
  -------------------------------------------------------------------------------------
  Total       0.92223     0.96224     0.00042     0.00000     0.00000     0.00000
  in kB       7.92483     8.26864     0.00362     0.00000     0.00000     0.00000
  external pressure =        5.40 kB  Pullay stress =        0.00 kB


 VOLUME and BASIS-vectors are now :
 -----------------------------------------------------------------------------
  energy-cutoff  :      800.00
  volume of cell :      186.45
      direct lattice vectors                 reciprocal lattice vectors
     3.282000000  0.000000000  0.000000000     0.304692261 -0.176026587  0.000000000
     1.641000000  2.840480000  0.000000000     0.000000000  0.352053174  0.000000000
     0.000000000  0.000000000 20.000000000     0.000000000  0.000000000  0.050000000

  length of vectors
     3.282000000  3.280427965 20.000000000     0.351884545  0.352053174  0.050000000


 FORCES acting on ions
    electron-ion (+dipol)            ewald-force                    non-local-force                 convergence-correction
 -----------------------------------------------------------------------------------------------
   0.990E-08 -.512E-01 -.125E-08   0.215E-11 0.516E-01 0.000E+00   -.176E-16 -.401E-03 0.000E+00   -.894E-14 0.180E-08 -.382E-11
   0.227E-07 0.268E-01 0.498E+03   -.107E-11 -.258E-01 -.500E+03   0.583E-18 -.980E-03 0.260E+01   0.780E-14 0.995E-09 0.218E-07
   0.219E-07 0.268E-01 -.498E+03   -.107E-11 -.258E-01 0.500E+03   -.138E-17 -.980E-03 -.260E+01   0.609E-14 0.995E-09 -.218E-07
 -----------------------------------------------------------------------------------------------
   0.545E-07 0.237E-02 -.120E-08   -.199E-15 0.408E-14 0.000E+00   -.184E-16 -.236E-02 0.444E-15   0.494E-14 0.379E-08 -.108E-10
 
 
 POSITION                                       TOTAL-FORCE (eV/Angst)
 -----------------------------------------------------------------------------------
      3.28200      0.00057     -0.00000         0.000000      0.000000      0.000000
      1.64100      0.94715     18.30918        -0.000000     -0.000000      0.000000
      1.64100      0.94715      1.69082        -0.000000     -0.000000     -0.000000
 -----------------------------------------------------------------------------------
    total drift:                                0.000000      0.000006     -0.000000


--------------------------------------------------------------------------------------------------------



  FREE ENERGIE OF THE ION-ELECTRON SYSTEM (eV)
  ---------------------------------------------------
  free  energy   TOTEN  =       -21.63238341 eV

  energy  without entropy=      -21.63238341  energy(sigma->0) =      -21.63238341
 
 d Force = 0.6104817E-14[-0.156E-16, 0.122E-13]  d Energy =-0.5229595E-11 0.524E-11
 d Force =-0.1517355E-04[-0.152E-04,-0.152E-04]  d Ewald  =-0.1517362E-04 0.668E-10


--------------------------------------------------------------------------------------------------------


    POTLOK:  cpu time    0.0458: real time    0.0459


--------------------------------------------------------------------------------------------------------


 Conjugate gradient step on ions:
 trial-energy change:    0.000000  1 .order   -0.000000   -0.000000    0.000000
  (g-gl).g = 0.660E-13      g.g   = 0.125E-13  gl.gl    = 0.708E-11
 g(Force)  = 0.125E-13   g(Stress)= 0.000E+00 ortho     =-0.159E-15
 gamma     =   0.00931
 trial     =   0.97757
 opt step  =   0.97633  (harmonic =   0.97633) maximal distance =0.00000002
 next E    =   -21.632383   (d E  =  -0.00000)


--------------------------------------------------------------------------------------------------------


  
 reached required accuracy - stopping structural energy minimisation
     LOOP+:  cpu time    7.9165: real time    8.0168
    4ORBIT:  cpu time    0.0000: real time    0.0000

 total amount of memory used by VASP MPI-rank0   108087. kBytes
=======================================================================

   base      :      30000. kBytes
   nonl-proj :      57369. kBytes
   fftplans  :       7307. kBytes
   grid      :       3744. kBytes
   one-center:         15. kBytes
   wavefun   :       9652. kBytes
 
  
  
 General timing and accounting informations for this job:
 ========================================================
  
                  Total CPU time used (sec):      121.792
                            User time (sec):      115.935
                          System time (sec):        5.856
                         Elapsed time (sec):      123.730
  
                   Maximum memory used (kb):      219956.
                   Average memory used (kb):           0.
  
                          Minor page faults:       805951
                          Major page faults:            0
                 Voluntary context switches:         1619
