<?xml version="1.0" encoding="ISO-8859-1"?>
<modeling>
 <generator>
  <i name="program" type="string">vasp </i>
  <i name="version" type="string">5.4.4.18Apr17-6-g9f103f2a35  </i>
  <i name="subversion" type="string">(build May 31 2018 21:15:54) complex            parallel </i>
  <i name="platform" type="string">c7_intel_O1 </i>
  <i name="date" type="string">2020 08 12 </i>
  <i name="time" type="string">12:17:31 </i>
 </generator>
 <incar>
  <i type="string" name="SYSTEM"> W-1, se-2</i>
  <i type="int" name="ISTART">     0</i>
  <i type="string" name="PREC">accurate</i>
  <i type="string" name="ALGO"> N</i>
  <i type="logical" name="ADDGRID"> T  </i>
  <i name="AMIN">      0.01000000</i>
  <i type="int" name="NELMIN">     5</i>
  <i type="int" name="IBRION">     2</i>
  <i name="EDIFF">      0.00000001</i>
  <i name="EDIFFG">     -0.00000001</i>
  <i type="int" name="NSW">    80</i>
  <i name="SYMPREC">      0.00010000</i>
  <i name="ENCUT">    800.00000000</i>
  <i type="logical" name="LREAL"> F  </i>
  <i type="int" name="ISMEAR">     0</i>
  <i name="SIGMA">      0.01000000</i>
  <i type="logical" name="LWAVE"> F  </i>
  <i type="logical" name="LCHARG"> T  </i>
  <v type="int" name="KPOINT_BSE">    -1     0     0     0</v>
 </incar>
 <structure name="primitive_cell" >
  <crystal>
   <varray name="basis" >
    <v>       3.28200000       0.00000000       0.00000000 </v>
    <v>       1.64100000       2.84048000       0.00000000 </v>
    <v>       0.00000000       0.00000000      20.00000000 </v>
   </varray>
   <i name="volume">    186.44910720 </i>
   <varray name="rec_basis" >
    <v>       0.30469226      -0.17602659       0.00000000 </v>
    <v>       0.00000000       0.35205317       0.00000000 </v>
    <v>       0.00000000       0.00000000       0.05000000 </v>
   </varray>
  </crystal>
  <varray name="positions" >
   <v>      -0.00010000       0.00020000       0.00000000 </v>
   <v>       0.33327700       0.33344600      -0.08454100 </v>
   <v>       0.33327700       0.33344600       0.08454100 </v>
  </varray>
 </structure>
 <varray name="primitive_index" >
  <v type="int" >        1 </v>
  <v type="int" >        2 </v>
  <v type="int" >        3 </v>
 </varray>
 <kpoints>
  <generation param="Gamma">
   <v type="int" name="divisions">      21       21        1 </v>
   <v name="usershift">      0.00000000       0.00000000       0.00000000 </v>
   <v name="genvec1">      0.04761905      -0.00000000       0.00000000 </v>
   <v name="genvec2">      0.00000000       0.04761905       0.00000000 </v>
   <v name="genvec3">      0.00000000       0.00000000       1.00000000 </v>
   <v name="shift">      0.00000000       0.00000000       0.00000000 </v>
  </generation>
  <varray name="kpointlist" >
   <v>       0.00000000       0.00000000       0.00000000 </v>
   <v>       0.04761905       0.00000000       0.00000000 </v>
   <v>       0.09523810       0.00000000       0.00000000 </v>
   <v>       0.14285714       0.00000000       0.00000000 </v>
   <v>       0.19047619       0.00000000       0.00000000 </v>
   <v>       0.23809524       0.00000000       0.00000000 </v>
   <v>       0.28571429       0.00000000       0.00000000 </v>
   <v>       0.33333333       0.00000000       0.00000000 </v>
   <v>       0.38095238       0.00000000       0.00000000 </v>
   <v>       0.42857143       0.00000000       0.00000000 </v>
   <v>       0.47619048       0.00000000       0.00000000 </v>
   <v>       0.00000000       0.04761905       0.00000000 </v>
   <v>       0.09523810       0.04761905       0.00000000 </v>
   <v>       0.14285714       0.04761905       0.00000000 </v>
   <v>       0.19047619       0.04761905       0.00000000 </v>
   <v>       0.23809524       0.04761905       0.00000000 </v>
   <v>       0.28571429       0.04761905       0.00000000 </v>
   <v>       0.33333333       0.04761905       0.00000000 </v>
   <v>       0.38095238       0.04761905       0.00000000 </v>
   <v>       0.42857143       0.04761905       0.00000000 </v>
   <v>       0.47619048       0.04761905       0.00000000 </v>
   <v>      -0.47619048       0.04761905       0.00000000 </v>
   <v>      -0.42857143       0.04761905       0.00000000 </v>
   <v>      -0.38095238       0.04761905       0.00000000 </v>
   <v>      -0.33333333       0.04761905       0.00000000 </v>
   <v>      -0.28571429       0.04761905       0.00000000 </v>
   <v>      -0.23809524       0.04761905       0.00000000 </v>
   <v>      -0.19047619       0.04761905       0.00000000 </v>
   <v>      -0.14285714       0.04761905       0.00000000 </v>
   <v>      -0.09523810       0.04761905       0.00000000 </v>
   <v>      -0.04761905       0.04761905       0.00000000 </v>
   <v>       0.00000000       0.09523810       0.00000000 </v>
   <v>       0.19047619       0.09523810       0.00000000 </v>
   <v>       0.23809524       0.09523810       0.00000000 </v>
   <v>       0.28571429       0.09523810       0.00000000 </v>
   <v>       0.33333333       0.09523810       0.00000000 </v>
   <v>       0.38095238       0.09523810       0.00000000 </v>
   <v>       0.42857143       0.09523810       0.00000000 </v>
   <v>       0.47619048       0.09523810       0.00000000 </v>
   <v>      -0.47619048       0.09523810       0.00000000 </v>
   <v>      -0.42857143       0.09523810       0.00000000 </v>
   <v>      -0.38095238       0.09523810       0.00000000 </v>
   <v>      -0.33333333       0.09523810       0.00000000 </v>
   <v>      -0.28571429       0.09523810       0.00000000 </v>
   <v>      -0.23809524       0.09523810       0.00000000 </v>
   <v>      -0.19047619       0.09523810       0.00000000 </v>
   <v>      -0.14285714       0.09523810       0.00000000 </v>
   <v>      -0.09523810       0.09523810       0.00000000 </v>
   <v>      -0.04761905       0.09523810       0.00000000 </v>
   <v>       0.00000000       0.14285714       0.00000000 </v>
   <v>       0.28571429       0.14285714       0.00000000 </v>
   <v>       0.33333333       0.14285714       0.00000000 </v>
   <v>       0.38095238       0.14285714       0.00000000 </v>
   <v>       0.42857143       0.14285714       0.00000000 </v>
   <v>       0.47619048       0.14285714       0.00000000 </v>
   <v>      -0.47619048       0.14285714       0.00000000 </v>
   <v>      -0.42857143       0.14285714       0.00000000 </v>
   <v>      -0.38095238       0.14285714       0.00000000 </v>
   <v>      -0.33333333       0.14285714       0.00000000 </v>
   <v>      -0.28571429       0.14285714       0.00000000 </v>
   <v>      -0.23809524       0.14285714       0.00000000 </v>
   <v>      -0.19047619       0.14285714       0.00000000 </v>
   <v>      -0.14285714       0.14285714       0.00000000 </v>
   <v>      -0.09523810       0.14285714       0.00000000 </v>
   <v>      -0.04761905       0.14285714       0.00000000 </v>
   <v>       0.00000000       0.19047619       0.00000000 </v>
   <v>       0.38095238       0.19047619       0.00000000 </v>
   <v>       0.42857143       0.19047619       0.00000000 </v>
   <v>       0.47619048       0.19047619       0.00000000 </v>
   <v>      -0.47619048       0.19047619       0.00000000 </v>
   <v>      -0.42857143       0.19047619       0.00000000 </v>
   <v>      -0.38095238       0.19047619       0.00000000 </v>
   <v>      -0.33333333       0.19047619       0.00000000 </v>
   <v>      -0.28571429       0.19047619       0.00000000 </v>
   <v>      -0.23809524       0.19047619       0.00000000 </v>
   <v>      -0.19047619       0.19047619       0.00000000 </v>
   <v>      -0.14285714       0.19047619       0.00000000 </v>
   <v>      -0.09523810       0.19047619       0.00000000 </v>
   <v>      -0.04761905       0.19047619       0.00000000 </v>
   <v>       0.00000000       0.23809524       0.00000000 </v>
   <v>       0.47619048       0.23809524       0.00000000 </v>
   <v>      -0.47619048       0.23809524       0.00000000 </v>
   <v>      -0.42857143       0.23809524       0.00000000 </v>
   <v>      -0.38095238       0.23809524       0.00000000 </v>
   <v>      -0.33333333       0.23809524       0.00000000 </v>
   <v>      -0.28571429       0.23809524       0.00000000 </v>
   <v>      -0.23809524       0.23809524       0.00000000 </v>
   <v>      -0.19047619       0.23809524       0.00000000 </v>
   <v>      -0.14285714       0.23809524       0.00000000 </v>
   <v>      -0.09523810       0.23809524       0.00000000 </v>
   <v>      -0.04761905       0.23809524       0.00000000 </v>
   <v>       0.00000000       0.28571429       0.00000000 </v>
   <v>      -0.42857143       0.28571429       0.00000000 </v>
   <v>      -0.38095238       0.28571429       0.00000000 </v>
   <v>      -0.33333333       0.28571429       0.00000000 </v>
   <v>      -0.28571429       0.28571429       0.00000000 </v>
   <v>      -0.23809524       0.28571429       0.00000000 </v>
   <v>      -0.19047619       0.28571429       0.00000000 </v>
   <v>      -0.14285714       0.28571429       0.00000000 </v>
   <v>      -0.09523810       0.28571429       0.00000000 </v>
   <v>      -0.04761905       0.28571429       0.00000000 </v>
   <v>       0.00000000       0.33333333       0.00000000 </v>
   <v>      -0.33333333       0.33333333       0.00000000 </v>
   <v>      -0.28571429       0.33333333       0.00000000 </v>
   <v>      -0.23809524       0.33333333       0.00000000 </v>
   <v>      -0.19047619       0.33333333       0.00000000 </v>
   <v>      -0.14285714       0.33333333       0.00000000 </v>
   <v>      -0.09523810       0.33333333       0.00000000 </v>
   <v>      -0.04761905       0.33333333       0.00000000 </v>
   <v>       0.00000000       0.38095238       0.00000000 </v>
   <v>      -0.23809524       0.38095238       0.00000000 </v>
   <v>      -0.19047619       0.38095238       0.00000000 </v>
   <v>      -0.14285714       0.38095238       0.00000000 </v>
   <v>      -0.09523810       0.38095238       0.00000000 </v>
   <v>      -0.04761905       0.38095238       0.00000000 </v>
   <v>       0.00000000       0.42857143       0.00000000 </v>
   <v>      -0.14285714       0.42857143       0.00000000 </v>
   <v>      -0.09523810       0.42857143       0.00000000 </v>
   <v>      -0.04761905       0.42857143       0.00000000 </v>
   <v>       0.00000000       0.47619048       0.00000000 </v>
   <v>      -0.04761905       0.47619048       0.00000000 </v>
  </varray>
  <varray name="weights" >
   <v>       0.00226757 </v>
   <v>       0.00907029 </v>
   <v>       0.00907029 </v>
   <v>       0.00907029 </v>
   <v>       0.00907029 </v>
   <v>       0.00907029 </v>
   <v>       0.00907029 </v>
   <v>       0.00907029 </v>
   <v>       0.00907029 </v>
   <v>       0.00907029 </v>
   <v>       0.00907029 </v>
   <v>       0.00453515 </v>
   <v>       0.00453515 </v>
   <v>       0.00907029 </v>
   <v>       0.00907029 </v>
   <v>       0.00907029 </v>
   <v>       0.00907029 </v>
   <v>       0.00907029 </v>
   <v>       0.00907029 </v>
   <v>       0.00907029 </v>
   <v>       0.00907029 </v>
   <v>       0.00907029 </v>
   <v>       0.00907029 </v>
   <v>       0.00907029 </v>
   <v>       0.00907029 </v>
   <v>       0.00907029 </v>
   <v>       0.00907029 </v>
   <v>       0.00907029 </v>
   <v>       0.00907029 </v>
   <v>       0.00907029 </v>
   <v>       0.00907029 </v>
   <v>       0.00453515 </v>
   <v>       0.00453515 </v>
   <v>       0.00907029 </v>
   <v>       0.00907029 </v>
   <v>       0.00907029 </v>
   <v>       0.00907029 </v>
   <v>       0.00907029 </v>
   <v>       0.00907029 </v>
   <v>       0.00907029 </v>
   <v>       0.00907029 </v>
   <v>       0.00907029 </v>
   <v>       0.00907029 </v>
   <v>       0.00907029 </v>
   <v>       0.00907029 </v>
   <v>       0.00907029 </v>
   <v>       0.00907029 </v>
   <v>       0.00907029 </v>
   <v>       0.00907029 </v>
   <v>       0.00453515 </v>
   <v>       0.00453515 </v>
   <v>       0.00907029 </v>
   <v>       0.00907029 </v>
   <v>       0.00907029 </v>
   <v>       0.00907029 </v>
   <v>       0.00907029 </v>
   <v>       0.00907029 </v>
   <v>       0.00907029 </v>
   <v>       0.00907029 </v>
   <v>       0.00907029 </v>
   <v>       0.00907029 </v>
   <v>       0.00907029 </v>
   <v>       0.00907029 </v>
   <v>       0.00907029 </v>
   <v>       0.00907029 </v>
   <v>       0.00453515 </v>
   <v>       0.00453515 </v>
   <v>       0.00907029 </v>
   <v>       0.00907029 </v>
   <v>       0.00907029 </v>
   <v>       0.00907029 </v>
   <v>       0.00907029 </v>
   <v>       0.00907029 </v>
   <v>       0.00907029 </v>
   <v>       0.00907029 </v>
   <v>       0.00907029 </v>
   <v>       0.00907029 </v>
   <v>       0.00907029 </v>
   <v>       0.00907029 </v>
   <v>       0.00453515 </v>
   <v>       0.00453515 </v>
   <v>       0.00907029 </v>
   <v>       0.00907029 </v>
   <v>       0.00907029 </v>
   <v>       0.00907029 </v>
   <v>       0.00907029 </v>
   <v>       0.00907029 </v>
   <v>       0.00907029 </v>
   <v>       0.00907029 </v>
   <v>       0.00907029 </v>
   <v>       0.00907029 </v>
   <v>       0.00453515 </v>
   <v>       0.00453515 </v>
   <v>       0.00907029 </v>
   <v>       0.00907029 </v>
   <v>       0.00907029 </v>
   <v>       0.00907029 </v>
   <v>       0.00907029 </v>
   <v>       0.00907029 </v>
   <v>       0.00907029 </v>
   <v>       0.00907029 </v>
   <v>       0.00453515 </v>
   <v>       0.00453515 </v>
   <v>       0.00907029 </v>
   <v>       0.00907029 </v>
   <v>       0.00907029 </v>
   <v>       0.00907029 </v>
   <v>       0.00907029 </v>
   <v>       0.00907029 </v>
   <v>       0.00453515 </v>
   <v>       0.00453515 </v>
   <v>       0.00907029 </v>
   <v>       0.00907029 </v>
   <v>       0.00907029 </v>
   <v>       0.00907029 </v>
   <v>       0.00453515 </v>
   <v>       0.00453515 </v>
   <v>       0.00907029 </v>
   <v>       0.00907029 </v>
   <v>       0.00453515 </v>
   <v>       0.00453515 </v>
  </varray>
 </kpoints>
 <parameters>
  <separator name="general" >
   <i type="string" name="SYSTEM">W-1, se-2</i>
   <i type="logical" name="LCOMPAT"> F  </i>
  </separator>
  <separator name="electronic" >
   <i type="string" name="PREC">accura</i>
   <i name="ENMAX">    800.00000000</i>
   <i name="ENAUG">    446.84200000</i>
   <i name="EDIFF">      0.00000001</i>
   <i type="int" name="IALGO">    38</i>
   <i type="int" name="IWAVPR">    11</i>
   <i type="int" name="NBANDS">    18</i>
   <i name="NELECT">     18.00000000</i>
   <i type="int" name="TURBO">     0</i>
   <i type="int" name="IRESTART">     0</i>
   <i type="int" name="NREBOOT">     0</i>
   <i type="int" name="NMIN">     0</i>
   <i name="EREF">      0.00000000</i>
   <separator name="electronic smearing" >
    <i type="int" name="ISMEAR">     0</i>
    <i name="SIGMA">      0.01000000</i>
    <i name="KSPACING">      0.50000000</i>
    <i type="logical" name="KGAMMA"> T  </i>
   </separator>
   <separator name="electronic projectors" >
    <i type="logical" name="LREAL"> F  </i>
    <v name="ROPT">      0.00000000      0.00000000</v>
    <i type="int" name="LMAXPAW">  -100</i>
    <i type="int" name="LMAXMIX">     2</i>
    <i type="logical" name="NLSPLINE"> F  </i>
   </separator>
   <separator name="electronic startup" >
    <i type="int" name="ISTART">     0</i>
    <i type="int" name="ICHARG">     2</i>
    <i type="int" name="INIWAV">     1</i>
   </separator>
   <separator name="electronic spin" >
    <i type="int" name="ISPIN">     1</i>
    <i type="logical" name="LNONCOLLINEAR"> F  </i>
    <v name="MAGMOM">      1.00000000      1.00000000      1.00000000</v>
    <i name="NUPDOWN">     -1.00000000</i>
    <i type="logical" name="LSORBIT"> F  </i>
    <v name="SAXIS">      0.00000000      0.00000000      1.00000000</v>
    <i type="logical" name="LSPIRAL"> F  </i>
    <v name="QSPIRAL">      0.00000000      0.00000000      0.00000000</v>
    <i type="logical" name="LZEROZ"> F  </i>
   </separator>
   <separator name="electronic exchange-correlation" >
    <i type="logical" name="LASPH"> F  </i>
    <i type="logical" name="LMETAGGA"> F  </i>
   </separator>
   <separator name="electronic convergence" >
    <i type="int" name="NELM">    60</i>
    <i type="int" name="NELMDL">    -5</i>
    <i type="int" name="NELMIN">     5</i>
    <i name="ENINI">    800.00000000</i>
    <separator name="electronic convergence detail" >
     <i type="logical" name="LDIAG"> T  </i>
     <i type="logical" name="LSUBROT"> F  </i>
     <i name="WEIMIN">      0.00100000</i>
     <i name="EBREAK">      0.00000000</i>
     <i name="DEPER">      0.30000000</i>
     <i type="int" name="NRMM">     4</i>
     <i name="TIME">      0.40000000</i>
    </separator>
   </separator>
   <separator name="electronic mixer" >
    <i name="AMIX">      0.40000000</i>
    <i name="BMIX">      1.00000000</i>
    <i name="AMIN">      0.01000000</i>
    <i name="AMIX_MAG">      1.60000000</i>
    <i name="BMIX_MAG">      1.00000000</i>
    <separator name="electronic mixer details" >
     <i type="int" name="IMIX">     4</i>
     <i type="logical" name="MIXFIRST"> F  </i>
     <i type="int" name="MAXMIX">   -45</i>
     <i name="WC">    100.00000000</i>
     <i type="int" name="INIMIX">     1</i>
     <i type="int" name="MIXPRE">     1</i>
     <i type="int" name="MREMOVE">     5</i>
    </separator>
   </separator>
   <separator name="electronic dipolcorrection" >
    <i type="logical" name="LDIPOL"> F  </i>
    <i type="logical" name="LMONO"> F  </i>
    <i type="int" name="IDIPOL">     0</i>
    <i name="EPSILON">      1.00000000</i>
    <v name="DIPOL">   -100.00000000   -100.00000000   -100.00000000</v>
    <i name="EFIELD">      0.00000000</i>
   </separator>
  </separator>
  <separator name="grids" >
   <i type="int" name="NGX">    30</i>
   <i type="int" name="NGY">    30</i>
   <i type="int" name="NGZ">   192</i>
   <i type="int" name="NGXF">    60</i>
   <i type="int" name="NGYF">    60</i>
   <i type="int" name="NGZF">   384</i>
   <i type="logical" name="ADDGRID"> T  </i>
  </separator>
  <separator name="ionic" >
   <i type="int" name="NSW">    80</i>
   <i type="int" name="IBRION">     2</i>
   <i type="int" name="MDALGO">     0</i>
   <i type="int" name="ISIF">     2</i>
   <i name="PSTRESS">      0.00000000</i>
   <i name="EDIFFG">     -0.00000001</i>
   <i type="int" name="NFREE">     1</i>
   <i name="POTIM">      0.50000000</i>
   <i name="SMASS">     -3.00000000</i>
   <i name="SCALEE">      1.00000000</i>
  </separator>
  <separator name="ionic md" >
   <i name="TEBEG">      0.00010000</i>
   <i name="TEEND">      0.00010000</i>
   <i type="int" name="NBLOCK">     1</i>
   <i type="int" name="KBLOCK">    80</i>
   <i type="int" name="NPACO">   256</i>
   <i name="APACO">     16.00000000</i>
  </separator>
  <separator name="symmetry" >
   <i type="int" name="ISYM">     2</i>
   <i name="SYMPREC">      0.00010000</i>
  </separator>
  <separator name="dos" >
   <i type="int" name="LORBIT">     0</i>
   <v name="RWIGS">     -1.00000000     -1.00000000</v>
   <i type="int" name="NEDOS">   301</i>
   <i name="EMIN">     10.00000000</i>
   <i name="EMAX">    -10.00000000</i>
   <i name="EFERMI">      0.00000000</i>
  </separator>
  <separator name="writing" >
   <i type="int" name="NWRITE">     2</i>
   <i type="logical" name="LWAVE"> F  </i>
   <i type="logical" name="LDOWNSAMPLE"> F  </i>
   <i type="logical" name="LCHARG"> T  </i>
   <i type="logical" name="LPARD"> F  </i>
   <i type="logical" name="LVTOT"> F  </i>
   <i type="logical" name="LVHAR"> F  </i>
   <i type="logical" name="LELF"> F  </i>
   <i type="logical" name="LOPTICS"> F  </i>
   <v name="STM">      0.00000000      0.00000000      0.00000000      0.00000000      0.00000000      0.00000000      0.00000000</v>
  </separator>
  <separator name="performance" >
   <i type="int" name="NPAR">     6</i>
   <i type="int" name="NSIM">     4</i>
   <i type="int" name="NBLK">    -1</i>
   <i type="logical" name="LPLANE"> T  </i>
   <i type="logical" name="LSCALAPACK"> T  </i>
   <i type="logical" name="LSCAAWARE"> F  </i>
   <i type="logical" name="LSCALU"> F  </i>
   <i type="logical" name="LASYNC"> F  </i>
   <i type="logical" name="LORBITALREAL"> F  </i>
  </separator>
  <separator name="miscellaneous" >
   <i type="int" name="IDIOT">     3</i>
   <i type="int" name="ISPECIAL">     0</i>
   <i type="logical" name="LMUSIC"> F  </i>
   <v name="POMASS">    183.85000000     78.96000000</v>
   <v name="DARWINR">      0.00000000      0.00000000</v>
   <v name="DARWINV">      1.00000000      1.00000000</v>
   <i type="logical" name="LCORR"> T  </i>
  </separator>
  <i type="logical" name="GGA_COMPAT"> T  </i>
  <i type="logical" name="LBERRY"> F  </i>
  <i type="int" name="ICORELEVEL">     0</i>
  <i type="logical" name="LDAU"> F  </i>
  <i type="int" name="I_CONSTRAINED_M">     0</i>
  <separator name="electronic exchange-correlation" >
   <i type="string" name="GGA">--</i>
   <i type="int" name="VOSKOWN">     0</i>
   <i type="logical" name="LHFCALC"> F  </i>
   <i type="string" name="PRECFOCK"></i>
   <i type="logical" name="LSYMGRAD"> F  </i>
   <i type="logical" name="LHFONE"> F  </i>
   <i type="logical" name="LRHFCALC"> F  </i>
   <i type="logical" name="LTHOMAS"> F  </i>
   <i type="logical" name="LMODELHF"> F  </i>
   <i name="ENCUT4O">     -1.00000000</i>
   <i type="int" name="EXXOEP">     0</i>
   <i type="int" name="FOURORBIT">     0</i>
   <i name="AEXX">      0.00000000</i>
   <i name="HFALPHA">      0.00000000</i>
   <i name="MCALPHA">      0.00000000</i>
   <i name="ALDAX">      1.00000000</i>
   <i name="AGGAX">      1.00000000</i>
   <i name="ALDAC">      1.00000000</i>
   <i name="AGGAC">      1.00000000</i>
   <i type="int" name="NKREDX">     1</i>
   <i type="int" name="NKREDY">     1</i>
   <i type="int" name="NKREDZ">     1</i>
   <i type="logical" name="SHIFTRED"> F  </i>
   <i type="logical" name="ODDONLY"> F  </i>
   <i type="logical" name="EVENONLY"> F  </i>
   <i type="int" name="LMAXFOCK">     0</i>
   <i type="int" name="NMAXFOCKAE">     0</i>
   <i type="logical" name="LFOCKAEDFT"> F  </i>
   <i name="HFSCREEN">      0.00000000</i>
   <i name="HFSCREENC">      0.00000000</i>
   <i type="int" name="NBANDSGWLOW">     0</i>
  </separator>
  <separator name="vdW DFT" >
   <i type="logical" name="LUSE_VDW"> F  </i>
   <i name="Zab_VDW">     -0.84910000</i>
   <i name="PARAM1">      0.12340000</i>
   <i name="PARAM2">      1.00000000</i>
   <i name="PARAM3">      0.00000000</i>
  </separator>
  <separator name="model GW" >
   <i type="int" name="MODEL_GW">     0</i>
   <i name="MODEL_EPS0">     37.28982144</i>
   <i name="MODEL_ALPHA">      1.00000000</i>
  </separator>
  <separator name="linear response parameters" >
   <i type="logical" name="LEPSILON"> F  </i>
   <i type="logical" name="LRPA"> F  </i>
   <i type="logical" name="LNABLA"> F  </i>
   <i type="logical" name="LVEL"> F  </i>
   <i type="int" name="KINTER">     0</i>
   <i name="CSHIFT">      0.10000000</i>
   <i name="OMEGAMAX">     -1.00000000</i>
   <i name="DEG_THRESHOLD">      0.00200000</i>
   <i name="RTIME">     -0.10000000</i>
   <i name="WPLASMAI">      0.00000000</i>
   <v name="DFIELD">      0.00000000      0.00000000      0.00000000</v>
   <v name="WPLASMA">      0.00000000      0.00000000      0.00000000      0.00000000      0.00000000      0.00000000      0.00000000      0.00000000      0.00000000</v>
  </separator>
  <separator name="orbital magnetization" >
   <i type="logical" name="NUCIND"> F  </i>
   <v name="MAGPOS">      0.00000000      0.00000000      0.00000000</v>
   <i type="logical" name="LNICSALL"> T  </i>
   <i type="logical" name="ORBITALMAG"> F  </i>
   <i type="logical" name="LMAGBLOCH"> F  </i>
   <i type="logical" name="LCHIMAG"> F  </i>
   <i type="logical" name="LGAUGE"> T  </i>
   <i type="int" name="MAGATOM">     0</i>
   <v name="MAGDIPOL">      0.00000000      0.00000000      0.00000000</v>
   <v name="AVECCONST">      0.00000000      0.00000000      0.00000000</v>
  </separator>
  <separator name="response functions" >
   <i type="logical" name="LADDER"> F  </i>
   <i type="logical" name="LRPAFORCE"> F  </i>
   <i type="logical" name="LFXC"> F  </i>
   <i type="logical" name="LHARTREE"> T  </i>
   <i type="int" name="IBSE">     0</i>
   <v type="int" name="KPOINT">    -1     0     0     0</v>
   <i type="logical" name="LTCTE"> F  </i>
   <i type="logical" name="LTETE"> F  </i>
   <i type="logical" name="LTRIPLET"> F  </i>
   <i type="logical" name="LFXCEPS"> F  </i>
   <i type="logical" name="LFXHEG"> F  </i>
   <i type="int" name="NATURALO">     2</i>
   <i type="logical" name="L2ORDER"> F  </i>
   <i type="logical" name="LMP2LT"> F  </i>
   <i type="logical" name="LUSEW"> F  </i>
   <i name="ENCUTGW">     -2.00000000</i>
   <i name="ENCUTGWSOFT">     -2.00000000</i>
   <i name="ENCUTLF">     -1.00000000</i>
   <i type="int" name="LMAXMP2">    -1</i>
   <i name="SCISSOR">      0.00000000</i>
   <i type="int" name="NOMEGA">     0</i>
   <i type="int" name="NOMEGAR">     0</i>
   <i type="int" name="NBANDSGW">    -1</i>
   <i type="int" name="NBANDSO">    -1</i>
   <i type="int" name="NBANDSV">    -1</i>
   <i type="int" name="NELM">     1</i>
   <i type="int" name="NELMHF">     1</i>
   <i type="int" name="DIM">     3</i>
   <i type="int" name="ANTIRES">     0</i>
   <i name="OMEGAMAX">    -30.00000000</i>
   <i name="OMEGAMIN">    -30.00000000</i>
   <i name="OMEGATL">   -200.00000000</i>
   <i type="int" name="OMEGAGRID">   140</i>
   <i name="CSHIFT">     -0.10000000</i>
   <i type="logical" name="SELFENERGY"> F  </i>
   <i type="logical" name="LSPECTRAL"> F  </i>
   <i type="logical" name="LSPECTRALGW"> F  </i>
   <i type="logical" name="LSINGLES"> F  </i>
   <i type="logical" name="LFERMIGW"> F  </i>
   <i type="logical" name="ODDONLYGW"> F  </i>
   <i type="logical" name="EVENONLYGW"> F  </i>
   <i type="int" name="NKREDLFX">     1</i>
   <i type="int" name="NKREDLFY">     1</i>
   <i type="int" name="NKREDLFZ">     1</i>
   <i type="int" name="MAXMEM">  2800</i>
   <i type="int" name="TELESCOPE">     0</i>
   <i type="int" name="TAUPAR">     1</i>
   <i type="int" name="OMEGAPAR">    -1</i>
   <i name="LAMBDA">      1.00000000</i>
  </separator>
  <separator name="External order field" >
   <i name="OFIELD_KAPPA">      0.00000000</i>
   <v name="OFIELD_K">      0.00000000      0.00000000      0.00000000</v>
   <i name="OFIELD_Q6_NEAR">      0.00000000</i>
   <i name="OFIELD_Q6_FAR">      0.00000000</i>
   <i name="OFIELD_A">      0.00000000</i>
  </separator>
 </parameters>
 <atominfo>
  <atoms>       3 </atoms>
  <types>       2 </types>
  <array name="atoms" >
   <dimension dim="1">ion</dimension>
   <field type="string">element</field>
   <field type="int">atomtype</field>
   <set>
    <rc><c>W </c><c>   1</c></rc>
    <rc><c>Se</c><c>   2</c></rc>
    <rc><c>Se</c><c>   2</c></rc>
   </set>
  </array>
  <array name="atomtypes" >
   <dimension dim="1">type</dimension>
   <field type="int">atomspertype</field>
   <field type="string">element</field>
   <field>mass</field>
   <field>valence</field>
   <field type="string">pseudopotential</field>
   <set>
    <rc><c>   1</c><c>W </c><c>    183.85000000</c><c>      6.00000000</c><c> PAW_PBE W 08Apr2002                    </c></rc>
    <rc><c>   2</c><c>Se</c><c>     78.96000000</c><c>      6.00000000</c><c> PAW_PBE Se 06Sep2000                   </c></rc>
   </set>
  </array>
 </atominfo>
 <structure name="initialpos" >
  <crystal>
   <varray name="basis" >
    <v>       3.28200000       0.00000000       0.00000000 </v>
    <v>       1.64100000       2.84048000       0.00000000 </v>
    <v>       0.00000000       0.00000000      20.00000000 </v>
   </varray>
   <i name="volume">    186.44910720 </i>
   <varray name="rec_basis" >
    <v>       0.30469226      -0.17602659       0.00000000 </v>
    <v>       0.00000000       0.35205317       0.00000000 </v>
    <v>       0.00000000       0.00000000       0.05000000 </v>
   </varray>
  </crystal>
  <varray name="positions" >
   <v>       0.99990000       0.00020000       0.00000000 </v>
   <v>       0.33327700       0.33344600       0.91545900 </v>
   <v>       0.33327700       0.33344600       0.08454100 </v>
  </varray>
 </structure>
 <calculation>
  <scstep>
   <time name="dav">    1.46    1.47</time>
   <time name="total">    1.52    1.54</time>
   <energy>
    <i name="alphaZ">     22.94334738 </i>
    <i name="ewald">   2158.26868162 </i>
    <i name="hartreedc">  -2819.40721861 </i>
    <i name="XCdc">    -48.79646308 </i>
    <i name="pawpsdc">    394.08237266 </i>
    <i name="pawaedc">   -307.39168671 </i>
    <i name="eentropy">     -0.00011520 </i>
    <i name="bandstr">      6.72068670 </i>
    <i name="atom">    718.53809099 </i>
    <i name="e_fr_energy">    124.95769575 </i>
    <i name="e_wo_entrp">    124.95781095 </i>
    <i name="e_0_energy">    124.95775335 </i>
   </energy>
  </scstep>
  <scstep>
   <time name="dav">    2.02    2.02</time>
   <time name="total">    2.02    2.03</time>
   <energy>
    <i name="e_fr_energy">    -10.84535161 </i>
    <i name="e_wo_entrp">    -10.84535161 </i>
    <i name="e_0_energy">    -10.84535161 </i>
   </energy>
  </scstep>
  <scstep>
   <time name="dav">    1.82    1.83</time>
   <time name="total">    1.82    1.83</time>
   <energy>
    <i name="e_fr_energy">    -22.49267222 </i>
    <i name="e_wo_entrp">    -22.49267222 </i>
    <i name="e_0_energy">    -22.49267222 </i>
   </energy>
  </scstep>
  <scstep>
   <time name="dav">    1.80    1.81</time>
   <time name="total">    1.80    1.81</time>
   <energy>
    <i name="e_fr_energy">    -22.68416256 </i>
    <i name="e_wo_entrp">    -22.68416256 </i>
    <i name="e_0_energy">    -22.68416256 </i>
   </energy>
  </scstep>
  <scstep>
   <time name="dav">    1.83    1.84</time>
   <time name="total">    1.95    1.96</time>
   <energy>
    <i name="e_fr_energy">    -22.68605850 </i>
    <i name="e_wo_entrp">    -22.68605850 </i>
    <i name="e_0_energy">    -22.68605850 </i>
   </energy>
  </scstep>
  <scstep>
   <time name="dav">    1.92    1.92</time>
   <time name="total">    2.08    2.09</time>
   <energy>
    <i name="e_fr_energy">    -21.88025779 </i>
    <i name="e_wo_entrp">    -21.88025779 </i>
    <i name="e_0_energy">    -21.88025779 </i>
   </energy>
  </scstep>
  <scstep>
   <time name="dav">    2.00    2.01</time>
   <time name="total">    2.17    2.18</time>
   <energy>
    <i name="e_fr_energy">    -21.69886813 </i>
    <i name="e_wo_entrp">    -21.69886813 </i>
    <i name="e_0_energy">    -21.69886813 </i>
   </energy>
  </scstep>
  <scstep>
   <time name="dav">    1.72    1.72</time>
   <time name="total">    1.89    1.89</time>
   <energy>
    <i name="e_fr_energy">    -21.63821116 </i>
    <i name="e_wo_entrp">    -21.63821116 </i>
    <i name="e_0_energy">    -21.63821116 </i>
   </energy>
  </scstep>
  <scstep>
   <time name="dav">    1.73    1.73</time>
   <time name="total">    1.90    1.90</time>
   <energy>
    <i name="e_fr_energy">    -21.63535433 </i>
    <i name="e_wo_entrp">    -21.63535433 </i>
    <i name="e_0_energy">    -21.63535433 </i>
   </energy>
  </scstep>
  <scstep>
   <time name="dav">    1.72    1.73</time>
   <time name="total">    1.89    1.90</time>
   <energy>
    <i name="e_fr_energy">    -21.63344196 </i>
    <i name="e_wo_entrp">    -21.63344196 </i>
    <i name="e_0_energy">    -21.63344196 </i>
   </energy>
  </scstep>
  <scstep>
   <time name="dav">    1.87    1.87</time>
   <time name="total">    2.04    2.05</time>
   <energy>
    <i name="e_fr_energy">    -21.63270361 </i>
    <i name="e_wo_entrp">    -21.63270361 </i>
    <i name="e_0_energy">    -21.63270361 </i>
   </energy>
  </scstep>
  <scstep>
   <time name="dav">    1.74    1.75</time>
   <time name="total">    1.96    1.96</time>
   <energy>
    <i name="e_fr_energy">    -21.63150205 </i>
    <i name="e_wo_entrp">    -21.63150205 </i>
    <i name="e_0_energy">    -21.63150205 </i>
   </energy>
  </scstep>
  <scstep>
   <time name="dav">    1.52    1.53</time>
   <time name="total">    1.69    1.69</time>
   <energy>
    <i name="e_fr_energy">    -21.63055731 </i>
    <i name="e_wo_entrp">    -21.63055731 </i>
    <i name="e_0_energy">    -21.63055731 </i>
   </energy>
  </scstep>
  <scstep>
   <time name="dav">    1.87    1.88</time>
   <time name="total">    2.04    2.04</time>
   <energy>
    <i name="e_fr_energy">    -21.63028713 </i>
    <i name="e_wo_entrp">    -21.63028713 </i>
    <i name="e_0_energy">    -21.63028713 </i>
   </energy>
  </scstep>
  <scstep>
   <time name="dav">    1.58    1.58</time>
   <time name="total">    1.74    1.75</time>
   <energy>
    <i name="e_fr_energy">    -21.63125898 </i>
    <i name="e_wo_entrp">    -21.63125898 </i>
    <i name="e_0_energy">    -21.63125898 </i>
   </energy>
  </scstep>
  <scstep>
   <time name="dav">    1.72    1.72</time>
   <time name="total">    1.88    1.89</time>
   <energy>
    <i name="e_fr_energy">    -21.63201667 </i>
    <i name="e_wo_entrp">    -21.63201667 </i>
    <i name="e_0_energy">    -21.63201667 </i>
   </energy>
  </scstep>
  <scstep>
   <time name="dav">    1.77    1.77</time>
   <time name="total">    1.94    1.94</time>
   <energy>
    <i name="e_fr_energy">    -21.63218768 </i>
    <i name="e_wo_entrp">    -21.63218768 </i>
    <i name="e_0_energy">    -21.63218768 </i>
   </energy>
  </scstep>
  <scstep>
   <time name="dav">    1.57    1.57</time>
   <time name="total">    1.73    1.74</time>
   <energy>
    <i name="e_fr_energy">    -21.63235313 </i>
    <i name="e_wo_entrp">    -21.63235313 </i>
    <i name="e_0_energy">    -21.63235313 </i>
   </energy>
  </scstep>
  <scstep>
   <time name="dav">    1.82    1.83</time>
   <time name="total">    1.99    1.99</time>
   <energy>
    <i name="e_fr_energy">    -21.63237876 </i>
    <i name="e_wo_entrp">    -21.63237876 </i>
    <i name="e_0_energy">    -21.63237876 </i>
   </energy>
  </scstep>
  <scstep>
   <time name="dav">    1.66    1.66</time>
   <time name="total">    1.82    1.83</time>
   <energy>
    <i name="e_fr_energy">    -21.63238257 </i>
    <i name="e_wo_entrp">    -21.63238257 </i>
    <i name="e_0_energy">    -21.63238257 </i>
   </energy>
  </scstep>
  <scstep>
   <time name="dav">    1.90    1.90</time>
   <time name="total">    2.07    2.07</time>
   <energy>
    <i name="e_fr_energy">    -21.63238302 </i>
    <i name="e_wo_entrp">    -21.63238302 </i>
    <i name="e_0_energy">    -21.63238302 </i>
   </energy>
  </scstep>
  <scstep>
   <time name="dav">    1.55    1.55</time>
   <time name="total">    1.72    1.72</time>
   <energy>
    <i name="e_fr_energy">    -21.63238334 </i>
    <i name="e_wo_entrp">    -21.63238334 </i>
    <i name="e_0_energy">    -21.63238334 </i>
   </energy>
  </scstep>
  <scstep>
   <time name="dav">    1.74    1.74</time>
   <time name="total">    1.91    1.91</time>
   <energy>
    <i name="e_fr_energy">    -21.63238339 </i>
    <i name="e_wo_entrp">    -21.63238339 </i>
    <i name="e_0_energy">    -21.63238339 </i>
   </energy>
  </scstep>
  <scstep>
   <time name="dav">    1.63    1.64</time>
   <time name="total">    1.80    1.81</time>
   <energy>
    <i name="e_fr_energy">    -21.63238341 </i>
    <i name="e_wo_entrp">    -21.63238341 </i>
    <i name="e_0_energy">    -21.63238341 </i>
   </energy>
  </scstep>
  <scstep>
   <time name="dav">    1.55    1.56</time>
   <time name="total">    1.60    1.60</time>
   <energy>
    <i name="alphaZ">     22.94334738 </i>
    <i name="ewald">   2158.26868162 </i>
    <i name="hartreedc">  -2831.72787418 </i>
    <i name="XCdc">    -47.72562253 </i>
    <i name="pawpsdc">    466.08121444 </i>
    <i name="pawaedc">   -380.96752992 </i>
    <i name="eentropy">     -0.00000000 </i>
    <i name="bandstr">   -127.04269121 </i>
    <i name="atom">    718.53809099 </i>
    <i name="e_fr_energy">    -21.63238341 </i>
    <i name="e_wo_entrp">    -21.63238341 </i>
    <i name="e_0_energy">    -21.63238341 </i>
   </energy>
  </scstep>
  <structure>
   <crystal>
    <varray name="basis" >
     <v>       3.28200000       0.00000000       0.00000000 </v>
     <v>       1.64100000       2.84048000       0.00000000 </v>
     <v>       0.00000000       0.00000000      20.00000000 </v>
    </varray>
    <i name="volume">    186.44910720 </i>
    <varray name="rec_basis" >
     <v>       0.30469226      -0.17602659       0.00000000 </v>
     <v>       0.00000000       0.35205317       0.00000000 </v>
     <v>       0.00000000       0.00000000       0.05000000 </v>
    </varray>
   </crystal>
   <varray name="positions" >
    <v>       0.99990000       0.00020000       0.00000000 </v>
    <v>       0.33327700       0.33344600       0.91545900 </v>
    <v>       0.33327700       0.33344600       0.08454100 </v>
   </varray>
  </structure>
  <varray name="forces" >
   <v>      -0.00000000      -0.00002264      -0.00000000 </v>
   <v>       0.00000000       0.00001132       0.00003412 </v>
   <v>      -0.00000000       0.00001132      -0.00003412 </v>
  </varray>
  <varray name="stress" >
   <v>       7.92452909       0.00000000       0.00000000 </v>
   <v>       0.00000000       8.26818823       0.00000000 </v>
   <v>       0.00000000       0.00000000       0.00261098 </v>
  </varray>
  <energy>
   <i name="e_fr_energy">    -21.63238341 </i>
   <i name="e_wo_entrp">    -21.63238341 </i>
   <i name="e_0_energy">     -0.00000000 </i>
  </energy>
  <time name="totalsc">   49.90   50.26</time>
 </calculation>
 <calculation>
  <scstep>
   <time name="dav">    1.62    1.62</time>
   <time name="total">    1.79    1.82</time>
   <energy>
    <i name="alphaZ">     22.94334738 </i>
    <i name="ewald">   2158.27032900 </i>
    <i name="hartreedc">  -2831.72944626 </i>
    <i name="XCdc">    -47.72561487 </i>
    <i name="pawpsdc">    466.08120772 </i>
    <i name="pawaedc">   -380.96752320 </i>
    <i name="eentropy">     -0.00000000 </i>
    <i name="bandstr">   -127.04277417 </i>
    <i name="atom">    718.53809099 </i>
    <i name="e_fr_energy">    -21.63238341 </i>
    <i name="e_wo_entrp">    -21.63238341 </i>
    <i name="e_0_energy">    -21.63238341 </i>
   </energy>
  </scstep>
  <scstep>
   <time name="dav">    1.31    1.31</time>
   <time name="total">    1.47    1.48</time>
   <energy>
    <i name="e_fr_energy">    -21.63238341 </i>
    <i name="e_wo_entrp">    -21.63238341 </i>
    <i name="e_0_energy">    -21.63238341 </i>
   </energy>
  </scstep>
  <scstep>
   <time name="dav">    1.33    1.34</time>
   <time name="total">    1.50    1.50</time>
   <energy>
    <i name="e_fr_energy">    -21.63238341 </i>
    <i name="e_wo_entrp">    -21.63238341 </i>
    <i name="e_0_energy">    -21.63238341 </i>
   </energy>
  </scstep>
  <scstep>
   <time name="dav">    1.22    1.22</time>
   <time name="total">    1.41    1.41</time>
   <energy>
    <i name="e_fr_energy">    -21.63238341 </i>
    <i name="e_wo_entrp">    -21.63238341 </i>
    <i name="e_0_energy">    -21.63238341 </i>
   </energy>
  </scstep>
  <scstep>
   <time name="dav">    1.27    1.27</time>
   <time name="total">    1.31    1.32</time>
   <energy>
    <i name="alphaZ">     22.94334738 </i>
    <i name="ewald">   2158.27032900 </i>
    <i name="hartreedc">  -2831.72944877 </i>
    <i name="XCdc">    -47.72561567 </i>
    <i name="pawpsdc">    466.08153716 </i>
    <i name="pawaedc">   -380.96785589 </i>
    <i name="eentropy">     -0.00000000 </i>
    <i name="bandstr">   -127.04276762 </i>
    <i name="atom">    718.53809099 </i>
    <i name="e_fr_energy">    -21.63238341 </i>
    <i name="e_wo_entrp">    -21.63238341 </i>
    <i name="e_0_energy">    -21.63238341 </i>
   </energy>
  </scstep>
  <structure>
   <crystal>
    <varray name="basis" >
     <v>       3.28200000       0.00000000       0.00000000 </v>
     <v>       1.64100000       2.84048000       0.00000000 </v>
     <v>       0.00000000       0.00000000      20.00000000 </v>
    </varray>
    <i name="volume">    186.44910720 </i>
    <varray name="rec_basis" >
     <v>       0.30469226      -0.17602659       0.00000000 </v>
     <v>       0.00000000       0.35205317       0.00000000 </v>
     <v>       0.00000000       0.00000000       0.05000000 </v>
    </varray>
   </crystal>
   <varray name="positions" >
    <v>       0.99990019       0.00019962      -0.00000000 </v>
    <v>       0.33327690       0.33344619       0.91545908 </v>
    <v>       0.33327690       0.33344619       0.08454092 </v>
   </varray>
  </structure>
  <varray name="forces" >
   <v>      -0.00000000       0.00000769       0.00000000 </v>
   <v>       0.00000000      -0.00000384       0.00000508 </v>
   <v>       0.00000000      -0.00000384      -0.00000508 </v>
  </varray>
  <varray name="stress" >
   <v>       7.92474087       0.00000000       0.00000000 </v>
   <v>       0.00000000       8.26859993       0.00000000 </v>
   <v>       0.00000000       0.00000000       0.00344335 </v>
  </varray>
  <energy>
   <i name="e_fr_energy">    -21.63238341 </i>
   <i name="e_wo_entrp">    -21.63238341 </i>
   <i name="e_0_energy">     -0.00000000 </i>
  </energy>
  <time name="totalsc">    9.74    9.85</time>
 </calculation>
 <calculation>
  <scstep>
   <time name="dav">    1.29    1.29</time>
   <time name="total">    1.47    1.48</time>
   <energy>
    <i name="alphaZ">     22.94334738 </i>
    <i name="ewald">   2158.27037568 </i>
    <i name="hartreedc">  -2831.72949104 </i>
    <i name="XCdc">    -47.72561548 </i>
    <i name="pawpsdc">    466.08153756 </i>
    <i name="pawaedc">   -380.96785633 </i>
    <i name="eentropy">     -0.00000000 </i>
    <i name="bandstr">   -127.04277218 </i>
    <i name="atom">    718.53809099 </i>
    <i name="e_fr_energy">    -21.63238341 </i>
    <i name="e_wo_entrp">    -21.63238341 </i>
    <i name="e_0_energy">    -21.63238341 </i>
   </energy>
  </scstep>
  <scstep>
   <time name="dav">    1.32    1.32</time>
   <time name="total">    1.49    1.49</time>
   <energy>
    <i name="e_fr_energy">    -21.63238341 </i>
    <i name="e_wo_entrp">    -21.63238341 </i>
    <i name="e_0_energy">    -21.63238341 </i>
   </energy>
  </scstep>
  <scstep>
   <time name="dav">    1.27    1.27</time>
   <time name="total">    1.43    1.44</time>
   <energy>
    <i name="e_fr_energy">    -21.63238341 </i>
    <i name="e_wo_entrp">    -21.63238341 </i>
    <i name="e_0_energy">    -21.63238341 </i>
   </energy>
  </scstep>
  <scstep>
   <time name="dav">    1.30    1.30</time>
   <time name="total">    1.47    1.47</time>
   <energy>
    <i name="e_fr_energy">    -21.63238341 </i>
    <i name="e_wo_entrp">    -21.63238341 </i>
    <i name="e_0_energy">    -21.63238341 </i>
   </energy>
  </scstep>
  <scstep>
   <time name="dav">    1.28    1.29</time>
   <time name="total">    1.33    1.33</time>
   <energy>
    <i name="alphaZ">     22.94334738 </i>
    <i name="ewald">   2158.27037568 </i>
    <i name="hartreedc">  -2831.72948691 </i>
    <i name="XCdc">    -47.72561554 </i>
    <i name="pawpsdc">    466.08155131 </i>
    <i name="pawaedc">   -380.96787021 </i>
    <i name="eentropy">     -0.00000000 </i>
    <i name="bandstr">   -127.04277612 </i>
    <i name="atom">    718.53809099 </i>
    <i name="e_fr_energy">    -21.63238341 </i>
    <i name="e_wo_entrp">    -21.63238341 </i>
    <i name="e_0_energy">    -21.63238341 </i>
   </energy>
  </scstep>
  <structure>
   <crystal>
    <varray name="basis" >
     <v>       3.28200000       0.00000000       0.00000000 </v>
     <v>       1.64100000       2.84048000       0.00000000 </v>
     <v>       0.00000000       0.00000000      20.00000000 </v>
    </varray>
    <i name="volume">    186.44910720 </i>
    <varray name="rec_basis" >
     <v>       0.30469226      -0.17602659       0.00000000 </v>
     <v>       0.00000000       0.35205317       0.00000000 </v>
     <v>       0.00000000       0.00000000       0.05000000 </v>
    </varray>
   </crystal>
   <varray name="positions" >
    <v>       0.99990020       0.00019960      -0.00000000 </v>
    <v>       0.33327690       0.33344620       0.91545908 </v>
    <v>       0.33327690       0.33344620       0.08454092 </v>
   </varray>
  </structure>
  <varray name="forces" >
   <v>       0.00000000       0.00000840       0.00000000 </v>
   <v>       0.00000000      -0.00000420       0.00000452 </v>
   <v>      -0.00000000      -0.00000420      -0.00000452 </v>
  </varray>
  <varray name="stress" >
   <v>       7.92475061       0.00000000       0.00000000 </v>
   <v>       0.00000000       8.26861516       0.00000000 </v>
   <v>       0.00000000       0.00000000       0.00348022 </v>
  </varray>
  <energy>
   <i name="e_fr_energy">    -21.63238341 </i>
   <i name="e_wo_entrp">    -21.63238341 </i>
   <i name="e_0_energy">     -0.00000000 </i>
  </energy>
  <time name="totalsc">    9.26    9.36</time>
 </calculation>
 <calculation>
  <scstep>
   <time name="dav">    1.26    1.26</time>
   <time name="total">    1.44    1.46</time>
   <energy>
    <i name="alphaZ">     22.94334738 </i>
    <i name="ewald">   2158.27066138 </i>
    <i name="hartreedc">  -2831.72976015 </i>
    <i name="XCdc">    -47.72561421 </i>
    <i name="pawpsdc">    466.08155096 </i>
    <i name="pawaedc">   -380.96786985 </i>
    <i name="eentropy">     -0.00000000 </i>
    <i name="bandstr">   -127.04278992 </i>
    <i name="atom">    718.53809099 </i>
    <i name="e_fr_energy">    -21.63238341 </i>
    <i name="e_wo_entrp">    -21.63238341 </i>
    <i name="e_0_energy">    -21.63238341 </i>
   </energy>
  </scstep>
  <scstep>
   <time name="dav">    1.09    1.09</time>
   <time name="total">    1.26    1.26</time>
   <energy>
    <i name="e_fr_energy">    -21.63238341 </i>
    <i name="e_wo_entrp">    -21.63238341 </i>
    <i name="e_0_energy">    -21.63238341 </i>
   </energy>
  </scstep>
  <scstep>
   <time name="dav">    1.04    1.05</time>
   <time name="total">    1.22    1.22</time>
   <energy>
    <i name="e_fr_energy">    -21.63238341 </i>
    <i name="e_wo_entrp">    -21.63238341 </i>
    <i name="e_0_energy">    -21.63238341 </i>
   </energy>
  </scstep>
  <scstep>
   <time name="dav">    1.05    1.05</time>
   <time name="total">    1.21    1.21</time>
   <energy>
    <i name="e_fr_energy">    -21.63238341 </i>
    <i name="e_wo_entrp">    -21.63238341 </i>
    <i name="e_0_energy">    -21.63238341 </i>
   </energy>
  </scstep>
  <scstep>
   <time name="dav">    1.11    1.11</time>
   <time name="total">    1.16    1.16</time>
   <energy>
    <i name="alphaZ">     22.94334738 </i>
    <i name="ewald">   2158.27066138 </i>
    <i name="hartreedc">  -2831.72975939 </i>
    <i name="XCdc">    -47.72561436 </i>
    <i name="pawpsdc">    466.08160837 </i>
    <i name="pawaedc">   -380.96792783 </i>
    <i name="eentropy">     -0.00000000 </i>
    <i name="bandstr">   -127.04278998 </i>
    <i name="atom">    718.53809099 </i>
    <i name="e_fr_energy">    -21.63238341 </i>
    <i name="e_wo_entrp">    -21.63238341 </i>
    <i name="e_0_energy">    -21.63238341 </i>
   </energy>
  </scstep>
  <structure>
   <crystal>
    <varray name="basis" >
     <v>       3.28200000       0.00000000       0.00000000 </v>
     <v>       1.64100000       2.84048000       0.00000000 </v>
     <v>       0.00000000       0.00000000      20.00000000 </v>
    </varray>
    <i name="volume">    186.44910720 </i>
    <varray name="rec_basis" >
     <v>       0.30469226      -0.17602659       0.00000000 </v>
     <v>       0.00000000       0.35205317       0.00000000 </v>
     <v>       0.00000000       0.00000000       0.05000000 </v>
    </varray>
   </crystal>
   <varray name="positions" >
    <v>       0.99990013       0.00019973      -0.00000000 </v>
    <v>       0.33327693       0.33344613       0.91545910 </v>
    <v>       0.33327693       0.33344613       0.08454090 </v>
   </varray>
  </structure>
  <varray name="forces" >
   <v>      -0.00000000      -0.00000196       0.00000000 </v>
   <v>      -0.00000000       0.00000098      -0.00000047 </v>
   <v>       0.00000000       0.00000098       0.00000047 </v>
  </varray>
  <varray name="stress" >
   <v>       7.92483698       0.00000000       0.00000000 </v>
   <v>       0.00000000       8.26863495       0.00000000 </v>
   <v>       0.00000000       0.00000000       0.00362426 </v>
  </varray>
  <energy>
   <i name="e_fr_energy">    -21.63238341 </i>
   <i name="e_wo_entrp">    -21.63238341 </i>
   <i name="e_0_energy">     -0.00000000 </i>
  </energy>
  <time name="totalsc">    8.35    8.45</time>
 </calculation>
 <calculation>
  <scstep>
   <time name="dav">    1.04    1.04</time>
   <time name="total">    1.21    1.23</time>
   <energy>
    <i name="alphaZ">     22.94334738 </i>
    <i name="ewald">   2158.27061648 </i>
    <i name="hartreedc">  -2831.72971584 </i>
    <i name="XCdc">    -47.72561458 </i>
    <i name="pawpsdc">    466.08160853 </i>
    <i name="pawaedc">   -380.96792799 </i>
    <i name="eentropy">     -0.00000000 </i>
    <i name="bandstr">   -127.04278840 </i>
    <i name="atom">    718.53809099 </i>
    <i name="e_fr_energy">    -21.63238341 </i>
    <i name="e_wo_entrp">    -21.63238341 </i>
    <i name="e_0_energy">    -21.63238341 </i>
   </energy>
  </scstep>
  <scstep>
   <time name="dav">    1.03    1.03</time>
   <time name="total">    1.20    1.20</time>
   <energy>
    <i name="e_fr_energy">    -21.63238341 </i>
    <i name="e_wo_entrp">    -21.63238341 </i>
    <i name="e_0_energy">    -21.63238341 </i>
   </energy>
  </scstep>
  <scstep>
   <time name="dav">    1.02    1.02</time>
   <time name="total">    1.19    1.19</time>
   <energy>
    <i name="e_fr_energy">    -21.63238341 </i>
    <i name="e_wo_entrp">    -21.63238341 </i>
    <i name="e_0_energy">    -21.63238341 </i>
   </energy>
  </scstep>
  <scstep>
   <time name="dav">    1.02    1.03</time>
   <time name="total">    1.21    1.21</time>
   <energy>
    <i name="e_fr_energy">    -21.63238341 </i>
    <i name="e_wo_entrp">    -21.63238341 </i>
    <i name="e_0_energy">    -21.63238341 </i>
   </energy>
  </scstep>
  <scstep>
   <time name="dav">    1.09    1.10</time>
   <time name="total">    1.14    1.14</time>
   <energy>
    <i name="alphaZ">     22.94334738 </i>
    <i name="ewald">   2158.27061648 </i>
    <i name="hartreedc">  -2831.72971410 </i>
    <i name="XCdc">    -47.72561456 </i>
    <i name="pawpsdc">    466.08159917 </i>
    <i name="pawaedc">   -380.96791854 </i>
    <i name="eentropy">     -0.00000000 </i>
    <i name="bandstr">   -127.04279024 </i>
    <i name="atom">    718.53809099 </i>
    <i name="e_fr_energy">    -21.63238341 </i>
    <i name="e_wo_entrp">    -21.63238341 </i>
    <i name="e_0_energy">    -21.63238341 </i>
   </energy>
  </scstep>
  <structure>
   <crystal>
    <varray name="basis" >
     <v>       3.28200000       0.00000000       0.00000000 </v>
     <v>       1.64100000       2.84048000       0.00000000 </v>
     <v>       0.00000000       0.00000000      20.00000000 </v>
    </varray>
    <i name="volume">    186.44910720 </i>
    <varray name="rec_basis" >
     <v>       0.30469226      -0.17602659       0.00000000 </v>
     <v>       0.00000000       0.35205317       0.00000000 </v>
     <v>       0.00000000       0.00000000       0.05000000 </v>
    </varray>
   </crystal>
   <varray name="positions" >
    <v>       0.99990014       0.00019971      -0.00000000 </v>
    <v>       0.33327693       0.33344614       0.91545910 </v>
    <v>       0.33327693       0.33344614       0.08454090 </v>
   </varray>
  </structure>
  <varray name="forces" >
   <v>      -0.00000000      -0.00000005      -0.00000000 </v>
   <v>      -0.00000000       0.00000002       0.00000036 </v>
   <v>       0.00000000       0.00000002      -0.00000036 </v>
  </varray>
  <varray name="stress" >
   <v>       7.92482476       0.00000000       0.00000000 </v>
   <v>       0.00000000       8.26863312       0.00000000 </v>
   <v>       0.00000000       0.00000000       0.00360530 </v>
  </varray>
  <energy>
   <i name="e_fr_energy">    -21.63238341 </i>
   <i name="e_wo_entrp">    -21.63238341 </i>
   <i name="e_0_energy">     -0.00000000 </i>
  </energy>
  <time name="totalsc">    8.02    8.12</time>
 </calculation>
 <calculation>
  <scstep>
   <time name="dav">    1.06    1.07</time>
   <time name="total">    1.24    1.26</time>
   <energy>
    <i name="alphaZ">     22.94334738 </i>
    <i name="ewald">   2158.27062190 </i>
    <i name="hartreedc">  -2831.72971916 </i>
    <i name="XCdc">    -47.72561454 </i>
    <i name="pawpsdc">    466.08159921 </i>
    <i name="pawaedc">   -380.96791858 </i>
    <i name="eentropy">     -0.00000000 </i>
    <i name="bandstr">   -127.04279063 </i>
    <i name="atom">    718.53809099 </i>
    <i name="e_fr_energy">    -21.63238341 </i>
    <i name="e_wo_entrp">    -21.63238341 </i>
    <i name="e_0_energy">    -21.63238341 </i>
   </energy>
  </scstep>
  <scstep>
   <time name="dav">    1.04    1.04</time>
   <time name="total">    1.20    1.21</time>
   <energy>
    <i name="e_fr_energy">    -21.63238341 </i>
    <i name="e_wo_entrp">    -21.63238341 </i>
    <i name="e_0_energy">    -21.63238341 </i>
   </energy>
  </scstep>
  <scstep>
   <time name="dav">    1.07    1.07</time>
   <time name="total">    1.23    1.24</time>
   <energy>
    <i name="e_fr_energy">    -21.63238341 </i>
    <i name="e_wo_entrp">    -21.63238341 </i>
    <i name="e_0_energy">    -21.63238341 </i>
   </energy>
  </scstep>
  <scstep>
   <time name="dav">    1.21    1.21</time>
   <time name="total">    1.37    1.38</time>
   <energy>
    <i name="e_fr_energy">    -21.63238341 </i>
    <i name="e_wo_entrp">    -21.63238341 </i>
    <i name="e_0_energy">    -21.63238341 </i>
   </energy>
  </scstep>
  <scstep>
   <time name="dav">    1.11    1.12</time>
   <time name="total">    1.16    1.17</time>
   <energy>
    <i name="alphaZ">     22.94334738 </i>
    <i name="ewald">   2158.27062190 </i>
    <i name="hartreedc">  -2831.72971799 </i>
    <i name="XCdc">    -47.72561455 </i>
    <i name="pawpsdc">    466.08160059 </i>
    <i name="pawaedc">   -380.96791996 </i>
    <i name="eentropy">     -0.00000000 </i>
    <i name="bandstr">   -127.04279178 </i>
    <i name="atom">    718.53809099 </i>
    <i name="e_fr_energy">    -21.63238341 </i>
    <i name="e_wo_entrp">    -21.63238341 </i>
    <i name="e_0_energy">    -21.63238341 </i>
   </energy>
  </scstep>
  <structure>
   <crystal>
    <varray name="basis" >
     <v>       3.28200000       0.00000000       0.00000000 </v>
     <v>       1.64100000       2.84048000       0.00000000 </v>
     <v>       0.00000000       0.00000000      20.00000000 </v>
    </varray>
    <i name="volume">    186.44910720 </i>
    <varray name="rec_basis" >
     <v>       0.30469226      -0.17602659       0.00000000 </v>
     <v>       0.00000000       0.35205317       0.00000000 </v>
     <v>       0.00000000       0.00000000       0.05000000 </v>
    </varray>
   </crystal>
   <varray name="positions" >
    <v>       0.99990014       0.00019971      -0.00000000 </v>
    <v>       0.33327693       0.33344614       0.91545910 </v>
    <v>       0.33327693       0.33344614       0.08454090 </v>
   </varray>
  </structure>
  <varray name="forces" >
   <v>      -0.00000000      -0.00000031      -0.00000000 </v>
   <v>       0.00000000       0.00000015       0.00000026 </v>
   <v>      -0.00000000       0.00000015      -0.00000026 </v>
  </varray>
  <varray name="stress" >
   <v>       7.92482608       0.00000000       0.00000000 </v>
   <v>       0.00000000       8.26863326       0.00000000 </v>
   <v>       0.00000000       0.00000000       0.00360849 </v>
  </varray>
  <energy>
   <i name="e_fr_energy">    -21.63238341 </i>
   <i name="e_wo_entrp">    -21.63238341 </i>
   <i name="e_0_energy">     -0.00000000 </i>
  </energy>
  <time name="totalsc">    8.28    8.38</time>
 </calculation>
 <calculation>
  <scstep>
   <time name="dav">    1.24    1.24</time>
   <time name="total">    1.42    1.43</time>
   <energy>
    <i name="alphaZ">     22.94334738 </i>
    <i name="ewald">   2158.27062141 </i>
    <i name="hartreedc">  -2831.72971647 </i>
    <i name="XCdc">    -47.72561456 </i>
    <i name="pawpsdc">    466.08160056 </i>
    <i name="pawaedc">   -380.96791994 </i>
    <i name="eentropy">     -0.00000000 </i>
    <i name="bandstr">   -127.04279280 </i>
    <i name="atom">    718.53809099 </i>
    <i name="e_fr_energy">    -21.63238341 </i>
    <i name="e_wo_entrp">    -21.63238341 </i>
    <i name="e_0_energy">    -21.63238341 </i>
   </energy>
  </scstep>
  <scstep>
   <time name="dav">    1.13    1.13</time>
   <time name="total">    1.30    1.30</time>
   <energy>
    <i name="e_fr_energy">    -21.63238341 </i>
    <i name="e_wo_entrp">    -21.63238341 </i>
    <i name="e_0_energy">    -21.63238341 </i>
   </energy>
  </scstep>
  <scstep>
   <time name="dav">    1.08    1.09</time>
   <time name="total">    1.25    1.25</time>
   <energy>
    <i name="e_fr_energy">    -21.63238341 </i>
    <i name="e_wo_entrp">    -21.63238341 </i>
    <i name="e_0_energy">    -21.63238341 </i>
   </energy>
  </scstep>
  <scstep>
   <time name="dav">    1.22    1.22</time>
   <time name="total">    1.39    1.39</time>
   <energy>
    <i name="e_fr_energy">    -21.63238341 </i>
    <i name="e_wo_entrp">    -21.63238341 </i>
    <i name="e_0_energy">    -21.63238341 </i>
   </energy>
  </scstep>
  <scstep>
   <time name="dav">    1.23    1.23</time>
   <time name="total">    1.28    1.28</time>
   <energy>
    <i name="alphaZ">     22.94334738 </i>
    <i name="ewald">   2158.27062141 </i>
    <i name="hartreedc">  -2831.72971544 </i>
    <i name="XCdc">    -47.72561456 </i>
    <i name="pawpsdc">    466.08160033 </i>
    <i name="pawaedc">   -380.96791970 </i>
    <i name="eentropy">     -0.00000000 </i>
    <i name="bandstr">   -127.04279383 </i>
    <i name="atom">    718.53809099 </i>
    <i name="e_fr_energy">    -21.63238341 </i>
    <i name="e_wo_entrp">    -21.63238341 </i>
    <i name="e_0_energy">    -21.63238341 </i>
   </energy>
  </scstep>
  <structure>
   <crystal>
    <varray name="basis" >
     <v>       3.28200000       0.00000000       0.00000000 </v>
     <v>       1.64100000       2.84048000       0.00000000 </v>
     <v>       0.00000000       0.00000000      20.00000000 </v>
    </varray>
    <i name="volume">    186.44910720 </i>
    <varray name="rec_basis" >
     <v>       0.30469226      -0.17602659       0.00000000 </v>
     <v>       0.00000000       0.35205317       0.00000000 </v>
     <v>       0.00000000       0.00000000       0.05000000 </v>
    </varray>
   </crystal>
   <varray name="positions" >
    <v>       0.99990014       0.00019971      -0.00000000 </v>
    <v>       0.33327693       0.33344614       0.91545910 </v>
    <v>       0.33327693       0.33344614       0.08454090 </v>
   </varray>
  </structure>
  <varray name="forces" >
   <v>      -0.00000000      -0.00000028       0.00000000 </v>
   <v>       0.00000000       0.00000014       0.00000027 </v>
   <v>      -0.00000000       0.00000014      -0.00000027 </v>
  </varray>
  <varray name="stress" >
   <v>       7.92482624       0.00000000       0.00000000 </v>
   <v>       0.00000000       8.26863347       0.00000000 </v>
   <v>       0.00000000       0.00000000       0.00360967 </v>
  </varray>
  <energy>
   <i name="e_fr_energy">    -21.63238341 </i>
   <i name="e_wo_entrp">    -21.63238341 </i>
   <i name="e_0_energy">     -0.00000000 </i>
  </energy>
  <time name="totalsc">    8.70    8.80</time>
 </calculation>
 <calculation>
  <scstep>
   <time name="dav">    1.27    1.27</time>
   <time name="total">    1.45    1.47</time>
   <energy>
    <i name="alphaZ">     22.94334738 </i>
    <i name="ewald">   2158.27062147 </i>
    <i name="hartreedc">  -2831.72971443 </i>
    <i name="XCdc">    -47.72561456 </i>
    <i name="pawpsdc">    466.08160046 </i>
    <i name="pawaedc">   -380.96791984 </i>
    <i name="eentropy">     -0.00000000 </i>
    <i name="bandstr">   -127.04279489 </i>
    <i name="atom">    718.53809099 </i>
    <i name="e_fr_energy">    -21.63238341 </i>
    <i name="e_wo_entrp">    -21.63238341 </i>
    <i name="e_0_energy">    -21.63238341 </i>
   </energy>
  </scstep>
  <scstep>
   <time name="dav">    1.14    1.14</time>
   <time name="total">    1.30    1.31</time>
   <energy>
    <i name="e_fr_energy">    -21.63238341 </i>
    <i name="e_wo_entrp">    -21.63238341 </i>
    <i name="e_0_energy">    -21.63238341 </i>
   </energy>
  </scstep>
  <scstep>
   <time name="dav">    1.10    1.10</time>
   <time name="total">    1.27    1.28</time>
   <energy>
    <i name="e_fr_energy">    -21.63238341 </i>
    <i name="e_wo_entrp">    -21.63238341 </i>
    <i name="e_0_energy">    -21.63238341 </i>
   </energy>
  </scstep>
  <scstep>
   <time name="dav">    1.02    1.03</time>
   <time name="total">    1.19    1.19</time>
   <energy>
    <i name="e_fr_energy">    -21.63238341 </i>
    <i name="e_wo_entrp">    -21.63238341 </i>
    <i name="e_0_energy">    -21.63238341 </i>
   </energy>
  </scstep>
  <scstep>
   <time name="dav">    1.04    1.04</time>
   <time name="total">    1.09    1.09</time>
   <energy>
    <i name="alphaZ">     22.94334738 </i>
    <i name="ewald">   2158.27062147 </i>
    <i name="hartreedc">  -2831.72971440 </i>
    <i name="XCdc">    -47.72561456 </i>
    <i name="pawpsdc">    466.08160049 </i>
    <i name="pawaedc">   -380.96791987 </i>
    <i name="eentropy">     -0.00000000 </i>
    <i name="bandstr">   -127.04279493 </i>
    <i name="atom">    718.53809099 </i>
    <i name="e_fr_energy">    -21.63238341 </i>
    <i name="e_wo_entrp">    -21.63238341 </i>
    <i name="e_0_energy">    -21.63238341 </i>
   </energy>
  </scstep>
  <structure>
   <crystal>
    <varray name="basis" >
     <v>       3.28200000       0.00000000       0.00000000 </v>
     <v>       1.64100000       2.84048000       0.00000000 </v>
     <v>       0.00000000       0.00000000      20.00000000 </v>
    </varray>
    <i name="volume">    186.44910720 </i>
    <varray name="rec_basis" >
     <v>       0.30469226      -0.17602659       0.00000000 </v>
     <v>       0.00000000       0.35205317       0.00000000 </v>
     <v>       0.00000000       0.00000000       0.05000000 </v>
    </varray>
   </crystal>
   <varray name="positions" >
    <v>       0.99990014       0.00019971      -0.00000000 </v>
    <v>       0.33327693       0.33344614       0.91545910 </v>
    <v>       0.33327693       0.33344614       0.08454090 </v>
   </varray>
  </structure>
  <varray name="forces" >
   <v>       0.00000000      -0.00000028       0.00000000 </v>
   <v>       0.00000000       0.00000014       0.00000027 </v>
   <v>      -0.00000000       0.00000014      -0.00000027 </v>
  </varray>
  <varray name="stress" >
   <v>       7.92482630       0.00000000       0.00000000 </v>
   <v>       0.00000000       8.26863354       0.00000000 </v>
   <v>       0.00000000       0.00000000       0.00361039 </v>
  </varray>
  <energy>
   <i name="e_fr_energy">    -21.63238341 </i>
   <i name="e_wo_entrp">    -21.63238341 </i>
   <i name="e_0_energy">     -0.00000000 </i>
  </energy>
  <time name="totalsc">    8.37    8.47</time>
 </calculation>
 <calculation>
  <scstep>
   <time name="dav">    1.04    1.04</time>
   <time name="total">    1.21    1.23</time>
   <energy>
    <i name="alphaZ">     22.94334738 </i>
    <i name="ewald">   2158.27063665 </i>
    <i name="hartreedc">  -2831.72972898 </i>
    <i name="XCdc">    -47.72561449 </i>
    <i name="pawpsdc">    466.08160050 </i>
    <i name="pawaedc">   -380.96791987 </i>
    <i name="eentropy">     -0.00000000 </i>
    <i name="bandstr">   -127.04279559 </i>
    <i name="atom">    718.53809099 </i>
    <i name="e_fr_energy">    -21.63238341 </i>
    <i name="e_wo_entrp">    -21.63238341 </i>
    <i name="e_0_energy">    -21.63238341 </i>
   </energy>
  </scstep>
  <scstep>
   <time name="dav">    1.05    1.05</time>
   <time name="total">    1.22    1.22</time>
   <energy>
    <i name="e_fr_energy">    -21.63238341 </i>
    <i name="e_wo_entrp">    -21.63238341 </i>
    <i name="e_0_energy">    -21.63238341 </i>
   </energy>
  </scstep>
  <scstep>
   <time name="dav">    1.06    1.06</time>
   <time name="total">    1.22    1.23</time>
   <energy>
    <i name="e_fr_energy">    -21.63238341 </i>
    <i name="e_wo_entrp">    -21.63238341 </i>
    <i name="e_0_energy">    -21.63238341 </i>
   </energy>
  </scstep>
  <scstep>
   <time name="dav">    1.04    1.04</time>
   <time name="total">    1.20    1.20</time>
   <energy>
    <i name="e_fr_energy">    -21.63238341 </i>
    <i name="e_wo_entrp">    -21.63238341 </i>
    <i name="e_0_energy">    -21.63238341 </i>
   </energy>
  </scstep>
  <scstep>
   <time name="dav">    1.03    1.04</time>
   <time name="total">    1.08    1.08</time>
   <energy>
    <i name="alphaZ">     22.94334738 </i>
    <i name="ewald">   2158.27063665 </i>
    <i name="hartreedc">  -2831.72972899 </i>
    <i name="XCdc">    -47.72561450 </i>
    <i name="pawpsdc">    466.08160357 </i>
    <i name="pawaedc">   -380.96792298 </i>
    <i name="eentropy">     -0.00000000 </i>
    <i name="bandstr">   -127.04279554 </i>
    <i name="atom">    718.53809099 </i>
    <i name="e_fr_energy">    -21.63238341 </i>
    <i name="e_wo_entrp">    -21.63238341 </i>
    <i name="e_0_energy">    -21.63238341 </i>
   </energy>
  </scstep>
  <structure>
   <crystal>
    <varray name="basis" >
     <v>       3.28200000       0.00000000       0.00000000 </v>
     <v>       1.64100000       2.84048000       0.00000000 </v>
     <v>       0.00000000       0.00000000      20.00000000 </v>
    </varray>
    <i name="volume">    186.44910720 </i>
    <varray name="rec_basis" >
     <v>       0.30469226      -0.17602659       0.00000000 </v>
     <v>       0.00000000       0.35205317       0.00000000 </v>
     <v>       0.00000000       0.00000000       0.05000000 </v>
    </varray>
   </crystal>
   <varray name="positions" >
    <v>       0.99990014       0.00019971      -0.00000000 </v>
    <v>       0.33327693       0.33344614       0.91545910 </v>
    <v>       0.33327693       0.33344614       0.08454090 </v>
   </varray>
  </structure>
  <varray name="forces" >
   <v>       0.00000000       0.00000000       0.00000000 </v>
   <v>      -0.00000000      -0.00000000       0.00000000 </v>
   <v>      -0.00000000      -0.00000000      -0.00000000 </v>
  </varray>
  <varray name="stress" >
   <v>       7.92482823       0.00000000       0.00000000 </v>
   <v>       0.00000000       8.26863727       0.00000000 </v>
   <v>       0.00000000       0.00000000       0.00361793 </v>
  </varray>
  <energy>
   <i name="e_fr_energy">    -21.63238341 </i>
   <i name="e_wo_entrp">    -21.63238341 </i>
   <i name="e_0_energy">     -0.00000000 </i>
  </energy>
  <time name="totalsc">    7.92    8.02</time>
  <eigenvalues>
   <array>
    <dimension dim="1">band</dimension>
    <dimension dim="2">kpoint</dimension>
    <dimension dim="3">spin</dimension>
    <field>eigene</field>
    <field>occ</field>
    <set>
     <set comment="spin 1">
      <set comment="kpoint 1">
       <r>  -16.5476    1.0000 </r>
       <r>  -15.3662    1.0000 </r>
       <r>   -8.0046    1.0000 </r>
       <r>   -4.0501    1.0000 </r>
       <r>   -4.0462    1.0000 </r>
       <r>   -4.0390    1.0000 </r>
       <r>   -2.9152    1.0000 </r>
       <r>   -2.9104    1.0000 </r>
       <r>   -2.2360    1.0000 </r>
       <r>    1.2287    0.0000 </r>
       <r>    1.2323    0.0000 </r>
       <r>    1.3696    0.0000 </r>
       <r>    1.3761    0.0000 </r>
       <r>    2.4991    0.0000 </r>
       <r>    2.9587    0.0000 </r>
       <r>    3.4407    0.0000 </r>
       <r>    4.1589    0.0000 </r>
       <r>    4.9097    0.0000 </r>
      </set>
      <set comment="kpoint 2">
       <r>  -16.5136    1.0000 </r>
       <r>  -15.3473    1.0000 </r>
       <r>   -7.9599    1.0000 </r>
       <r>   -4.1519    1.0000 </r>
       <r>   -4.1232    1.0000 </r>
       <r>   -4.0066    1.0000 </r>
       <r>   -2.9730    1.0000 </r>
       <r>   -2.9049    1.0000 </r>
       <r>   -2.2411    1.0000 </r>
       <r>    1.1315    0.0000 </r>
       <r>    1.1828    0.0000 </r>
       <r>    1.2924    0.0000 </r>
       <r>    1.3273    0.0000 </r>
       <r>    2.6278    0.0000 </r>
       <r>    3.0063    0.0000 </r>
       <r>    3.5404    0.0000 </r>
       <r>    4.2556    0.0000 </r>
       <r>    4.9538    0.0000 </r>
      </set>
      <set comment="kpoint 3">
       <r>  -16.4131    1.0000 </r>
       <r>  -15.2917    1.0000 </r>
       <r>   -7.8285    1.0000 </r>
       <r>   -4.4493    1.0000 </r>
       <r>   -4.3165    1.0000 </r>
       <r>   -3.9069    1.0000 </r>
       <r>   -3.1408    1.0000 </r>
       <r>   -2.9182    1.0000 </r>
       <r>   -2.2665    1.0000 </r>
       <r>    0.8032    0.0000 </r>
       <r>    0.9299    0.0000 </r>
       <r>    1.1989    0.0000 </r>
       <r>    1.4565    0.0000 </r>
       <r>    2.8608    0.0000 </r>
       <r>    3.1430    0.0000 </r>
       <r>    3.7776    0.0000 </r>
       <r>    4.5631    0.0000 </r>
       <r>    5.0817    0.0000 </r>
      </set>
      <set comment="kpoint 4">
       <r>  -16.2501    1.0000 </r>
       <r>  -15.2017    1.0000 </r>
       <r>   -7.6199    1.0000 </r>
       <r>   -4.8797    1.0000 </r>
       <r>   -4.5912    1.0000 </r>
       <r>   -3.7493    1.0000 </r>
       <r>   -3.3777    1.0000 </r>
       <r>   -3.0164    1.0000 </r>
       <r>   -2.3402    1.0000 </r>
       <r>    0.4323    0.0000 </r>
       <r>    0.7893    0.0000 </r>
       <r>    1.0220    0.0000 </r>
       <r>    1.6798    0.0000 </r>
       <r>    3.1101    0.0000 </r>
       <r>    3.3604    0.0000 </r>
       <r>    4.0507    0.0000 </r>
       <r>    5.0200    0.0000 </r>
       <r>    5.2865    0.0000 </r>
      </set>
      <set comment="kpoint 5">
       <r>  -16.0317    1.0000 </r>
       <r>  -15.0819    1.0000 </r>
       <r>   -7.3543    1.0000 </r>
       <r>   -5.3806    1.0000 </r>
       <r>   -4.9289    1.0000 </r>
       <r>   -3.6448    1.0000 </r>
       <r>   -3.5475    1.0000 </r>
       <r>   -3.2057    1.0000 </r>
       <r>   -2.4911    1.0000 </r>
       <r>    0.1808    0.0000 </r>
       <r>    0.7992    0.0000 </r>
       <r>    0.8360    0.0000 </r>
       <r>    1.9164    0.0000 </r>
       <r>    3.3875    0.0000 </r>
       <r>    3.6525    0.0000 </r>
       <r>    4.3441    0.0000 </r>
       <r>    5.3977    0.0000 </r>
       <r>    5.5588    0.0000 </r>
      </set>
      <set comment="kpoint 6">
       <r>  -15.7686    1.0000 </r>
       <r>  -14.9390    1.0000 </r>
       <r>   -7.0782    1.0000 </r>
       <r>   -5.8851    1.0000 </r>
       <r>   -5.3198    1.0000 </r>
       <r>   -3.9117    1.0000 </r>
       <r>   -3.4316    1.0000 </r>
       <r>   -3.3216    1.0000 </r>
       <r>   -2.7080    1.0000 </r>
       <r>    0.0965    0.0000 </r>
       <r>    0.6771    0.0000 </r>
       <r>    0.9512    0.0000 </r>
       <r>    2.1320    0.0000 </r>
       <r>    3.6962    0.0000 </r>
       <r>    4.0098    0.0000 </r>
       <r>    4.6610    0.0000 </r>
       <r>    5.5071    0.0000 </r>
       <r>    5.8717    0.0000 </r>
      </set>
      <set comment="kpoint 7">
       <r>  -15.4763    1.0000 </r>
       <r>  -14.7827    1.0000 </r>
       <r>   -6.9508    1.0000 </r>
       <r>   -6.2378    1.0000 </r>
       <r>   -5.7423    1.0000 </r>
       <r>   -4.1572    1.0000 </r>
       <r>   -3.6356    1.0000 </r>
       <r>   -3.0967    1.0000 </r>
       <r>   -2.9208    1.0000 </r>
       <r>    0.1606    0.0000 </r>
       <r>    0.5735    0.0000 </r>
       <r>    1.1894    0.0000 </r>
       <r>    2.3074    0.0000 </r>
       <r>    4.0092    0.0000 </r>
       <r>    4.4138    0.0000 </r>
       <r>    4.9066    0.0000 </r>
       <r>    5.4210    0.0000 </r>
       <r>    6.0871    0.0000 </r>
      </set>
      <set comment="kpoint 8">
       <r>  -15.1763    1.0000 </r>
       <r>  -14.6257    1.0000 </r>
       <r>   -7.2242    1.0000 </r>
       <r>   -6.2051    1.0000 </r>
       <r>   -6.1574    1.0000 </r>
       <r>   -4.3666    1.0000 </r>
       <r>   -3.7910    1.0000 </r>
       <r>   -3.0425    1.0000 </r>
       <r>   -2.8993    1.0000 </r>
       <r>    0.3246    0.0000 </r>
       <r>    0.5397    0.0000 </r>
       <r>    1.4525    0.0000 </r>
       <r>    2.4371    0.0000 </r>
       <r>    4.1725    0.0000 </r>
       <r>    4.7573    0.0000 </r>
       <r>    4.8192    0.0000 </r>
       <r>    5.6478    0.0000 </r>
       <r>    5.9797    0.0000 </r>
      </set>
      <set comment="kpoint 9">
       <r>  -14.8980    1.0000 </r>
       <r>  -14.4841    1.0000 </r>
       <r>   -7.6201    1.0000 </r>
       <r>   -6.5194    1.0000 </r>
       <r>   -6.0717    1.0000 </r>
       <r>   -4.5306    1.0000 </r>
       <r>   -3.8964    1.0000 </r>
       <r>   -3.0277    1.0000 </r>
       <r>   -2.7494    1.0000 </r>
       <r>    0.5445    0.0000 </r>
       <r>    0.5693    0.0000 </r>
       <r>    1.6867    0.0000 </r>
       <r>    2.5247    0.0000 </r>
       <r>    3.7489    0.0000 </r>
       <r>    4.8512    0.0000 </r>
       <r>    5.1143    0.0000 </r>
       <r>    5.9694    0.0000 </r>
       <r>    6.1060    0.0000 </r>
      </set>
      <set comment="kpoint 10">
       <r>  -14.6780    1.0000 </r>
       <r>  -14.3755    1.0000 </r>
       <r>   -7.9422    1.0000 </r>
       <r>   -6.7871    1.0000 </r>
       <r>   -5.9947    1.0000 </r>
       <r>   -4.6430    1.0000 </r>
       <r>   -3.9598    1.0000 </r>
       <r>   -2.9149    1.0000 </r>
       <r>   -2.6536    1.0000 </r>
       <r>    0.6303    0.0000 </r>
       <r>    0.7835    0.0000 </r>
       <r>    1.8529    0.0000 </r>
       <r>    2.5772    0.0000 </r>
       <r>    3.1423    0.0000 </r>
       <r>    5.0878    0.0000 </r>
       <r>    5.2344    0.0000 </r>
       <r>    6.1977    0.0000 </r>
       <r>    6.6163    0.0000 </r>
      </set>
      <set comment="kpoint 11">
       <r>  -14.5549    1.0000 </r>
       <r>  -14.3163    1.0000 </r>
       <r>   -8.1207    1.0000 </r>
       <r>   -6.9295    1.0000 </r>
       <r>   -5.9680    1.0000 </r>
       <r>   -4.7001    1.0000 </r>
       <r>   -3.9891    1.0000 </r>
       <r>   -2.8114    1.0000 </r>
       <r>   -2.6084    1.0000 </r>
       <r>    0.6778    0.0000 </r>
       <r>    0.9729    0.0000 </r>
       <r>    1.9355    0.0000 </r>
       <r>    2.6014    0.0000 </r>
       <r>    2.7183    0.0000 </r>
       <r>    5.2618    0.0000 </r>
       <r>    5.2873    0.0000 </r>
       <r>    6.3888    0.0000 </r>
       <r>    6.9068    0.0000 </r>
      </set>
      <set comment="kpoint 12">
       <r>  -16.5136    1.0000 </r>
       <r>  -15.3473    1.0000 </r>
       <r>   -7.9598    1.0000 </r>
       <r>   -4.1467    1.0000 </r>
       <r>   -4.1229    1.0000 </r>
       <r>   -4.0121    1.0000 </r>
       <r>   -2.9768    1.0000 </r>
       <r>   -2.9014    1.0000 </r>
       <r>   -2.2410    1.0000 </r>
       <r>    1.1337    0.0000 </r>
       <r>    1.1876    0.0000 </r>
       <r>    1.2898    0.0000 </r>
       <r>    1.3223    0.0000 </r>
       <r>    2.6280    0.0000 </r>
       <r>    3.0064    0.0000 </r>
       <r>    3.5404    0.0000 </r>
       <r>    4.2558    0.0000 </r>
       <r>    4.9538    0.0000 </r>
      </set>
      <set comment="kpoint 13">
       <r>  -16.4464    1.0000 </r>
       <r>  -15.3101    1.0000 </r>
       <r>   -7.8718    1.0000 </r>
       <r>   -4.3542    1.0000 </r>
       <r>   -4.2537    1.0000 </r>
       <r>   -3.9395    1.0000 </r>
       <r>   -3.1096    1.0000 </r>
       <r>   -2.8867    1.0000 </r>
       <r>   -2.2563    1.0000 </r>
       <r>    0.9132    0.0000 </r>
       <r>    0.9782    0.0000 </r>
       <r>    1.2340    0.0000 </r>
       <r>    1.4095    0.0000 </r>
       <r>    2.7980    0.0000 </r>
       <r>    3.0983    0.0000 </r>
       <r>    3.7087    0.0000 </r>
       <r>    4.4609    0.0000 </r>
       <r>    5.0397    0.0000 </r>
      </set>
      <set comment="kpoint 14">
       <r>  -16.3147    1.0000 </r>
       <r>  -15.2373    1.0000 </r>
       <r>   -7.7013    1.0000 </r>
       <r>   -4.7128    1.0000 </r>
       <r>   -4.4751    1.0000 </r>
       <r>   -3.8160    1.0000 </r>
       <r>   -3.3646    1.0000 </r>
       <r>   -2.8983    1.0000 </r>
       <r>   -2.3048    1.0000 </r>
       <r>    0.5620    0.0000 </r>
       <r>    0.8015    0.0000 </r>
       <r>    1.0683    0.0000 </r>
       <r>    1.6103    0.0000 </r>
       <r>    3.0248    0.0000 </r>
       <r>    3.2756    0.0000 </r>
       <r>    3.9574    0.0000 </r>
       <r>    4.8631    0.0000 </r>
       <r>    5.2061    0.0000 </r>
      </set>
      <set comment="kpoint 15">
       <r>  -16.1239    1.0000 </r>
       <r>  -15.1324    1.0000 </r>
       <r>   -7.4620    1.0000 </r>
       <r>   -5.1710    1.0000 </r>
       <r>   -4.7623    1.0000 </r>
       <r>   -3.6753    1.0000 </r>
       <r>   -3.6481    1.0000 </r>
       <r>   -2.9978    1.0000 </r>
       <r>   -2.4141    1.0000 </r>
       <r>    0.2625    0.0000 </r>
       <r>    0.7318    0.0000 </r>
       <r>    0.8808    0.0000 </r>
       <r>    1.8449    0.0000 </r>
       <r>    3.2847    0.0000 </r>
       <r>    3.5315    0.0000 </r>
       <r>    4.2360    0.0000 </r>
       <r>    5.3104    0.0000 </r>
       <r>    5.4459    0.0000 </r>
      </set>
      <set comment="kpoint 16">
       <r>  -15.8829    1.0000 </r>
       <r>  -15.0008    1.0000 </r>
       <r>   -7.1827    1.0000 </r>
       <r>   -5.6691    1.0000 </r>
       <r>   -5.1130    1.0000 </r>
       <r>   -3.9810    1.0000 </r>
       <r>   -3.4621    1.0000 </r>
       <r>   -3.1785    1.0000 </r>
       <r>   -2.5873    1.0000 </r>
       <r>    0.0931    0.0000 </r>
       <r>    0.7185    0.0000 </r>
       <r>    0.8116    0.0000 </r>
       <r>    2.0708    0.0000 </r>
       <r>    3.5827    0.0000 </r>
       <r>    3.8581    0.0000 </r>
       <r>    4.5469    0.0000 </r>
       <r>    5.5622    0.0000 </r>
       <r>    5.7452    0.0000 </r>
      </set>
      <set comment="kpoint 17">
       <r>  -15.6045    1.0000 </r>
       <r>  -14.8506    1.0000 </r>
       <r>   -6.9453    1.0000 </r>
       <r>   -6.1183    1.0000 </r>
       <r>   -5.5195    1.0000 </r>
       <r>   -4.2380    1.0000 </r>
       <r>   -3.3938    1.0000 </r>
       <r>   -3.3124    1.0000 </r>
       <r>   -2.7520    1.0000 </r>
       <r>    0.0670    0.0000 </r>
       <r>    0.6189    0.0000 </r>
       <r>    1.0090    0.0000 </r>
       <r>    2.2596    0.0000 </r>
       <r>    3.9099    0.0000 </r>
       <r>    4.2423    0.0000 </r>
       <r>    4.8701    0.0000 </r>
       <r>    5.5145    0.0000 </r>
       <r>    6.0537    0.0000 </r>
      </set>
      <set comment="kpoint 18">
       <r>  -15.3071    1.0000 </r>
       <r>  -14.6931    1.0000 </r>
       <r>   -7.0251    1.0000 </r>
       <r>   -6.2568    1.0000 </r>
       <r>   -5.9470    1.0000 </r>
       <r>   -4.4342    1.0000 </r>
       <r>   -3.5988    1.0000 </r>
       <r>   -3.2783    1.0000 </r>
       <r>   -2.7723    1.0000 </r>
       <r>    0.1515    0.0000 </r>
       <r>    0.6016    0.0000 </r>
       <r>    1.2674    0.0000 </r>
       <r>    2.3959    0.0000 </r>
       <r>    4.2168    0.0000 </r>
       <r>    4.6579    0.0000 </r>
       <r>    4.9137    0.0000 </r>
       <r>    5.5040    0.0000 </r>
       <r>    6.1521    0.0000 </r>
      </set>
      <set comment="kpoint 19">
       <r>  -15.0159    1.0000 </r>
       <r>  -14.5425    1.0000 </r>
       <r>   -7.4025    1.0000 </r>
       <r>   -6.3453    1.0000 </r>
       <r>   -6.1222    1.0000 </r>
       <r>   -4.5771    1.0000 </r>
       <r>   -3.7672    1.0000 </r>
[...]
       <r>   -2.9121    1.0000 </r>
       <r>   -2.6606    1.0000 </r>
       <r>    0.6303    0.0000 </r>
       <r>    0.7839    0.0000 </r>
       <r>    1.8509    0.0000 </r>
       <r>    2.5741    0.0000 </r>
       <r>    3.1457    0.0000 </r>
       <r>    5.0876    0.0000 </r>
       <r>    5.2322    0.0000 </r>
       <r>    6.1977    0.0000 </r>
       <r>    6.6182    0.0000 </r>
      </set>
      <set comment="kpoint 117">
       <r>  -14.4364    1.0000 </r>
       <r>  -14.2411    1.0000 </r>
       <r>   -7.8543    1.0000 </r>
       <r>   -6.9858    1.0000 </r>
       <r>   -5.8682    1.0000 </r>
       <r>   -4.9937    1.0000 </r>
       <r>   -4.1757    1.0000 </r>
       <r>   -3.9741    1.0000 </r>
       <r>   -2.1915    1.0000 </r>
       <r>    0.5308    0.0000 </r>
       <r>    1.2176    0.0000 </r>
       <r>    1.6786    0.0000 </r>
       <r>    2.4461    0.0000 </r>
       <r>    3.0953    0.0000 </r>
       <r>    6.0646    0.0000 </r>
       <r>    6.3683    0.0000 </r>
       <r>    6.9405    0.0000 </r>
       <r>    7.1273    0.0000 </r>
      </set>
      <set comment="kpoint 118">
       <r>  -14.5048    1.0000 </r>
       <r>  -14.2827    1.0000 </r>
       <r>   -7.9904    1.0000 </r>
       <r>   -6.9426    1.0000 </r>
       <r>   -5.9186    1.0000 </r>
       <r>   -4.8704    1.0000 </r>
       <r>   -3.9562    1.0000 </r>
       <r>   -3.6043    1.0000 </r>
       <r>   -2.3074    1.0000 </r>
       <r>    0.6182    0.0000 </r>
       <r>    1.0789    0.0000 </r>
       <r>    2.0042    0.0000 </r>
       <r>    2.2447    0.0000 </r>
       <r>    2.9390    0.0000 </r>
       <r>    5.6511    0.0000 </r>
       <r>    5.9717    0.0000 </r>
       <r>    6.6254    0.0000 </r>
       <r>    7.1131    0.0000 </r>
      </set>
      <set comment="kpoint 119">
       <r>  -14.5870    1.0000 </r>
       <r>  -14.3281    1.0000 </r>
       <r>   -8.0194    1.0000 </r>
       <r>   -6.8781    1.0000 </r>
       <r>   -5.9628    1.0000 </r>
       <r>   -4.7408    1.0000 </r>
       <r>   -3.9568    1.0000 </r>
       <r>   -3.1360    1.0000 </r>
       <r>   -2.4774    1.0000 </r>
       <r>    0.6320    0.0000 </r>
       <r>    0.9334    0.0000 </r>
       <r>    1.9381    0.0000 </r>
       <r>    2.4598    0.0000 </r>
       <r>    2.9553    0.0000 </r>
       <r>    5.2836    0.0000 </r>
       <r>    5.4581    0.0000 </r>
       <r>    6.3792    0.0000 </r>
       <r>    6.8751    0.0000 </r>
      </set>
      <set comment="kpoint 120">
       <r>  -14.5523    1.0000 </r>
       <r>  -14.3135    1.0000 </r>
       <r>   -8.1192    1.0000 </r>
       <r>   -6.9302    1.0000 </r>
       <r>   -5.9672    1.0000 </r>
       <r>   -4.7073    1.0000 </r>
       <r>   -3.9865    1.0000 </r>
       <r>   -2.8084    1.0000 </r>
       <r>   -2.6157    1.0000 </r>
       <r>    0.6786    0.0000 </r>
       <r>    0.9734    0.0000 </r>
       <r>    1.9333    0.0000 </r>
       <r>    2.5982    0.0000 </r>
       <r>    2.7215    0.0000 </r>
       <r>    5.2611    0.0000 </r>
       <r>    5.2834    0.0000 </r>
       <r>    6.3913    0.0000 </r>
       <r>    6.9089    0.0000 </r>
      </set>
      <set comment="kpoint 121">
       <r>  -14.5241    1.0000 </r>
       <r>  -14.2979    1.0000 </r>
       <r>   -8.1094    1.0000 </r>
       <r>   -6.9509    1.0000 </r>
       <r>   -5.9519    1.0000 </r>
       <r>   -4.7603    1.0000 </r>
       <r>   -3.9801    1.0000 </r>
       <r>   -3.0978    1.0000 </r>
       <r>   -2.4400    1.0000 </r>
       <r>    0.6745    0.0000 </r>
       <r>    1.0308    0.0000 </r>
       <r>    2.0061    0.0000 </r>
       <r>    2.4376    0.0000 </r>
       <r>    2.7180    0.0000 </r>
       <r>    5.3954    0.0000 </r>
       <r>    5.5192    0.0000 </r>
       <r>    6.4513    0.0000 </r>
       <r>    6.9754    0.0000 </r>
      </set>
     </set>
    </set>
   </array>
  </eigenvalues>
  <separator name="orbital magnetization" >
   <v name="MAGDIPOLOUT">      0.00000000      0.00000000      0.00000000</v>
  </separator>
  <dos>
   <i name="efermi">     -1.68841222 </i>
   <total>
    <array>
     <dimension dim="1">gridpoints</dimension>
     <dimension dim="2">spin</dimension>
     <field>energy</field>
     <field>total</field>
     <field>integrated</field>
     <set>
      <set comment="spin 1">
       <r>   -17.7870     0.0000     0.0000 </r>
       <r>   -17.6961     0.0000     0.0000 </r>
       <r>   -17.6052     0.0000     0.0000 </r>
       <r>   -17.5143     0.0000     0.0000 </r>
       <r>   -17.4234     0.0000     0.0000 </r>
       <r>   -17.3325     0.0000     0.0000 </r>
       <r>   -17.2416     0.0000     0.0000 </r>
       <r>   -17.1507     0.0000     0.0000 </r>
       <r>   -17.0599     0.0000     0.0000 </r>
       <r>   -16.9690     0.0000     0.0000 </r>
       <r>   -16.8781     0.0000     0.0000 </r>
       <r>   -16.7872     0.0000     0.0000 </r>
       <r>   -16.6963     0.0000     0.0000 </r>
       <r>   -16.6054     0.0000     0.0000 </r>
       <r>   -16.5145     0.1844     0.0168 </r>
       <r>   -16.4236     0.3194     0.0608 </r>
       <r>   -16.3328     0.0030     0.0864 </r>
       <r>   -16.2419     0.8578     0.1644 </r>
       <r>   -16.1510     0.2107     0.1870 </r>
       <r>   -16.0601     0.5988     0.2494 </r>
       <r>   -15.9692     0.2994     0.2766 </r>
       <r>   -15.8783     1.0306     0.3703 </r>
       <r>   -15.7874     0.0010     0.3856 </r>
       <r>   -15.6965     0.6113     0.4411 </r>
       <r>   -15.6056     0.8222     0.5165 </r>
       <r>   -15.5148     0.0000     0.5488 </r>
       <r>   -15.4239     0.8977     0.6303 </r>
       <r>   -15.3330     0.9419     0.7160 </r>
       <r>   -15.2421     1.3431     0.8386 </r>
       <r>   -15.1512     1.5951     1.0248 </r>
       <r>   -15.0603     1.4945     1.1791 </r>
       <r>   -14.9694     1.7963     1.3424 </r>
       <r>   -14.8785     2.6520     1.5834 </r>
       <r>   -14.7877     1.2641     1.7022 </r>
       <r>   -14.6968     1.9762     1.9030 </r>
       <r>   -14.6059     3.4040     2.2606 </r>
       <r>   -14.5150     2.4391     2.4898 </r>
       <r>   -14.4241     4.2425     2.9255 </r>
       <r>   -14.3332     4.0105     3.3396 </r>
       <r>   -14.2423     4.0602     3.7524 </r>
       <r>   -14.1514     1.7903     3.9360 </r>
       <r>   -14.0605     0.6850     4.0000 </r>
       <r>   -13.9697     0.0000     4.0000 </r>
       <r>   -13.8788     0.0000     4.0000 </r>
       <r>   -13.7879     0.0000     4.0000 </r>
       <r>   -13.6970     0.0000     4.0000 </r>
       <r>   -13.6061     0.0000     4.0000 </r>
       <r>   -13.5152     0.0000     4.0000 </r>
       <r>   -13.4243     0.0000     4.0000 </r>
       <r>   -13.3334     0.0000     4.0000 </r>
       <r>   -13.2426     0.0000     4.0000 </r>
       <r>   -13.1517     0.0000     4.0000 </r>
       <r>   -13.0608     0.0000     4.0000 </r>
       <r>   -12.9699     0.0000     4.0000 </r>
       <r>   -12.8790     0.0000     4.0000 </r>
       <r>   -12.7881     0.0000     4.0000 </r>
       <r>   -12.6972     0.0000     4.0000 </r>
       <r>   -12.6063     0.0000     4.0000 </r>
       <r>   -12.5155     0.0000     4.0000 </r>
       <r>   -12.4246     0.0000     4.0000 </r>
       <r>   -12.3337     0.0000     4.0000 </r>
       <r>   -12.2428     0.0000     4.0000 </r>
       <r>   -12.1519     0.0000     4.0000 </r>
       <r>   -12.0610     0.0000     4.0000 </r>
       <r>   -11.9701     0.0000     4.0000 </r>
       <r>   -11.8792     0.0000     4.0000 </r>
       <r>   -11.7883     0.0000     4.0000 </r>
       <r>   -11.6975     0.0000     4.0000 </r>
       <r>   -11.6066     0.0000     4.0000 </r>
       <r>   -11.5157     0.0000     4.0000 </r>
       <r>   -11.4248     0.0000     4.0000 </r>
       <r>   -11.3339     0.0000     4.0000 </r>
       <r>   -11.2430     0.0000     4.0000 </r>
       <r>   -11.1521     0.0000     4.0000 </r>
       <r>   -11.0612     0.0000     4.0000 </r>
       <r>   -10.9704     0.0000     4.0000 </r>
       <r>   -10.8795     0.0000     4.0000 </r>
       <r>   -10.7886     0.0000     4.0000 </r>
       <r>   -10.6977     0.0000     4.0000 </r>
       <r>   -10.6068     0.0000     4.0000 </r>
       <r>   -10.5159     0.0000     4.0000 </r>
       <r>   -10.4250     0.0000     4.0000 </r>
       <r>   -10.3341     0.0000     4.0000 </r>
       <r>   -10.2433     0.0000     4.0000 </r>
       <r>   -10.1524     0.0000     4.0000 </r>
       <r>   -10.0615     0.0000     4.0000 </r>
       <r>    -9.9706     0.0000     4.0000 </r>
       <r>    -9.8797     0.0000     4.0000 </r>
       <r>    -9.7888     0.0000     4.0000 </r>
       <r>    -9.6979     0.0000     4.0000 </r>
       <r>    -9.6070     0.0000     4.0000 </r>
       <r>    -9.5161     0.0000     4.0000 </r>
       <r>    -9.4253     0.0000     4.0000 </r>
       <r>    -9.3344     0.0000     4.0000 </r>
       <r>    -9.2435     0.0000     4.0000 </r>
       <r>    -9.1526     0.0000     4.0000 </r>
       <r>    -9.0617     0.0000     4.0000 </r>
       <r>    -8.9708     0.0000     4.0000 </r>
       <r>    -8.8799     0.0000     4.0000 </r>
       <r>    -8.7890     0.0000     4.0000 </r>
       <r>    -8.6982     0.0000     4.0000 </r>
       <r>    -8.6073     0.0000     4.0000 </r>
       <r>    -8.5164     0.0000     4.0000 </r>
       <r>    -8.4255     0.0000     4.0000 </r>
       <r>    -8.3346     0.0000     4.0000 </r>
       <r>    -8.2437     0.0000     4.0000 </r>
       <r>    -8.1528     0.0000     4.0000 </r>
       <r>    -8.0619     0.5988     4.0544 </r>
       <r>    -7.9710     1.2632     4.1692 </r>
       <r>    -7.8802     0.6167     4.2254 </r>
       <r>    -7.7893     1.2685     4.3647 </r>
       <r>    -7.6984     0.9882     4.5026 </r>
       <r>    -7.6075     1.1720     4.6281 </r>
       <r>    -7.5166     1.6975     4.7847 </r>
       <r>    -7.4257     0.8972     4.8753 </r>
       <r>    -7.3348     2.1876     5.0742 </r>
       <r>    -7.2439     1.0128     5.2394 </r>
       <r>    -7.1531     2.1149     5.4760 </r>
       <r>    -7.0622     1.7923     5.6731 </r>
       <r>    -6.9713     2.7436     5.9230 </r>
       <r>    -6.8804     3.5974     6.3089 </r>
       <r>    -6.7895     2.1228     6.5830 </r>
       <r>    -6.6986     0.9249     6.6918 </r>
       <r>    -6.6077     1.0032     6.8077 </r>
       <r>    -6.5168     0.9658     6.9132 </r>
       <r>    -6.4260     0.0000     6.9342 </r>
       <r>    -6.3351     1.1551     7.0392 </r>
       <r>    -6.2442     2.4864     7.2691 </r>
       <r>    -6.1533     1.9195     7.4897 </r>
       <r>    -6.0624     1.4648     7.6751 </r>
       <r>    -5.9715     4.0345     8.0447 </r>
       <r>    -5.8806     4.1039     8.4866 </r>
       <r>    -5.7897     3.2504     8.8727 </r>
       <r>    -5.6988     1.4903     9.0110 </r>
       <r>    -5.6080     0.5988     9.0658 </r>
       <r>    -5.5171     1.0349     9.1598 </r>
       <r>    -5.4262     0.6999     9.2928 </r>
       <r>    -5.3353     0.5996     9.3473 </r>
       <r>    -5.2444     1.3020     9.4656 </r>
       <r>    -5.1535     4.0660     9.8526 </r>
       <r>    -5.0626     3.9981    10.2300 </r>
       <r>    -4.9717     2.4771    10.4715 </r>
       <r>    -4.8809     1.6317    10.6200 </r>
       <r>    -4.7900     1.7797    10.8157 </r>
       <r>    -4.6991     3.7649    11.1953 </r>
       <r>    -4.6082     1.9521    11.3850 </r>
       <r>    -4.5173     1.3781    11.5595 </r>
       <r>    -4.4264     2.0381    11.7453 </r>
       <r>    -4.3355     1.1934    11.8590 </r>
       <r>    -4.2446     0.7154    11.9245 </r>
       <r>    -4.1538     1.9404    12.1446 </r>
       <r>    -4.0629     2.1745    12.3852 </r>
       <r>    -3.9720     3.6079    12.7136 </r>
       <r>    -3.8811     4.6090    13.1481 </r>
       <r>    -3.7902     1.3518    13.3655 </r>
       <r>    -3.6993     3.0552    13.6565 </r>
       <r>    -3.6084     4.6528    14.1010 </r>
       <r>    -3.5175     3.0041    14.4680 </r>
       <r>    -3.4266     2.0015    14.6503 </r>
       <r>    -3.3358     1.8260    14.8236 </r>
       <r>    -3.2449     2.8765    15.1193 </r>
       <r>    -3.1540     1.5158    15.2580 </r>
       <r>    -3.0631     2.8853    15.5284 </r>
       <r>    -2.9722     1.9796    15.7083 </r>
       <r>    -2.8813     3.1630    16.0064 </r>
       <r>    -2.7904     0.3063    16.0551 </r>
       <r>    -2.6995     1.7480    16.2140 </r>
       <r>    -2.6087     2.2738    16.4244 </r>
       <r>    -2.5178     3.3791    16.7426 </r>
       <r>    -2.4269     3.0576    17.0856 </r>
       <r>    -2.3360     2.9184    17.3554 </r>
       <r>    -2.2451     2.0370    17.5729 </r>
       <r>    -2.1542     1.4969    17.7732 </r>
       <r>    -2.0633     0.5988    17.8277 </r>
       <r>    -1.9724     0.9117    17.9105 </r>
       <r>    -1.8815     0.2861    17.9365 </r>
       <r>    -1.7907     0.5997    17.9910 </r>
       <r>    -1.6998     0.0986    18.0000 </r>
       <r>    -1.6089     0.0000    18.0000 </r>
       <r>    -1.5180     0.0000    18.0000 </r>
       <r>    -1.4271     0.0000    18.0000 </r>
       <r>    -1.3362     0.0000    18.0000 </r>
       <r>    -1.2453     0.0000    18.0000 </r>
       <r>    -1.1544     0.0000    18.0000 </r>
       <r>    -1.0636     0.0000    18.0000 </r>
       <r>    -0.9727     0.0000    18.0000 </r>
       <r>    -0.8818     0.0000    18.0000 </r>
       <r>    -0.7909     0.0000    18.0000 </r>
       <r>    -0.7000     0.0000    18.0000 </r>
       <r>    -0.6091     0.0000    18.0000 </r>
       <r>    -0.5182     0.0000    18.0000 </r>
       <r>    -0.4273     0.0000    18.0000 </r>
       <r>    -0.3365     0.0000    18.0000 </r>
       <r>    -0.2456     0.0000    18.0000 </r>
       <r>    -0.1547     0.0013    18.0001 </r>
       <r>    -0.0638     1.5821    18.1439 </r>
       <r>     0.0271     1.9619    18.3506 </r>
       <r>     0.1180     2.8738    18.6512 </r>
       <r>     0.2089     1.9087    18.8628 </r>
       <r>     0.2998     2.7124    19.1264 </r>
       <r>     0.3907     2.0470    19.4196 </r>
       <r>     0.4815     0.3179    19.4529 </r>
       <r>     0.5724     3.5661    19.7770 </r>
       <r>     0.6633     4.4119    20.2060 </r>
       <r>     0.7542     4.7434    20.7016 </r>
       <r>     0.8451     5.8318    21.2332 </r>
       <r>     0.9360     3.2854    21.5458 </r>
       <r>     1.0269     5.1772    22.0637 </r>
       <r>     1.1178     3.1721    22.4157 </r>
       <r>     1.2086     2.9370    22.8027 </r>
       <r>     1.2995     2.8459    23.0932 </r>
       <r>     1.3904     1.7198    23.2720 </r>
       <r>     1.4813     1.7918    23.4782 </r>
       <r>     1.5722     1.4969    23.6145 </r>
       <r>     1.6631     1.8032    23.7784 </r>
       <r>     1.7540     1.0054    23.8698 </r>
       <r>     1.8449     1.8179    24.0350 </r>
       <r>     1.9357     0.6397    24.1443 </r>
       <r>     2.0266     0.8957    24.2764 </r>
       <r>     2.1175     1.2057    24.3862 </r>
       <r>     2.2084     0.2913    24.4127 </r>
       <r>     2.2993     2.1417    24.6074 </r>
       <r>     2.3902     0.6604    24.6904 </r>
       <r>     2.4811     4.6637    25.1828 </r>
       <r>     2.5720     2.5287    25.4861 </r>
       <r>     2.6629     1.2627    25.6204 </r>
       <r>     2.7537     2.0956    25.8594 </r>
       <r>     2.8446     0.4162    25.8972 </r>
       <r>     2.9355     0.5758    25.9937 </r>
       <r>     3.0264     2.0704    26.2311 </r>
       <r>     3.1173     0.8507    26.3494 </r>
       <r>     3.2082     1.2159    26.4643 </r>
       <r>     3.2991     1.4845    26.6066 </r>
       <r>     3.3900     1.7298    26.7650 </r>
       <r>     3.4808     0.2536    26.8312 </r>
       <r>     3.5717     2.4160    27.0508 </r>
       <r>     3.6626     1.1384    27.1543 </r>
       <r>     3.7535     0.8080    27.2299 </r>
       <r>     3.8444     2.1739    27.4357 </r>
       <r>     3.9353     2.9801    27.7281 </r>
       <r>     4.0262     2.1820    27.9264 </r>
       <r>     4.1171     0.7228    27.9931 </r>
       <r>     4.2080     1.9764    28.2159 </r>
       <r>     4.2988     2.0904    28.5034 </r>
       <r>     4.3897     0.8983    28.5850 </r>
       <r>     4.4806     0.6122    28.6407 </r>
       <r>     4.5715     4.1283    29.0160 </r>
       <r>     4.6624     1.4953    29.1563 </r>
       <r>     4.7533     0.1707    29.1992 </r>
       <r>     4.8442     2.1489    29.4153 </r>
       <r>     4.9351     3.6506    29.7968 </r>
       <r>     5.0259     1.7946    29.9603 </r>
       <r>     5.1168     3.4684    30.3303 </r>
       <r>     5.2077     2.2791    30.5473 </r>
       <r>     5.2986     2.0943    30.7754 </r>
       <r>     5.3895     3.5961    31.1077 </r>
       <r>     5.4804     3.1287    31.4681 </r>
       <r>     5.5713     3.8170    31.8573 </r>
       <r>     5.6622     2.0402    32.0494 </r>
       <r>     5.7530     3.8606    32.4056 </r>
       <r>     5.8439     2.0230    32.6223 </r>
       <r>     5.9348     2.0815    32.8163 </r>
       <r>     6.0257     2.6944    33.0612 </r>
       <r>     6.1166     2.0715    33.2495 </r>
       <r>     6.2075     4.4640    33.6574 </r>
       <r>     6.2984     0.9557    33.7467 </r>
       <r>     6.3893     2.2176    33.9982 </r>
       <r>     6.4802     2.8593    34.2761 </r>
       <r>     6.5710     1.4922    34.4490 </r>
       <r>     6.6619     2.3330    34.6610 </r>
       <r>     6.7528     1.4630    34.8000 </r>
       <r>     6.8437     2.3647    35.0184 </r>
       <r>     6.9346     1.9732    35.2270 </r>
       <r>     7.0255     1.3700    35.4089 </r>
       <r>     7.1164     0.4254    35.4763 </r>
       <r>     7.2073     0.6945    35.5559 </r>
       <r>     7.2981     0.0000    35.6009 </r>
       <r>     7.3890     0.0062    35.6015 </r>
       <r>     7.4799     1.7902    35.7642 </r>
       <r>     7.5708     0.0000    35.7642 </r>
       <r>     7.6617     0.0000    35.7642 </r>
       <r>     7.7526     0.0001    35.7642 </r>
       <r>     7.8435     0.6984    35.8277 </r>
       <r>     7.9344     0.6096    35.8831 </r>
       <r>     8.0252     0.5880    35.9365 </r>
       <r>     8.1161     0.0001    35.9365 </r>
       <r>     8.2070     0.5986    35.9909 </r>
       <r>     8.2979     0.0998    36.0000 </r>
       <r>     8.3888     0.0000    36.0000 </r>
       <r>     8.4797     0.0000    36.0000 </r>
       <r>     8.5706     0.0000    36.0000 </r>
       <r>     8.6615     0.0000    36.0000 </r>
       <r>     8.7524     0.0000    36.0000 </r>
       <r>     8.8432     0.0000    36.0000 </r>
       <r>     8.9341     0.0000    36.0000 </r>
       <r>     9.0250     0.0000    36.0000 </r>
       <r>     9.1159     0.0000    36.0000 </r>
       <r>     9.2068     0.0000    36.0000 </r>
       <r>     9.2977     0.0000    36.0000 </r>
       <r>     9.3886     0.0000    36.0000 </r>
       <r>     9.4795     0.0000    36.0000 </r>
      </set>
     </set>
    </array>
   </total>
  </dos>
 </calculation>
 <structure name="finalpos" >
  <crystal>
   <varray name="basis" >
    <v>       3.28200000       0.00000000       0.00000000 </v>
    <v>       1.64100000       2.84048000       0.00000000 </v>
    <v>       0.00000000       0.00000000      20.00000000 </v>
   </varray>
   <i name="volume">    186.44910720 </i>
   <varray name="rec_basis" >
    <v>       0.30469226      -0.17602659       0.00000000 </v>
    <v>       0.00000000       0.35205317       0.00000000 </v>
    <v>       0.00000000       0.00000000       0.05000000 </v>
   </varray>
  </crystal>
  <varray name="positions" >
   <v>       0.99990014       0.00019971      -0.00000000 </v>
   <v>       0.33327693       0.33344614       0.91545910 </v>
   <v>       0.33327693       0.33344614       0.08454090 </v>
  </varray>
 </structure>
</modeling>
