W-1, se-2                               
           1
     3.282000    0.000000    0.000000
     1.641000    2.840480    0.000000
     0.000000    0.000000   20.000000
   W    Se
   1   2
Direct configuration=     1
   0.99990000  0.00020000  0.00000000
   0.33327700  0.33344600  0.91545900
   0.33327700  0.33344600  0.08454100
Direct configuration=     2
   0.99990019  0.00019962 -0.00000000
   0.33327690  0.33344619  0.91545908
   0.33327690  0.33344619  0.08454092
Direct configuration=     3
   0.99990020  0.00019960 -0.00000000
   0.33327690  0.33344620  0.91545908
   0.33327690  0.33344620  0.08454092
Direct configuration=     4
   0.99990013  0.00019973 -0.00000000
   0.33327693  0.33344613  0.91545910
   0.33327693  0.33344613  0.08454090
Direct configuration=     5
   0.99990014  0.00019971 -0.00000000
   0.33327693  0.33344614  0.91545910
   0.33327693  0.33344614  0.08454090
Direct configuration=     6
   0.99990014  0.00019971 -0.00000000
   0.33327693  0.33344614  0.91545910
   0.33327693  0.33344614  0.08454090
Direct configuration=     7
   0.99990014  0.00019971 -0.00000000
   0.33327693  0.33344614  0.91545910
   0.33327693  0.33344614  0.08454090
Direct configuration=     8
   0.99990014  0.00019971 -0.00000000
   0.33327693  0.33344614  0.91545910
   0.33327693  0.33344614  0.08454090
Direct configuration=     9
   0.99990014  0.00019971 -0.00000000
   0.33327693  0.33344614  0.91545910
   0.33327693  0.33344614  0.08454090
