   3   3   0   0
  0.6214970E+02  0.3282000E-09  0.3280428E-09  0.2000000E-08  0.5000000E-15
  1.000000000000000E-004
  CAR 
 W-1, se-2                               
      9.47967753    -17.78686493 6001     -1.38603964      1.00000000
    -17.787  0.0000E+00  0.0000E+00
    -17.782  0.0000E+00  0.0000E+00
    -17.778  0.0000E+00  0.0000E+00
    -17.773  0.0000E+00  0.0000E+00
    -17.769  0.0000E+00  0.0000E+00
    -17.764  0.0000E+00  0.0000E+00
    -17.760  0.0000E+00  0.0000E+00
    -17.755  0.0000E+00  0.0000E+00
    -17.751  0.0000E+00  0.0000E+00
    -17.746  0.0000E+00  0.0000E+00
    -17.741  0.0000E+00  0.0000E+00
    -17.737  0.0000E+00  0.0000E+00
    -17.732  0.0000E+00  0.0000E+00
    -17.728  0.0000E+00  0.0000E+00
    -17.723  0.0000E+00  0.0000E+00
    -17.719  0.0000E+00  0.0000E+00
    -17.714  0.0000E+00  0.0000E+00
    -17.710  0.0000E+00  0.0000E+00
    -17.705  0.0000E+00  0.0000E+00
    -17.701  0.0000E+00  0.0000E+00
    -17.696  0.0000E+00  0.0000E+00
    -17.691  0.0000E+00  0.0000E+00
    -17.687  0.0000E+00  0.0000E+00
    -17.682  0.0000E+00  0.0000E+00
    -17.678  0.0000E+00  0.0000E+00
    -17.673  0.0000E+00  0.0000E+00
    -17.669  0.0000E+00  0.0000E+00
    -17.664  0.0000E+00  0.0000E+00
    -17.660  0.0000E+00  0.0000E+00
    -17.655  0.0000E+00  0.0000E+00
    -17.651  0.0000E+00  0.0000E+00
    -17.646  0.0000E+00  0.0000E+00
    -17.641  0.0000E+00  0.0000E+00
    -17.637  0.0000E+00  0.0000E+00
    -17.632  0.0000E+00  0.0000E+00
    -17.628  0.0000E+00  0.0000E+00
    -17.623  0.0000E+00  0.0000E+00
    -17.619  0.0000E+00  0.0000E+00
    -17.614  0.0000E+00  0.0000E+00
    -17.610  0.0000E+00  0.0000E+00
    -17.605  0.0000E+00  0.0000E+00
    -17.601  0.0000E+00  0.0000E+00
    -17.596  0.0000E+00  0.0000E+00
    -17.591  0.0000E+00  0.0000E+00
    -17.587  0.0000E+00  0.0000E+00
    -17.582  0.0000E+00  0.0000E+00
    -17.578  0.0000E+00  0.0000E+00
    -17.573  0.0000E+00  0.0000E+00
    -17.569  0.0000E+00  0.0000E+00
    -17.564  0.0000E+00  0.0000E+00
    -17.560  0.0000E+00  0.0000E+00
    -17.555  0.0000E+00  0.0000E+00
    -17.551  0.0000E+00  0.0000E+00
    -17.546  0.0000E+00  0.0000E+00
    -17.541  0.0000E+00  0.0000E+00
    -17.537  0.0000E+00  0.0000E+00
    -17.532  0.0000E+00  0.0000E+00
    -17.528  0.0000E+00  0.0000E+00
    -17.523  0.0000E+00  0.0000E+00
    -17.519  0.0000E+00  0.0000E+00
    -17.514  0.0000E+00  0.0000E+00
    -17.510  0.0000E+00  0.0000E+00
    -17.505  0.0000E+00  0.0000E+00
    -17.501  0.0000E+00  0.0000E+00
    -17.496  0.0000E+00  0.0000E+00
    -17.491  0.0000E+00  0.0000E+00
    -17.487  0.0000E+00  0.0000E+00
    -17.482  0.0000E+00  0.0000E+00
    -17.478  0.0000E+00  0.0000E+00
    -17.473  0.0000E+00  0.0000E+00
    -17.469  0.0000E+00  0.0000E+00
    -17.464  0.0000E+00  0.0000E+00
    -17.460  0.0000E+00  0.0000E+00
    -17.455  0.0000E+00  0.0000E+00
    -17.451  0.0000E+00  0.0000E+00
    -17.446  0.0000E+00  0.0000E+00
    -17.441  0.0000E+00  0.0000E+00
    -17.437  0.0000E+00  0.0000E+00
    -17.432  0.0000E+00  0.0000E+00
    -17.428  0.0000E+00  0.0000E+00
    -17.423  0.0000E+00  0.0000E+00
    -17.419  0.0000E+00  0.0000E+00
    -17.414  0.0000E+00  0.0000E+00
    -17.410  0.0000E+00  0.0000E+00
    -17.405  0.0000E+00  0.0000E+00
    -17.401  0.0000E+00  0.0000E+00
    -17.396  0.0000E+00  0.0000E+00
    -17.392  0.0000E+00  0.0000E+00
    -17.387  0.0000E+00  0.0000E+00
    -17.382  0.0000E+00  0.0000E+00
    -17.378  0.0000E+00  0.0000E+00
    -17.373  0.0000E+00  0.0000E+00
    -17.369  0.0000E+00  0.0000E+00
    -17.364  0.0000E+00  0.0000E+00
    -17.360  0.0000E+00  0.0000E+00
    -17.355  0.0000E+00  0.0000E+00
    -17.351  0.0000E+00  0.0000E+00
    -17.346  0.0000E+00  0.0000E+00
    -17.342  0.0000E+00  0.0000E+00
    -17.337  0.0000E+00  0.0000E+00
    -17.332  0.0000E+00  0.0000E+00
    -17.328  0.0000E+00  0.0000E+00
    -17.323  0.0000E+00  0.0000E+00
    -17.319  0.0000E+00  0.0000E+00
    -17.314  0.0000E+00  0.0000E+00
    -17.310  0.0000E+00  0.0000E+00
    -17.305  0.0000E+00  0.0000E+00
    -17.301  0.0000E+00  0.0000E+00
    -17.296  0.0000E+00  0.0000E+00
    -17.292  0.0000E+00  0.0000E+00
    -17.287  0.0000E+00  0.0000E+00
    -17.282  0.0000E+00  0.0000E+00
    -17.278  0.0000E+00  0.0000E+00
    -17.273  0.0000E+00  0.0000E+00
    -17.269  0.0000E+00  0.0000E+00
    -17.264  0.0000E+00  0.0000E+00
    -17.260  0.0000E+00  0.0000E+00
    -17.255  0.0000E+00  0.0000E+00
    -17.251  0.0000E+00  0.0000E+00
    -17.246  0.0000E+00  0.0000E+00
    -17.242  0.0000E+00  0.0000E+00
    -17.237  0.0000E+00  0.0000E+00
    -17.232  0.0000E+00  0.0000E+00
    -17.228  0.0000E+00  0.0000E+00
    -17.223  0.0000E+00  0.0000E+00
    -17.219  0.0000E+00  0.0000E+00
    -17.214  0.0000E+00  0.0000E+00
    -17.210  0.0000E+00  0.0000E+00
    -17.205  0.0000E+00  0.0000E+00
    -17.201  0.0000E+00  0.0000E+00
    -17.196  0.0000E+00  0.0000E+00
    -17.192  0.0000E+00  0.0000E+00
    -17.187  0.0000E+00  0.0000E+00
    -17.182  0.0000E+00  0.0000E+00
    -17.178  0.0000E+00  0.0000E+00
    -17.173  0.0000E+00  0.0000E+00
    -17.169  0.0000E+00  0.0000E+00
    -17.164  0.0000E+00  0.0000E+00
    -17.160  0.0000E+00  0.0000E+00
    -17.155  0.0000E+00  0.0000E+00
    -17.151  0.0000E+00  0.0000E+00
    -17.146  0.0000E+00  0.0000E+00
    -17.142  0.0000E+00  0.0000E+00
    -17.137  0.1385E-16  0.6294E-19
    -17.132  0.0000E+00  0.6294E-19
    -17.128  0.9695E-16  0.5035E-18
    -17.123  0.1385E-16  0.5664E-18
    -17.119  0.1246E-15  0.1133E-17
    -17.114  0.2216E-15  0.2140E-17
    -17.110  0.3462E-15  0.3713E-17
    -17.105  0.6509E-15  0.6671E-17
    -17.101  0.9141E-15  0.1083E-16
    -17.096  0.1676E-14  0.1844E-16
    -17.092  0.2701E-14  0.3071E-16
    -17.087  0.4390E-14  0.5066E-16
    -17.082  0.7271E-14  0.8371E-16
    -17.078  0.1220E-13  0.1392E-15
    -17.073  0.1957E-13  0.2281E-15
    -17.069  0.3194E-13  0.3732E-15
    -17.064  0.5166E-13  0.6080E-15
    -17.060  0.8361E-13  0.9879E-15
    -17.055  0.1340E-12  0.1597E-14
    -17.051  0.2144E-12  0.2571E-14
    -17.046  0.3418E-12  0.4125E-14
    -17.042  0.5423E-12  0.6589E-14
    -17.037  0.8573E-12  0.1048E-13
    -17.032  0.1350E-11  0.1662E-13
    -17.028  0.2116E-11  0.2623E-13
    -17.023  0.3304E-11  0.4125E-13
    -17.019  0.5138E-11  0.6460E-13
    -17.014  0.7958E-11  0.1008E-12
    -17.010  0.1228E-10  0.1566E-12
    -17.005  0.1886E-10  0.2423E-12
    -17.001  0.2886E-10  0.3734E-12
    -16.996  0.4399E-10  0.5733E-12
    -16.992  0.6677E-10  0.8768E-12
    -16.987  0.1009E-09  0.1336E-11
    -16.983  0.1520E-09  0.2026E-11
    -16.978  0.2279E-09  0.3062E-11
    -16.973  0.3404E-09  0.4609E-11
    -16.969  0.5064E-09  0.6911E-11
    -16.964  0.7504E-09  0.1032E-10
    -16.960  0.1107E-08  0.1535E-10
    -16.955  0.1627E-08  0.2275E-10
    -16.951  0.2382E-08  0.3357E-10
    -16.946  0.3473E-08  0.4936E-10
    -16.942  0.5043E-08  0.7228E-10
    -16.937  0.7294E-08  0.1054E-09
    -16.933  0.1051E-07  0.1532E-09
    -16.928  0.1507E-07  0.2217E-09
    -16.923  0.2154E-07  0.3196E-09
    -16.919  0.3066E-07  0.4589E-09
    -16.914  0.4346E-07  0.6564E-09
    -16.910  0.6136E-07  0.9353E-09
    -16.905  0.8630E-07  0.1327E-08
    -16.901  0.1209E-06  0.1877E-08
    -16.896  0.1686E-06  0.2643E-08
    -16.892  0.2343E-06  0.3708E-08
    -16.887  0.3243E-06  0.5182E-08
    -16.883  0.4470E-06  0.7213E-08
    -16.878  0.6138E-06  0.1000E-07
    -16.873  0.8393E-06  0.1382E-07
    -16.869  0.1143E-05  0.1901E-07
    -16.864  0.1551E-05  0.2606E-07
    -16.860  0.2096E-05  0.3559E-07
    -16.855  0.2821E-05  0.4841E-07
    -16.851  0.3783E-05  0.6560E-07
    -16.846  0.5051E-05  0.8855E-07
    -16.842  0.6719E-05  0.1191E-06
    -16.837  0.8902E-05  0.1595E-06
    -16.833  0.1175E-04  0.2129E-06
    -16.828  0.1544E-04  0.2831E-06
    -16.823  0.2022E-04  0.3750E-06
    -16.819  0.2637E-04  0.4948E-06
    -16.814  0.3425E-04  0.6505E-06
    -16.810  0.4432E-04  0.8519E-06
    -16.805  0.5713E-04  0.1112E-05
    -16.801  0.7335E-04  0.1445E-05
    -16.796  0.9381E-04  0.1871E-05
    -16.792  0.1195E-03  0.2414E-05
    -16.787  0.1516E-03  0.3103E-05
    -16.783  0.1917E-03  0.3974E-05
    -16.778  0.2414E-03  0.5071E-05
    -16.773  0.3028E-03  0.6447E-05
    -16.769  0.3783E-03  0.8166E-05
    -16.764  0.4708E-03  0.1031E-04
    -16.760  0.5838E-03  0.1296E-04
    -16.755  0.7210E-03  0.1624E-04
    -16.751  0.8871E-03  0.2027E-04
    -16.746  0.1087E-02  0.2521E-04
    -16.742  0.1328E-02  0.3124E-04
    -16.737  0.1615E-02  0.3858E-04
    -16.733  0.1957E-02  0.4748E-04
    -16.728  0.2363E-02  0.5821E-04
    -16.723  0.2842E-02  0.7113E-04
    -16.719  0.3405E-02  0.8660E-04
    -16.714  0.4064E-02  0.1051E-03
    -16.710  0.4833E-02  0.1270E-03
    -16.705  0.5726E-02  0.1530E-03
    -16.701  0.6759E-02  0.1838E-03
    -16.696  0.7949E-02  0.2199E-03
    -16.692  0.9314E-02  0.2622E-03
    -16.687  0.1087E-01  0.3116E-03
    -16.683  0.1265E-01  0.3691E-03
    -16.678  0.1466E-01  0.4357E-03
    -16.673  0.1692E-01  0.5126E-03
    -16.669  0.1947E-01  0.6011E-03
    -16.664  0.2233E-01  0.7026E-03
    -16.660  0.2550E-01  0.8185E-03
    -16.655  0.2903E-01  0.9504E-03
    -16.651  0.3293E-01  0.1100E-02
    -16.646  0.3723E-01  0.1269E-02
    -16.642  0.4193E-01  0.1460E-02
    -16.637  0.4707E-01  0.1674E-02
    -16.633  0.5266E-01  0.1913E-02
    -16.628  0.5871E-01  0.2180E-02
    -16.623  0.6524E-01  0.2476E-02
    -16.619  0.7225E-01  0.2805E-02
    -16.614  0.7974E-01  0.3167E-02
    -16.610  0.8773E-01  0.3566E-02
    -16.605  0.9620E-01  0.4003E-02
    -16.601  0.1051E+00  0.4481E-02
    -16.596  0.1146E+00  0.5001E-02
    -16.592  0.1244E+00  0.5567E-02
    -16.587  0.1347E+00  0.6179E-02
    -16.583  0.1454E+00  0.6840E-02
    -16.578  0.1565E+00  0.7551E-02
    -16.574  0.1679E+00  0.8314E-02
    -16.569  0.1796E+00  0.9130E-02
    -16.564  0.1916E+00  0.1000E-01
    -16.560  0.2038E+00  0.1093E-01
    -16.555  0.2162E+00  0.1191E-01
    -16.551  0.2287E+00  0.1295E-01
    -16.546  0.2413E+00  0.1405E-01
    -16.542  0.2539E+00  0.1520E-01
    -16.537  0.2664E+00  0.1641E-01
    -16.533  0.2789E+00  0.1768E-01
    -16.528  0.2913E+00  0.1900E-01
    -16.524  0.3034E+00  0.2038E-01
    -16.519  0.3154E+00  0.2181E-01
    -16.514  0.3271E+00  0.2330E-01
    -16.510  0.3385E+00  0.2484E-01
    -16.505  0.3496E+00  0.2643E-01
    -16.501  0.3602E+00  0.2806E-01
    -16.496  0.3705E+00  0.2975E-01
    -16.492  0.3804E+00  0.3148E-01
    -16.487  0.3898E+00  0.3325E-01
    -16.483  0.3987E+00  0.3506E-01
    -16.478  0.4072E+00  0.3691E-01
    -16.474  0.4153E+00  0.3880E-01
    -16.469  0.4228E+00  0.4072E-01
    -16.464  0.4299E+00  0.4267E-01
    -16.460  0.4365E+00  0.4466E-01
    -16.455  0.4426E+00  0.4667E-01
    -16.451  0.4483E+00  0.4870E-01
    -16.446  0.4536E+00  0.5077E-01
    -16.442  0.4585E+00  0.5285E-01
    -16.437  0.4629E+00  0.5495E-01
    -16.433  0.4670E+00  0.5708E-01
    -16.428  0.4708E+00  0.5921E-01
    -16.424  0.4742E+00  0.6137E-01
    -16.419  0.4773E+00  0.6354E-01
    -16.414  0.4801E+00  0.6572E-01
    -16.410  0.4827E+00  0.6791E-01
    -16.405  0.4850E+00  0.7012E-01
    -16.401  0.4871E+00  0.7233E-01
    -16.396  0.4890E+00  0.7455E-01
    -16.392  0.4907E+00  0.7678E-01
    -16.387  0.4922E+00  0.7902E-01
    -16.383  0.4937E+00  0.8126E-01
    -16.378  0.4949E+00  0.8351E-01
    -16.374  0.4961E+00  0.8577E-01
    -16.369  0.4972E+00  0.8803E-01
    -16.364  0.4982E+00  0.9029E-01
    -16.360  0.4991E+00  0.9256E-01
    -16.355  0.4999E+00  0.9483E-01
    -16.351  0.5007E+00  0.9711E-01
    -16.346  0.5014E+00  0.9938E-01
    -16.342  0.5021E+00  0.1017E+00
    -16.337  0.5028E+00  0.1040E+00
    -16.333  0.5034E+00  0.1062E+00
    -16.328  0.5040E+00  0.1085E+00
    -16.324  0.5046E+00  0.1108E+00
    -16.319  0.5052E+00  0.1131E+00
    -16.314  0.5058E+00  0.1154E+00
    -16.310  0.5063E+00  0.1177E+00
    -16.305  0.5069E+00  0.1200E+00
    -16.301  0.5074E+00  0.1223E+00
    -16.296  0.5079E+00  0.1246E+00
    -16.292  0.5084E+00  0.1269E+00
    -16.287  0.5090E+00  0.1293E+00
    -16.283  0.5095E+00  0.1316E+00
    -16.278  0.5100E+00  0.1339E+00
    -16.274  0.5105E+00  0.1362E+00
    -16.269  0.5110E+00  0.1385E+00
    -16.264  0.5116E+00  0.1409E+00
    -16.260  0.5121E+00  0.1432E+00
    -16.255  0.5126E+00  0.1455E+00
    -16.251  0.5131E+00  0.1478E+00
    -16.246  0.5136E+00  0.1502E+00
    -16.242  0.5142E+00  0.1525E+00
    -16.237  0.5147E+00  0.1549E+00
    -16.233  0.5152E+00  0.1572E+00
    -16.228  0.5157E+00  0.1595E+00
    -16.224  0.5163E+00  0.1619E+00
    -16.219  0.5168E+00  0.1642E+00
    -16.214  0.5173E+00  0.1666E+00
    -16.210  0.5179E+00  0.1689E+00
    -16.205  0.5184E+00  0.1713E+00
    -16.201  0.5190E+00  0.1737E+00
    -16.196  0.5195E+00  0.1760E+00
    -16.192  0.5201E+00  0.1784E+00
    -16.187  0.5206E+00  0.1807E+00
    -16.183  0.5212E+00  0.1831E+00
    -16.178  0.5217E+00  0.1855E+00
    -16.174  0.5223E+00  0.1879E+00
    -16.169  0.5229E+00  0.1902E+00
    -16.165  0.5234E+00  0.1926E+00
    -16.160  0.5240E+00  0.1950E+00
    -16.155  0.5245E+00  0.1974E+00
    -16.151  0.5251E+00  0.1998E+00
    -16.146  0.5257E+00  0.2022E+00
    -16.142  0.5262E+00  0.2045E+00
    -16.137  0.5268E+00  0.2069E+00
    -16.133  0.5274E+00  0.2093E+00
    -16.128  0.5279E+00  0.2117E+00
    -16.124  0.5285E+00  0.2141E+00
    -16.119  0.5291E+00  0.2165E+00
    -16.115  0.5297E+00  0.2189E+00
    -16.110  0.5303E+00  0.2214E+00
    -16.105  0.5309E+00  0.2238E+00
    -16.101  0.5315E+00  0.2262E+00
    -16.096  0.5321E+00  0.2286E+00
    -16.092  0.5327E+00  0.2310E+00
    -16.087  0.5333E+00  0.2335E+00
    -16.083  0.5340E+00  0.2359E+00
    -16.078  0.5346E+00  0.2383E+00
    -16.074  0.5352E+00  0.2407E+00
    -16.069  0.5358E+00  0.2432E+00
    -16.065  0.5364E+00  0.2456E+00
    -16.060  0.5371E+00  0.2481E+00
    -16.055  0.5377E+00  0.2505E+00
    -16.051  0.5383E+00  0.2529E+00
    -16.046  0.5389E+00  0.2554E+00
    -16.042  0.5395E+00  0.2578E+00
    -16.037  0.5401E+00  0.2603E+00
    -16.033  0.5407E+00  0.2628E+00
    -16.028  0.5414E+00  0.2652E+00
    -16.024  0.5420E+00  0.2677E+00
    -16.019  0.5426E+00  0.2701E+00
    -16.015  0.5433E+00  0.2726E+00
    -16.010  0.5439E+00  0.2751E+00
    -16.005  0.5446E+00  0.2776E+00
    -16.001  0.5452E+00  0.2800E+00
    -15.996  0.5459E+00  0.2825E+00
    -15.992  0.5466E+00  0.2850E+00
    -15.987  0.5473E+00  0.2875E+00
    -15.983  0.5480E+00  0.2900E+00
    -15.978  0.5487E+00  0.2925E+00
    -15.974  0.5494E+00  0.2950E+00
    -15.969  0.5501E+00  0.2975E+00
    -15.965  0.5508E+00  0.3000E+00
    -15.960  0.5515E+00  0.3025E+00
    -15.955  0.5522E+00  0.3050E+00
    -15.951  0.5529E+00  0.3075E+00
    -15.946  0.5536E+00  0.3100E+00
    -15.942  0.5543E+00  0.3125E+00
    -15.937  0.5550E+00  0.3151E+00
    -15.933  0.5557E+00  0.3176E+00
    -15.928  0.5564E+00  0.3201E+00
    -15.924  0.5570E+00  0.3226E+00
    -15.919  0.5577E+00  0.3252E+00
    -15.915  0.5584E+00  0.3277E+00
    -15.910  0.5590E+00  0.3303E+00
    -15.905  0.5597E+00  0.3328E+00
    -15.901  0.5604E+00  0.3353E+00
    -15.896  0.5611E+00  0.3379E+00
    -15.892  0.5618E+00  0.3404E+00
    -15.887  0.5626E+00  0.3430E+00
    -15.883  0.5633E+00  0.3456E+00
    -15.878  0.5641E+00  0.3481E+00
    -15.874  0.5649E+00  0.3507E+00
    -15.869  0.5657E+00  0.3533E+00
    -15.865  0.5665E+00  0.3558E+00
    -15.860  0.5674E+00  0.3584E+00
    -15.855  0.5682E+00  0.3610E+00
    -15.851  0.5690E+00  0.3636E+00
    -15.846  0.5699E+00  0.3662E+00
    -15.842  0.5707E+00  0.3688E+00
    -15.837  0.5716E+00  0.3714E+00
    -15.833  0.5724E+00  0.3740E+00
    -15.828  0.5732E+00  0.3766E+00
    -15.824  0.5740E+00  0.3792E+00
    -15.819  0.5748E+00  0.3818E+00
    -15.815  0.5755E+00  0.3844E+00
    -15.810  0.5763E+00  0.3870E+00
    -15.805  0.5770E+00  0.3897E+00
    -15.801  0.5777E+00  0.3923E+00
    -15.796  0.5785E+00  0.3949E+00
    -15.792  0.5792E+00  0.3975E+00
    -15.787  0.5799E+00  0.4002E+00
    -15.783  0.5807E+00  0.4028E+00
    -15.778  0.5814E+00  0.4055E+00
    -15.774  0.5822E+00  0.4081E+00
    -15.769  0.5830E+00  0.4107E+00
    -15.765  0.5839E+00  0.4134E+00
    -15.760  0.5847E+00  0.4161E+00
    -15.756  0.5856E+00  0.4187E+00
    -15.751  0.5866E+00  0.4214E+00
    -15.746  0.5875E+00  0.4241E+00
    -15.742  0.5885E+00  0.4267E+00
    -15.737  0.5895E+00  0.4294E+00
    -15.733  0.5905E+00  0.4321E+00
    -15.728  0.5916E+00  0.4348E+00
    -15.724  0.5926E+00  0.4375E+00
    -15.719  0.5936E+00  0.4402E+00
    -15.715  0.5947E+00  0.4429E+00
    -15.710  0.5957E+00  0.4456E+00
    -15.706  0.5966E+00  0.4483E+00
    -15.701  0.5976E+00  0.4510E+00
    -15.696  0.5985E+00  0.4537E+00
    -15.692  0.5994E+00  0.4565E+00
    -15.687  0.6003E+00  0.4592E+00
    -15.683  0.6011E+00  0.4619E+00
    -15.678  0.6019E+00  0.4646E+00
    -15.674  0.6027E+00  0.4674E+00
    -15.669  0.6035E+00  0.4701E+00
    -15.665  0.6043E+00  0.4729E+00
    -15.660  0.6052E+00  0.4756E+00
    -15.656  0.6060E+00  0.4784E+00
    -15.651  0.6069E+00  0.4811E+00
    -15.646  0.6077E+00  0.4839E+00
    -15.642  0.6087E+00  0.4867E+00
    -15.637  0.6097E+00  0.4894E+00
    -15.633  0.6107E+00  0.4922E+00
    -15.628  0.6118E+00  0.4950E+00
    -15.624  0.6129E+00  0.4978E+00
    -15.619  0.6141E+00  0.5006E+00
    -15.615  0.6153E+00  0.5034E+00
    -15.610  0.6166E+00  0.5062E+00
    -15.606  0.6179E+00  0.5090E+00
    -15.601  0.6193E+00  0.5118E+00
    -15.596  0.6206E+00  0.5146E+00
    -15.592  0.6220E+00  0.5174E+00
    -15.587  0.6234E+00  0.5203E+00
    -15.583  0.6248E+00  0.5231E+00
    -15.578  0.6262E+00  0.5260E+00
    -15.574  0.6276E+00  0.5288E+00
    -15.569  0.6290E+00  0.5317E+00
    -15.565  0.6305E+00  0.5345E+00
    -15.560  0.6320E+00  0.5374E+00
    -15.556  0.6335E+00  0.5403E+00
    -15.551  0.6351E+00  0.5432E+00
    -15.546  0.6368E+00  0.5461E+00
    -15.542  0.6386E+00  0.5490E+00
    -15.537  0.6406E+00  0.5519E+00
    -15.533  0.6427E+00  0.5548E+00
    -15.528  0.6450E+00  0.5577E+00
    -15.524  0.6476E+00  0.5607E+00
    -15.519  0.6505E+00  0.5636E+00
    -15.515  0.6537E+00  0.5666E+00
    -15.510  0.6573E+00  0.5696E+00
    -15.506  0.6613E+00  0.5726E+00
    -15.501  0.6658E+00  0.5756E+00
    -15.496  0.6707E+00  0.5787E+00
    -15.492  0.6762E+00  0.5817E+00
    -15.487  0.6823E+00  0.5848E+00
    -15.483  0.6889E+00  0.5880E+00
    -15.478  0.6962E+00  0.5911E+00
    -15.474  0.7042E+00  0.5943E+00
    -15.469  0.7128E+00  0.5976E+00
    -15.465  0.7222E+00  0.6009E+00
    -15.460  0.7324E+00  0.6042E+00
    -15.456  0.7433E+00  0.6076E+00
    -15.451  0.7550E+00  0.6110E+00
    -15.446  0.7675E+00  0.6145E+00
    -15.442  0.7809E+00  0.6180E+00
    -15.437  0.7950E+00  0.6216E+00
    -15.433  0.8101E+00  0.6253E+00
    -15.428  0.8259E+00  0.6291E+00
    -15.424  0.8426E+00  0.6329E+00
    -15.419  0.8602E+00  0.6368E+00
    -15.415  0.8785E+00  0.6408E+00
    -15.410  0.8977E+00  0.6449E+00
    -15.406  0.9177E+00  0.6491E+00
    -15.401  0.9384E+00  0.6533E+00
    -15.396  0.9598E+00  0.6577E+00
    -15.392  0.9818E+00  0.6621E+00
    -15.387  0.1004E+01  0.6667E+00
    -15.383  0.1028E+01  0.6714E+00
    -15.378  0.1051E+01  0.6762E+00
    -15.374  0.1075E+01  0.6810E+00
    -15.369  0.1100E+01  0.6860E+00
    -15.365  0.1124E+01  0.6912E+00
    -15.360  0.1149E+01  0.6964E+00
    -15.356  0.1174E+01  0.7017E+00
    -15.351  0.1199E+01  0.7072E+00
    -15.347  0.1223E+01  0.7127E+00
    -15.342  0.1248E+01  0.7184E+00
    -15.337  0.1272E+01  0.7242E+00
    -15.333  0.1295E+01  0.7301E+00
    -15.328  0.1318E+01  0.7360E+00
    -15.324  0.1341E+01  0.7421E+00
    -15.319  0.1363E+01  0.7483E+00
    -15.315  0.1384E+01  0.7546E+00
    -15.310  0.1404E+01  0.7610E+00
    -15.306  0.1424E+01  0.7675E+00
    -15.301  0.1442E+01  0.7740E+00
    -15.297  0.1460E+01  0.7807E+00
    -15.292  0.1477E+01  0.7874E+00
    -15.287  0.1493E+01  0.7942E+00
    -15.283  0.1508E+01  0.8010E+00
    -15.278  0.1522E+01  0.8079E+00
    -15.274  0.1535E+01  0.8149E+00
    -15.269  0.1548E+01  0.8219E+00
    -15.265  0.1560E+01  0.8290E+00
    -15.260  0.1571E+01  0.8362E+00
    -15.256  0.1582E+01  0.8434E+00
    -15.251  0.1592E+01  0.8506E+00
    -15.247  0.1601E+01  0.8579E+00
    -15.242  0.1610E+01  0.8652E+00
    -15.237  0.1618E+01  0.8725E+00
    -15.233  0.1626E+01  0.8799E+00
    -15.228  0.1634E+01  0.8873E+00
    -15.224  0.1641E+01  0.8948E+00
    -15.219  0.1648E+01  0.9023E+00
    -15.215  0.1655E+01  0.9098E+00
    -15.210  0.1661E+01  0.9174E+00
    -15.206  0.1668E+01  0.9249E+00
    -15.201  0.1674E+01  0.9326E+00
    -15.197  0.1680E+01  0.9402E+00
    -15.192  0.1685E+01  0.9478E+00
    -15.187  0.1691E+01  0.9555E+00
    -15.183  0.1696E+01  0.9632E+00
    -15.178  0.1702E+01  0.9710E+00
    -15.174  0.1707E+01  0.9787E+00
    -15.169  0.1712E+01  0.9865E+00
    -15.165  0.1716E+01  0.9943E+00
    -15.160  0.1721E+01  0.1002E+01
    -15.156  0.1726E+01  0.1010E+01
    -15.151  0.1730E+01  0.1018E+01
    -15.147  0.1735E+01  0.1026E+01
    -15.142  0.1739E+01  0.1034E+01
    -15.137  0.1744E+01  0.1042E+01
    -15.133  0.1748E+01  0.1049E+01
    -15.128  0.1753E+01  0.1057E+01
    -15.124  0.1758E+01  0.1065E+01
    -15.119  0.1762E+01  0.1073E+01
    -15.115  0.1767E+01  0.1081E+01
    -15.110  0.1772E+01  0.1090E+01
    -15.106  0.1776E+01  0.1098E+01
    -15.101  0.1781E+01  0.1106E+01
    -15.097  0.1786E+01  0.1114E+01
    -15.092  0.1792E+01  0.1122E+01
    -15.087  0.1797E+01  0.1130E+01
    -15.083  0.1802E+01  0.1138E+01
    -15.078  0.1808E+01  0.1147E+01
    -15.074  0.1813E+01  0.1155E+01
    -15.069  0.1819E+01  0.1163E+01
    -15.065  0.1825E+01  0.1171E+01
    -15.060  0.1831E+01  0.1180E+01
    -15.056  0.1836E+01  0.1188E+01
    -15.051  0.1842E+01  0.1196E+01
    -15.047  0.1848E+01  0.1205E+01
    -15.042  0.1854E+01  0.1213E+01
    -15.037  0.1860E+01  0.1222E+01
    -15.033  0.1866E+01  0.1230E+01
    -15.028  0.1872E+01  0.1239E+01
    -15.024  0.1878E+01  0.1247E+01
    -15.019  0.1884E+01  0.1256E+01
    -15.015  0.1890E+01  0.1264E+01
    -15.010  0.1896E+01  0.1273E+01
    -15.006  0.1902E+01  0.1282E+01
    -15.001  0.1908E+01  0.1290E+01
    -14.997  0.1915E+01  0.1299E+01
    -14.992  0.1921E+01  0.1308E+01
    -14.987  0.1927E+01  0.1316E+01
    -14.983  0.1934E+01  0.1325E+01
    -14.978  0.1940E+01  0.1334E+01
    -14.974  0.1947E+01  0.1343E+01
    -14.969  0.1954E+01  0.1352E+01
    -14.965  0.1961E+01  0.1361E+01
    -14.960  0.1968E+01  0.1370E+01
    -14.956  0.1976E+01  0.1379E+01
    -14.951  0.1983E+01  0.1388E+01
    -14.947  0.1991E+01  0.1397E+01
    -14.942  0.1999E+01  0.1406E+01
    -14.938  0.2007E+01  0.1415E+01
    -14.933  0.2015E+01  0.1424E+01
    -14.928  0.2023E+01  0.1433E+01
    -14.924  0.2031E+01  0.1442E+01
    -14.919  0.2039E+01  0.1452E+01
    -14.915  0.2048E+01  0.1461E+01
    -14.910  0.2056E+01  0.1470E+01
    -14.906  0.2065E+01  0.1480E+01
    -14.901  0.2073E+01  0.1489E+01
    -14.897  0.2082E+01  0.1499E+01
    -14.892  0.2091E+01  0.1508E+01
    -14.888  0.2100E+01  0.1518E+01
    -14.883  0.2109E+01  0.1527E+01
    -14.878  0.2118E+01  0.1537E+01
    -14.874  0.2127E+01  0.1547E+01
    -14.869  0.2136E+01  0.1556E+01
    -14.865  0.2146E+01  0.1566E+01
    -14.860  0.2156E+01  0.1576E+01
    -14.856  0.2166E+01  0.1586E+01
    -14.851  0.2176E+01  0.1596E+01
    -14.847  0.2186E+01  0.1605E+01
    -14.842  0.2197E+01  0.1615E+01
    -14.838  0.2207E+01  0.1625E+01
    -14.833  0.2218E+01  0.1636E+01
    -14.828  0.2230E+01  0.1646E+01
    -14.824  0.2241E+01  0.1656E+01
    -14.819  0.2253E+01  0.1666E+01
    -14.815  0.2265E+01  0.1676E+01
    -14.810  0.2277E+01  0.1687E+01
    -14.806  0.2290E+01  0.1697E+01
    -14.801  0.2303E+01  0.1708E+01
    -14.797  0.2316E+01  0.1718E+01
    -14.792  0.2329E+01  0.1729E+01
    -14.788  0.2343E+01  0.1739E+01
    -14.783  0.2356E+01  0.1750E+01
    -14.778  0.2371E+01  0.1761E+01
    -14.774  0.2385E+01  0.1772E+01
    -14.769  0.2400E+01  0.1783E+01
    -14.765  0.2415E+01  0.1794E+01
    -14.760  0.2430E+01  0.1805E+01
    -14.756  0.2446E+01  0.1816E+01
    -14.751  0.2463E+01  0.1827E+01
    -14.747  0.2479E+01  0.1838E+01
    -14.742  0.2497E+01  0.1850E+01
    -14.738  0.2514E+01  0.1861E+01
    -14.733  0.2533E+01  0.1872E+01
    -14.728  0.2551E+01  0.1884E+01
    -14.724  0.2571E+01  0.1896E+01
    -14.719  0.2591E+01  0.1908E+01
    -14.715  0.2611E+01  0.1919E+01
    -14.710  0.2633E+01  0.1931E+01
    -14.706  0.2655E+01  0.1943E+01
    -14.701  0.2677E+01  0.1956E+01
    -14.697  0.2701E+01  0.1968E+01
    -14.692  0.2725E+01  0.1980E+01
    -14.688  0.2750E+01  0.1993E+01
    -14.683  0.2775E+01  0.2005E+01
    -14.678  0.2802E+01  0.2018E+01
    -14.674  0.2829E+01  0.2031E+01
    -14.669  0.2856E+01  0.2044E+01
    -14.665  0.2885E+01  0.2057E+01
    -14.660  0.2914E+01  0.2070E+01
    -14.656  0.2944E+01  0.2084E+01
    -14.651  0.2975E+01  0.2097E+01
    -14.647  0.3006E+01  0.2111E+01
    -14.642  0.3037E+01  0.2125E+01
    -14.638  0.3070E+01  0.2139E+01
    -14.633  0.3102E+01  0.2153E+01
    -14.628  0.3135E+01  0.2167E+01
    -14.624  0.3168E+01  0.2181E+01
    -14.619  0.3202E+01  0.2196E+01
    -14.615  0.3235E+01  0.2211E+01
    -14.610  0.3269E+01  0.2225E+01
    -14.606  0.3302E+01  0.2240E+01
    -14.601  0.3335E+01  0.2256E+01
    -14.597  0.3368E+01  0.2271E+01
    -14.592  0.3401E+01  0.2286E+01
    -14.588  0.3432E+01  0.2302E+01
    -14.583  0.3463E+01  0.2318E+01
    -14.579  0.3494E+01  0.2334E+01
    -14.574  0.3523E+01  0.2350E+01
    -14.569  0.3551E+01  0.2366E+01
    -14.565  0.3578E+01  0.2382E+01
    -14.560  0.3604E+01  0.2398E+01
    -14.556  0.3628E+01  0.2415E+01
    -14.551  0.3652E+01  0.2431E+01
    -14.547  0.3673E+01  0.2448E+01
    -14.542  0.3694E+01  0.2465E+01
    -14.538  0.3713E+01  0.2482E+01
    -14.533  0.3730E+01  0.2499E+01
    -14.529  0.3746E+01  0.2516E+01
    -14.524  0.3761E+01  0.2533E+01
    -14.519  0.3774E+01  0.2550E+01
    -14.515  0.3786E+01  0.2567E+01
    -14.510  0.3797E+01  0.2584E+01
    -14.506  0.3807E+01  0.2602E+01
    -14.501  0.3816E+01  0.2619E+01
    -14.497  0.3825E+01  0.2637E+01
    -14.492  0.3832E+01  0.2654E+01
    -14.488  0.3840E+01  0.2671E+01
    -14.483  0.3847E+01  0.2689E+01
    -14.479  0.3853E+01  0.2706E+01
    -14.474  0.3860E+01  0.2724E+01
    -14.469  0.3867E+01  0.2741E+01
    -14.465  0.3875E+01  0.2759E+01
    -14.460  0.3882E+01  0.2777E+01
    -14.456  0.3891E+01  0.2794E+01
    -14.451  0.3900E+01  0.2812E+01
    -14.447  0.3910E+01  0.2830E+01
    -14.442  0.3921E+01  0.2848E+01
    -14.438  0.3933E+01  0.2866E+01
    -14.433  0.3945E+01  0.2884E+01
    -14.429  0.3959E+01  0.2902E+01
    -14.424  0.3975E+01  0.2920E+01
    -14.419  0.3991E+01  0.2938E+01
    -14.415  0.4008E+01  0.2956E+01
    -14.410  0.4026E+01  0.2974E+01
    -14.406  0.4045E+01  0.2993E+01
    -14.401  0.4064E+01  0.3011E+01
    -14.397  0.4084E+01  0.3030E+01
    -14.392  0.4105E+01  0.3048E+01
    -14.388  0.4125E+01  0.3067E+01
    -14.383  0.4145E+01  0.3086E+01
    -14.379  0.4166E+01  0.3105E+01
    -14.374  0.4185E+01  0.3124E+01
    -14.369  0.4204E+01  0.3143E+01
    -14.365  0.4221E+01  0.3162E+01
    -14.360  0.4237E+01  0.3181E+01
    -14.356  0.4251E+01  0.3201E+01
    -14.351  0.4263E+01  0.3220E+01
    -14.347  0.4273E+01  0.3239E+01
    -14.342  0.4280E+01  0.3259E+01
    -14.338  0.4284E+01  0.3278E+01
    -14.333  0.4285E+01  0.3298E+01
    -14.329  0.4282E+01  0.3317E+01
    -14.324  0.4275E+01  0.3337E+01
    -14.319  0.4265E+01  0.3356E+01
    -14.315  0.4251E+01  0.3375E+01
    -14.310  0.4232E+01  0.3395E+01
    -14.306  0.4209E+01  0.3414E+01
    -14.301  0.4182E+01  0.3433E+01
    -14.297  0.4150E+01  0.3452E+01
    -14.292  0.4114E+01  0.3470E+01
    -14.288  0.4074E+01  0.3489E+01
    -14.283  0.4029E+01  0.3507E+01
    -14.279  0.3980E+01  0.3525E+01
    -14.274  0.3927E+01  0.3543E+01
    -14.269  0.3870E+01  0.3561E+01
    -14.265  0.3809E+01  0.3578E+01
    -14.260  0.3745E+01  0.3595E+01
    -14.256  0.3677E+01  0.3612E+01
    -14.251  0.3607E+01  0.3628E+01
    -14.247  0.3533E+01  0.3644E+01
    -14.242  0.3457E+01  0.3660E+01
    -14.238  0.3379E+01  0.3675E+01
    -14.233  0.3299E+01  0.3690E+01
    -14.229  0.3217E+01  0.3705E+01
    -14.224  0.3133E+01  0.3719E+01
    -14.219  0.3048E+01  0.3733E+01
    -14.215  0.2962E+01  0.3746E+01
    -14.210  0.2875E+01  0.3759E+01
    -14.206  0.2788E+01  0.3772E+01
    -14.201  0.2700E+01  0.3784E+01
    -14.197  0.2612E+01  0.3796E+01
    -14.192  0.2523E+01  0.3808E+01
    -14.188  0.2435E+01  0.3819E+01
    -14.183  0.2347E+01  0.3829E+01
    -14.179  0.2259E+01  0.3840E+01
    -14.174  0.2172E+01  0.3850E+01
    -14.170  0.2085E+01  0.3859E+01
    -14.165  0.1999E+01  0.3868E+01
    -14.160  0.1914E+01  0.3877E+01
    -14.156  0.1830E+01  0.3885E+01
    -14.151  0.1746E+01  0.3893E+01
    -14.147  0.1664E+01  0.3901E+01
    -14.142  0.1583E+01  0.3908E+01
    -14.138  0.1503E+01  0.3915E+01
    -14.133  0.1425E+01  0.3921E+01
    -14.129  0.1349E+01  0.3927E+01
    -14.124  0.1273E+01  0.3933E+01
    -14.120  0.1200E+01  0.3939E+01
    -14.115  0.1129E+01  0.3944E+01
    -14.110  0.1059E+01  0.3949E+01
    -14.106  0.9918E+00  0.3953E+01
    -14.101  0.9266E+00  0.3957E+01
    -14.097  0.8636E+00  0.3961E+01
    -14.092  0.8029E+00  0.3965E+01
    -14.088  0.7445E+00  0.3968E+01
    -14.083  0.6887E+00  0.3971E+01
    -14.079  0.6354E+00  0.3974E+01
    -14.074  0.5846E+00  0.3977E+01
    -14.070  0.5364E+00  0.3979E+01
    -14.065  0.4908E+00  0.3982E+01
    -14.060  0.4477E+00  0.3984E+01
    -14.056  0.4073E+00  0.3985E+01
    -14.051  0.3694E+00  0.3987E+01
    -14.047  0.3340E+00  0.3989E+01
    -14.042  0.3011E+00  0.3990E+01
    -14.038  0.2706E+00  0.3991E+01