98
Lattice="17.264384081 0.0 0.0 -8.632192040499998 14.951395194837662 0.0 0.0 0.0 40.0" Properties=species:S:1:pos:R:3:forces:R:3:displacements:R:3 pbc="T T T"
C       0.00000000       0.00000000       0.00000000      -0.24292263       0.00123492      -0.12889246       0.00396275       0.00000000       0.00918132 
C       2.46634058       0.00000000       0.00000000       0.01899975       0.00123424      -0.00421302       0.00000000       0.00000000       0.00000000 
C       4.93268117       0.00000000       0.00000000       0.00002298      -0.00010137      -0.00015399       0.00000000       0.00000000       0.00000000 
C       7.39902175       0.00000000       0.00000000       0.00059533      -0.00004557       0.00000943       0.00000000       0.00000000       0.00000000 
C       9.86536233       0.00000000       0.00000000      -0.00005112       0.00015879       0.00000888       0.00000000       0.00000000       0.00000000 
C      12.33170291       0.00000000       0.00000000       0.00059707      -0.00000157      -0.00015914       0.00000000       0.00000000       0.00000000 
C      14.79804350       0.00000000       0.00000000       0.01861631      -0.00117384      -0.00402038       0.00000000       0.00000000       0.00000000 
C      -1.23317029       2.13591360       0.00000000      -0.00351667      -0.01152931      -0.00403917       0.00000000       0.00000000       0.00000000 
C       1.23317029       2.13591360       0.00000000      -0.00336890       0.01169007      -0.00419203       0.00000000       0.00000000       0.00000000 
C       3.69951087       2.13591360       0.00000000       0.00143120       0.00058137       0.00063711       0.00000000       0.00000000       0.00000000 
C       6.16585146       2.13591360       0.00000000       0.00053854       0.00074226      -0.00005119       0.00000000       0.00000000       0.00000000 
C       8.63219204       2.13591360       0.00000000       0.00002569      -0.00018364       0.00000207       0.00000000       0.00000000       0.00000000 
C      11.09853262       2.13591360       0.00000000       0.00039488      -0.00033972      -0.00005083       0.00000000       0.00000000       0.00000000 
C      13.56487321       2.13591360       0.00000000       0.00191704      -0.00087376       0.00063145       0.00000000       0.00000000       0.00000000 
C      -2.46634058       4.27182720       0.00000000      -0.00060586      -0.00087405      -0.00015834       0.00000000       0.00000000       0.00000000 
C       0.00000000       4.27182720       0.00000000       0.00038682      -0.00003140       0.00063437       0.00000000       0.00000000       0.00000000 
C       2.46634058       4.27182720       0.00000000      -0.00089264       0.00044499      -0.00015231       0.00000000       0.00000000       0.00000000 
C       4.93268117       4.27182720       0.00000000       0.00026994      -0.00008734      -0.00005055       0.00000000       0.00000000       0.00000000 
C       7.39902175       4.27182720       0.00000000       0.00007254       0.00007617       0.00000451       0.00000000       0.00000000       0.00000000 
C       9.86536233       4.27182720       0.00000000       0.00055530      -0.00030458       0.00000437       0.00000000       0.00000000       0.00000000 
C      12.33170291       4.27182720       0.00000000      -0.00015419       0.00006505      -0.00005065       0.00000000       0.00000000       0.00000000 
C      -3.69951087       6.40774080       0.00000000      -0.00014473       0.00003517       0.00001028       0.00000000       0.00000000       0.00000000 
C      -1.23317029       6.40774080       0.00000000       0.00014448       0.00027735      -0.00005025       0.00000000       0.00000000       0.00000000 
C       1.23317029       6.40774080       0.00000000      -0.00049670      -0.00008836      -0.00005089       0.00000000       0.00000000       0.00000000 
C       3.69951087       6.40774080       0.00000000       0.00029992       0.00049062       0.00001037       0.00000000       0.00000000       0.00000000 
C       6.16585146       6.40774080       0.00000000      -0.00028381       0.00018577       0.00000203       0.00000000       0.00000000       0.00000000 
C       8.63219204       6.40774080       0.00000000      -0.00001657       0.00025752       0.00000487       0.00000000       0.00000000       0.00000000 
C      11.09853262       6.40774080       0.00000000       0.00007684       0.00004439       0.00000232       0.00000000       0.00000000       0.00000000 
C      -4.93268117       8.54365440       0.00000000       0.00016848      -0.00032025       0.00001048       0.00000000       0.00000000       0.00000000 
C      -2.46634058       8.54365440       0.00000000      -0.00022453      -0.00017503       0.00000270       0.00000000       0.00000000       0.00000000 
C       0.00000000       8.54365440       0.00000000      -0.00001269      -0.00046130       0.00000389       0.00000000       0.00000000       0.00000000 
C       2.46634058       8.54365440       0.00000000       0.00006225      -0.00000669       0.00000208       0.00000000       0.00000000       0.00000000 
C       4.93268117       8.54365440       0.00000000      -0.00004272      -0.00030631       0.00000968       0.00000000       0.00000000       0.00000000 
C       7.39902175       8.54365440       0.00000000       0.00001008       0.00045803      -0.00005068       0.00000000       0.00000000       0.00000000 
C       9.86536233       8.54365440       0.00000000      -0.00028971      -0.00086069      -0.00005017       0.00000000       0.00000000       0.00000000 
C      -6.16585146      10.67956800       0.00000000      -0.00088558      -0.00027763      -0.00015598       0.00000000       0.00000000       0.00000000 
C      -3.69951087      10.67956800       0.00000000       0.00027024      -0.00052146      -0.00004998       0.00000000       0.00000000       0.00000000 
C      -1.23317029      10.67956800       0.00000000      -0.00006562       0.00005795       0.00000461       0.00000000       0.00000000       0.00000000 
C       1.23317029      10.67956800       0.00000000       0.00068723       0.00044236       0.00000368       0.00000000       0.00000000       0.00000000 
C       3.69951087      10.67956800       0.00000000      -0.00024208       0.00104385      -0.00005098       0.00000000       0.00000000       0.00000000 
C       6.16585146      10.67956800       0.00000000      -0.00061335       0.00084872      -0.00015514       0.00000000       0.00000000       0.00000000 
C       8.63219204      10.67956800       0.00000000       0.00041781       0.00032312       0.00063485       0.00000000       0.00000000       0.00000000 
C      -7.39902175      12.81548160       0.00000000      -0.00340072      -0.01417581      -0.00413601       0.00000000       0.00000000       0.00000000 
C      -4.93268117      12.81548160       0.00000000       0.00161838      -0.00070009       0.00063312       0.00000000       0.00000000       0.00000000 
C      -2.46634058      12.81548160       0.00000000       0.00037998       0.00002281      -0.00005094       0.00000000       0.00000000       0.00000000 
C       0.00000000      12.81548160       0.00000000       0.00007026       0.00018629       0.00000160       0.00000000       0.00000000       0.00000000 
C       2.46634058      12.81548160       0.00000000       0.00048338      -0.00061930      -0.00005147       0.00000000       0.00000000       0.00000000 
C       4.93268117      12.81548160       0.00000000       0.00171571       0.00077595       0.00063515       0.00000000       0.00000000       0.00000000 
C       7.39902175      12.81548160       0.00000000      -0.00342244       0.01394845      -0.00409627       0.00000000       0.00000000       0.00000000 
C       0.00000000       1.42394240       0.00000000       0.04317789      -0.00009257       0.05529712       0.00000000       0.00000000       0.00000000 
C       2.46634058       1.42394240       0.00000000      -0.00032577      -0.00464563       0.00316403       0.00000000       0.00000000       0.00000000 
C       4.93268117       1.42394240       0.00000000      -0.00099689       0.00029380      -0.00005409       0.00000000       0.00000000       0.00000000 
C       7.39902175       1.42394240       0.00000000       0.00006991       0.00028298      -0.00002680       0.00000000       0.00000000       0.00000000 
C       9.86536233       1.42394240       0.00000000      -0.00021059       0.00012873      -0.00002679       0.00000000       0.00000000       0.00000000 
C      12.33170291       1.42394240       0.00000000      -0.00079995       0.00032417      -0.00005359       0.00000000       0.00000000       0.00000000 
C      14.79804350       1.42394240       0.00000000      -0.00066694       0.00484454       0.00317390       0.00000000       0.00000000       0.00000000 
C      -1.23317029       3.55985600       0.00000000       0.00268091      -0.00120780      -0.00438861       0.00000000       0.00000000       0.00000000 
C       1.23317029       3.55985600       0.00000000       0.00208518       0.00101219      -0.00440141       0.00000000       0.00000000       0.00000000 
C       3.69951087       3.55985600       0.00000000       0.00051394      -0.00095218      -0.00005403       0.00000000       0.00000000       0.00000000 
C       6.16585146       3.55985600       0.00000000      -0.00031013      -0.00049283       0.00001689       0.00000000       0.00000000       0.00000000 
C       8.63219204       3.55985600       0.00000000      -0.00015901      -0.00024741      -0.00000340       0.00000000       0.00000000       0.00000000 
C      11.09853262       3.55985600       0.00000000       0.00003470       0.00024624       0.00001654       0.00000000       0.00000000       0.00000000 
C      13.56487321       3.55985600       0.00000000       0.00008721       0.00043798      -0.00005247       0.00000000       0.00000000       0.00000000 
C      -2.46634058       5.69576960       0.00000000       0.00025197       0.00042625       0.00021301       0.00000000       0.00000000       0.00000000 
C       0.00000000       5.69576960       0.00000000       0.00006875       0.00003087       0.00053385       0.00000000       0.00000000       0.00000000 
C       2.46634058       5.69576960       0.00000000      -0.00003816      -0.00003192       0.00021556       0.00000000       0.00000000       0.00000000 
C       4.93268117       5.69576960       0.00000000       0.00021613       0.00003682      -0.00002568       0.00000000       0.00000000       0.00000000 
C       7.39902175       5.69576960       0.00000000      -0.00016776      -0.00003992      -0.00000296       0.00000000       0.00000000       0.00000000 
C       9.86536233       5.69576960       0.00000000       0.00032248       0.00023158      -0.00000302       0.00000000       0.00000000       0.00000000 
C      12.33170291       5.69576960       0.00000000      -0.00021970      -0.00003647      -0.00002653       0.00000000       0.00000000       0.00000000 
C      -3.69951087       7.83168320       0.00000000       0.00028622       0.00031712       0.00004401       0.00000000       0.00000000       0.00000000 
C      -1.23317029       7.83168320       0.00000000      -0.00015537      -0.00015653      -0.00006618       0.00000000       0.00000000       0.00000000 
C       1.23317029       7.83168320       0.00000000       0.00008303       0.00003691      -0.00006671       0.00000000       0.00000000       0.00000000 
C       3.69951087       7.83168320       0.00000000      -0.00015051      -0.00006177       0.00004333       0.00000000       0.00000000       0.00000000 
C       6.16585146       7.83168320       0.00000000      -0.00007470      -0.00024313      -0.00002643       0.00000000       0.00000000       0.00000000 
C       8.63219204       7.83168320       0.00000000       0.00051264       0.00018302       0.00001691       0.00000000       0.00000000       0.00000000 
C      11.09853262       7.83168320       0.00000000      -0.00021549      -0.00017122      -0.00002647       0.00000000       0.00000000       0.00000000 
C      -4.93268117       9.96759680       0.00000000       0.00068662       0.00012366       0.00021306       0.00000000       0.00000000       0.00000000 
C      -2.46634058       9.96759680       0.00000000      -0.00041927       0.00001504      -0.00006557       0.00000000       0.00000000       0.00000000 
C       0.00000000       9.96759680       0.00000000      -0.00043944       0.00000438       0.00004174       0.00000000       0.00000000       0.00000000 
C       2.46634058       9.96759680       0.00000000      -0.00020412      -0.00012651      -0.00006664       0.00000000       0.00000000       0.00000000 
C       4.93268117       9.96759680       0.00000000       0.00009206      -0.00003048       0.00021529       0.00000000       0.00000000       0.00000000 
C       7.39902175       9.96759680       0.00000000       0.00064294      -0.00075029      -0.00005404       0.00000000       0.00000000       0.00000000 
C       9.86536233       9.96759680       0.00000000      -0.00000399       0.00063401      -0.00005242       0.00000000       0.00000000       0.00000000 
C      -6.16585146      12.10351040       0.00000000      -0.00262764       0.00213164      -0.00438696       0.00000000       0.00000000       0.00000000 
C      -3.69951087      12.10351040       0.00000000      -0.00125443       0.00075447       0.00053310       0.00000000       0.00000000       0.00000000 
C      -1.23317029      12.10351040       0.00000000      -0.00012218       0.00026566      -0.00006677       0.00000000       0.00000000       0.00000000 
C       1.23317029      12.10351040       0.00000000      -0.00017170      -0.00004023      -0.00006706       0.00000000       0.00000000       0.00000000 
C       3.69951087      12.10351040       0.00000000      -0.00133239      -0.00081692       0.00053409       0.00000000       0.00000000       0.00000000 
C       6.16585146      12.10351040       0.00000000      -0.00272652      -0.00149305      -0.00440393       0.00000000       0.00000000       0.00000000 
C       8.63219204      12.10351040       0.00000000       0.00772771      -0.00017714       0.00316872       0.00000000       0.00000000       0.00000000 
C      -7.39902175      14.23942400       0.00000000       0.08424416      -0.02383583       0.05485647       0.00000000       0.00000000       0.00000000 
C      -4.93268117      14.23942400       0.00000000      -0.00099934       0.00266427      -0.00439365       0.00000000       0.00000000       0.00000000 
C      -2.46634058      14.23942400       0.00000000       0.00013003      -0.00044099       0.00021378       0.00000000       0.00000000       0.00000000 
C       0.00000000      14.23942400       0.00000000      -0.00027582      -0.00029709       0.00004282       0.00000000       0.00000000       0.00000000 
C       2.46634058      14.23942400       0.00000000      -0.00014160      -0.00011346       0.00021330       0.00000000       0.00000000       0.00000000 
C       4.93268117      14.23942400       0.00000000      -0.00050473      -0.00316670      -0.00439768       0.00000000       0.00000000       0.00000000 
C       7.39902175      14.23942400       0.00000000       0.08262447       0.02267460       0.05572128       0.00000000       0.00000000       0.00000000 
