...it's alive! Batch file starting...
 running on   36 total cores
 distrk:  each k-point on   36 cores,    1 groups
 distr:  one band on    6 cores,    6 groups
 using from now: INCAR     
 vasp.5.4.4.18Apr17-6-g9f103f2a35 (build May 31 2018 21:15:54) complex          
  
 POSCAR found type information on POSCAR  W  Se
 POSCAR found :  2 types and       3 ions
 scaLAPACK will be used
 WARNING: PSMAXN for non-local potential too small
 LDA part: xc-table for Pade appr. of Perdew
 POSCAR, INCAR and KPOINTS ok, starting setup
 FFT: planning ...
 WAVECAR not read
 entering main loop
       N       E                     dE             d eps       ncg     rms          rms(c)
DAV:   1     0.126238713071E+03    0.12624E+03   -0.78425E+03  4356   0.104E+03
DAV:   2    -0.106747950218E+02   -0.13691E+03   -0.12866E+03  6990   0.164E+02
DAV:   3    -0.224687571776E+02   -0.11794E+02   -0.11685E+02  5862   0.540E+01
DAV:   4    -0.226542102746E+02   -0.18545E+00   -0.18535E+00  6048   0.781E+00
DAV:   5    -0.226560046284E+02   -0.17944E-02   -0.17943E-02  6054   0.658E-01    0.531E+00
DAV:   6    -0.218601964968E+02    0.79581E+00   -0.49834E+00  6552   0.906E+00    0.196E+00
DAV:   7    -0.216889320033E+02    0.17126E+00   -0.84730E-01  6690   0.408E+00    0.132E+00
DAV:   8    -0.216310129880E+02    0.57919E-01   -0.16657E-01  5508   0.223E+00    0.223E-01
DAV:   9    -0.216282432874E+02    0.27697E-02   -0.94855E-03  5646   0.546E-01    0.881E-02
DAV:  10    -0.216264573451E+02    0.17859E-02   -0.14283E-03  5736   0.177E-01    0.475E-02
DAV:  11    -0.216257042748E+02    0.75307E-03   -0.24463E-04  6480   0.693E-02    0.302E-02
DAV:  12    -0.216245765482E+02    0.11277E-02   -0.60292E-04  5814   0.957E-02    0.266E-02
DAV:  13    -0.216236509196E+02    0.92563E-03   -0.61520E-04  4722   0.898E-02    0.196E-02
DAV:  14    -0.216234000565E+02    0.25086E-03   -0.68715E-05  6288   0.337E-02    0.160E-02
DAV:  15    -0.216243559455E+02   -0.95589E-03   -0.16040E-04  4968   0.530E-02    0.148E-02
DAV:  16    -0.216251021369E+02   -0.74619E-03   -0.11386E-04  5634   0.382E-02    0.778E-03
DAV:  17    -0.216252589620E+02   -0.15683E-03   -0.11144E-05  5658   0.160E-02    0.387E-03
DAV:  18    -0.216254225951E+02   -0.16363E-03   -0.20128E-05  4980   0.137E-02    0.239E-03
DAV:  19    -0.216254471716E+02   -0.24577E-04   -0.16727E-06  5760   0.509E-03    0.571E-04
DAV:  20    -0.216254502490E+02   -0.30773E-05   -0.26266E-07  5280   0.210E-03    0.447E-04
DAV:  21    -0.216254507455E+02   -0.49658E-06   -0.36220E-08  6372   0.812E-04    0.884E-05
DAV:  22    -0.216254510023E+02   -0.25675E-06   -0.10468E-08  4824   0.368E-04    0.388E-05
DAV:  23    -0.216254510476E+02   -0.45293E-07   -0.15190E-09  5652   0.142E-04    0.144E-05
DAV:  24    -0.216254510642E+02   -0.16643E-07   -0.18173E-10  5118   0.398E-05    0.624E-06
DAV:  25    -0.216254510671E+02   -0.29316E-08   -0.26265E-11  4422   0.166E-05
   1 F= -.21625451E+02 E0= -.21625451E+02  d E =-.216255E+02
 curvature:   0.00 expect dE= 0.000E+00 dE for cont linesearch  0.000E+00
 trial: gam= 0.00000 g(F)=  0.122E-01 g(S)=  0.000E+00 ort = 0.000E+00 (trialstep = 0.100E+01)
 search vector abs. value=  0.122E-01
 bond charge predicted
       N       E                     dE             d eps       ncg     rms          rms(c)
DAV:   1    -0.216311094031E+02   -0.56583E-02   -0.48074E-01  4458   0.321E+00    0.145E-01
DAV:   2    -0.216323370207E+02   -0.12276E-02   -0.20490E-02  5148   0.844E-01    0.441E-02
DAV:   3    -0.216322948235E+02    0.42197E-04   -0.45441E-04  5880   0.114E-01    0.275E-02
DAV:   4    -0.216322707266E+02    0.24097E-04   -0.62937E-05  6168   0.473E-02    0.112E-02
DAV:   5    -0.216322595458E+02    0.11181E-04   -0.12094E-05  5412   0.159E-02    0.334E-03
DAV:   6    -0.216322546096E+02    0.49362E-05   -0.18771E-06  5400   0.727E-03    0.925E-04
DAV:   7    -0.216322535169E+02    0.10927E-05   -0.19808E-07  5970   0.205E-03    0.730E-04
DAV:   8    -0.216322532355E+02    0.28138E-06   -0.20361E-07  4956   0.159E-03    0.449E-04
DAV:   9    -0.216322535328E+02   -0.29731E-06   -0.15970E-07  4872   0.142E-03    0.396E-04
DAV:  10    -0.216322540280E+02   -0.49517E-06   -0.32209E-07  4824   0.176E-03    0.334E-04
DAV:  11    -0.216322551178E+02   -0.10898E-05   -0.63279E-08  5682   0.918E-04    0.260E-04
DAV:  12    -0.216322570402E+02   -0.19224E-05   -0.20889E-07  5256   0.135E-03    0.307E-04
DAV:  13    -0.216322589525E+02   -0.19123E-05   -0.34054E-08  5118   0.850E-04    0.128E-04
DAV:  14    -0.216322610613E+02   -0.21088E-05   -0.74116E-08  4794   0.676E-04    0.727E-05
DAV:  15    -0.216322615388E+02   -0.47747E-06   -0.12950E-08  5562   0.329E-04    0.465E-05
DAV:  16    -0.216322616424E+02   -0.10367E-06   -0.15861E-09  5658   0.119E-04    0.102E-05
DAV:  17    -0.216322616918E+02   -0.49335E-07   -0.93383E-10  4698   0.636E-05    0.657E-06
DAV:  18    -0.216322616955E+02   -0.36862E-08   -0.17565E-11  5070   0.141E-05
   2 F= -.21632262E+02 E0= -.21632262E+02  d E =-.681063E-02
 trial-energy change:   -0.006811  1 .order   -0.006892   -0.012177   -0.001606
 step:   1.1605(harm=  1.1520)  dis= 0.01987  next Energy=   -21.632390 (dE=-0.694E-02)
 bond charge predicted
       N       E                     dE             d eps       ncg     rms          rms(c)
DAV:   1    -0.216323556283E+02   -0.93936E-04   -0.12393E-02  4386   0.516E-01    0.232E-02
DAV:   2    -0.216323857173E+02   -0.30089E-04   -0.53142E-04  5280   0.136E-01    0.716E-03
DAV:   3    -0.216323833134E+02    0.24039E-05   -0.12283E-05  5700   0.187E-02    0.444E-03
DAV:   4    -0.216323815304E+02    0.17829E-05   -0.16655E-06  6066   0.769E-03    0.182E-03
DAV:   5    -0.216323804119E+02    0.11185E-05   -0.31462E-07  5454   0.258E-03    0.542E-04
DAV:   6    -0.216323800307E+02    0.38120E-06   -0.50225E-08  4878   0.117E-03    0.146E-04
DAV:   7    -0.216323799139E+02    0.11680E-06   -0.49303E-09  5796   0.327E-04    0.115E-04
DAV:   8    -0.216323797873E+02    0.12661E-06   -0.52824E-09  4836   0.247E-04    0.700E-05
DAV:   9    -0.216323797142E+02    0.73131E-07   -0.47470E-09  4956   0.232E-04    0.621E-05
DAV:  10    -0.216323797596E+02   -0.45471E-07   -0.81954E-09  4512   0.272E-04    0.529E-05
DAV:  11    -0.216323798708E+02   -0.11113E-06   -0.17933E-09  5118   0.135E-04    0.407E-05
DAV:  12    -0.216323801148E+02   -0.24403E-06   -0.35871E-09  5064   0.190E-04    0.486E-05
DAV:  13    -0.216323802476E+02   -0.13277E-06   -0.96015E-10  5664   0.130E-04    0.205E-05
DAV:  14    -0.216323803726E+02   -0.12501E-06   -0.12616E-09  4956   0.866E-05    0.113E-05
DAV:  15    -0.216323803991E+02   -0.26549E-07   -0.24689E-10  4890   0.444E-05    0.793E-06
DAV:  16    -0.216323804042E+02   -0.51190E-08   -0.20525E-11  4440   0.175E-05
   3 F= -.21632380E+02 E0= -.21632380E+02  d E =-.692934E-02
 curvature:  -0.57 expect dE=-0.436E-05 dE for cont linesearch -0.979E-07
 ZBRENT: interpolating
 opt :   1.1561  next Energy=   -21.632381 (dE=-0.693E-02)
 bond charge predicted
       N       E                     dE             d eps       ncg     rms          rms(c)
DAV:   1    -0.216323804935E+02   -0.94372E-07   -0.94301E-06  4866   0.142E-02    0.641E-04
DAV:   2    -0.216323805754E+02   -0.81882E-07   -0.40485E-07  5040   0.377E-03    0.198E-04
DAV:   3    -0.216323806161E+02   -0.40749E-07   -0.93770E-09  5934   0.517E-04    0.122E-04
DAV:   4    -0.216323806538E+02   -0.37692E-07   -0.12009E-09  3804   0.213E-04    0.506E-05
DAV:   5    -0.216323806795E+02   -0.25717E-07   -0.28775E-10  3456   0.934E-05    0.146E-05
DAV:   6    -0.216323806827E+02   -0.31653E-08   -0.37515E-11  3444   0.442E-05
   4 F= -.21632381E+02 E0= -.21632381E+02  d E =-.692962E-02
 curvature:  -0.59 expect dE=-0.436E-05 dE for cont linesearch -0.412E-12
 trial: gam= 0.00061 g(F)=  0.736E-05 g(S)=  0.000E+00 ort =-0.921E-07 (trialstep = 0.103E+01)
 search vector abs. value=  0.737E-05
 bond charge predicted
       N       E                     dE             d eps       ncg     rms          rms(c)
DAV:   1    -0.216323826314E+02   -0.19518E-05   -0.76111E-04  4356   0.125E-01    0.312E-03
DAV:   2    -0.216323831946E+02   -0.56327E-06   -0.77417E-06  5652   0.169E-02    0.204E-03
DAV:   3    -0.216323830546E+02    0.14010E-06   -0.13565E-07  4920   0.201E-03    0.903E-04
DAV:   4    -0.216323830191E+02    0.35497E-07   -0.60689E-08  5256   0.124E-03    0.146E-04
DAV:   5    -0.216323830169E+02    0.21495E-08   -0.27503E-09  5064   0.285E-04
   5 F= -.21632383E+02 E0= -.21632383E+02  d E =-.233421E-05
 trial-energy change:   -0.000002  1 .order   -0.000002   -0.000008    0.000003
 step:   0.7457(harm=  0.7521)  dis= 0.00018  next Energy=   -21.632383 (dE=-0.273E-05)
 bond charge predicted
       N       E                     dE             d eps       ncg     rms          rms(c)
DAV:   1    -0.216323833623E+02   -0.34328E-06   -0.58312E-05  4356   0.347E-02    0.863E-04
DAV:   2    -0.216323834112E+02   -0.48873E-07   -0.58659E-07  5634   0.465E-03    0.566E-04
DAV:   3    -0.216323834091E+02    0.21072E-08   -0.10566E-08  5274   0.559E-04    0.247E-04
DAV:   4    -0.216323834120E+02   -0.29457E-08   -0.45780E-09  5274   0.339E-04    0.402E-05
DAV:   5    -0.216323834125E+02   -0.42701E-09   -0.18569E-10  3708   0.773E-05
   6 F= -.21632383E+02 E0= -.21632383E+02  d E =-.272977E-05
 curvature:  -0.38 expect dE=-0.275E-09 dE for cont linesearch -0.270E-09
 ZBRENT: interpolating
 opt :   0.7531  next Energy=   -21.632383 (dE=-0.273E-05)
 bond charge predicted
       N       E                     dE             d eps       ncg     rms          rms(c)
DAV:   1    -0.216323834127E+02   -0.63267E-09   -0.39059E-08  5028   0.898E-04    0.222E-05
DAV:   2    -0.216323834126E+02    0.89017E-10   -0.32510E-10  3810   0.117E-04    0.142E-05
DAV:   3    -0.216323834124E+02    0.21782E-09   -0.14488E-11  3474   0.348E-05    0.582E-06
DAV:   4    -0.216323834123E+02    0.70372E-10    0.34611E-12  3528   0.154E-05    0.245E-06
DAV:   5    -0.216323834123E+02   -0.36152E-10    0.94772E-12  3642   0.628E-06
   7 F= -.21632383E+02 E0= -.21632383E+02  d E =-.272964E-05
 curvature:  -0.37 expect dE=-0.397E-11 dE for cont linesearch -0.266E-12
 ZBRENT: interpolating
 opt :   0.7529  next Energy=   -21.632383 (dE=-0.273E-05)
 bond charge predicted
       N       E                     dE             d eps       ncg     rms          rms(c)
DAV:   1    -0.216323834124E+02   -0.14609E-09   -0.24561E-11  3486   0.277E-05    0.230E-06
DAV:   2    -0.216323834124E+02    0.73896E-11    0.82359E-12  3738   0.839E-06    0.227E-06
DAV:   3    -0.216323834124E+02    0.96634E-11    0.98751E-12  3384   0.252E-06    0.225E-06
DAV:   4    -0.216323834125E+02   -0.75261E-10    0.10755E-11  3378   0.160E-06    0.224E-06
DAV:   5    -0.216323834125E+02   -0.15916E-10    0.10561E-11  3522   0.108E-06
   8 F= -.21632383E+02 E0= -.21632383E+02  d E =-.272982E-05
 curvature:  -0.36 expect dE=-0.360E-11 dE for cont linesearch -0.249E-14
 ZBRENT: interpolating
 opt :   0.7529  next Energy=   -21.632383 (dE=-0.273E-05)
 bond charge predicted
       N       E                     dE             d eps       ncg     rms          rms(c)
DAV:   1    -0.216323834125E+02    0.22169E-10    0.92550E-12  3372   0.312E-06    0.222E-06
DAV:   2    -0.216323834125E+02    0.14325E-10    0.10303E-11  3942   0.109E-06    0.221E-06
DAV:   3    -0.216323834125E+02    0.77307E-11    0.10049E-11  3552   0.525E-07    0.220E-06
DAV:   4    -0.216323834124E+02    0.88676E-11    0.10213E-11  3486   0.304E-07    0.220E-06
DAV:   5    -0.216323834124E+02    0.37517E-11    0.10606E-11  3396   0.275E-07
   9 F= -.21632383E+02 E0= -.21632383E+02  d E =-.272975E-05
 curvature:  -0.33 expect dE=-0.324E-11 dE for cont linesearch -0.746E-15
 ZBRENT: interpolating
 opt :   0.7529  next Energy=   -21.632383 (dE=-0.273E-05)
 bond charge predicted
       N       E                     dE             d eps       ncg     rms          rms(c)
DAV:   1    -0.216323834124E+02    0.41950E-10    0.10042E-11  3450   0.104E-06    0.220E-06
DAV:   2    -0.216323834124E+02   -0.34106E-11    0.94010E-12  3510   0.327E-07    0.220E-06
DAV:   3    -0.216323834124E+02    0.95497E-11    0.98414E-12  3258   0.122E-07    0.220E-06
DAV:   4    -0.216323834124E+02   -0.14779E-11    0.10184E-11  2298   0.727E-08    0.220E-06
DAV:   5    -0.216323834125E+02   -0.50818E-10    0.10442E-11  2238   0.569E-08
  10 F= -.21632383E+02 E0= -.21632383E+02  d E =-.272976E-05
 curvature:  -0.21 expect dE=-0.206E-11 dE for cont linesearch -0.612E-16
 ZBRENT: interpolating
 opt :   0.7529  next Energy=   -21.632383 (dE=-0.273E-05)
 bond charge predicted
       N       E                     dE             d eps       ncg     rms          rms(c)
DAV:   1    -0.216323834123E+02    0.64460E-10    0.98285E-12  3462   0.464E-07    0.220E-06
DAV:   2    -0.216323834123E+02   -0.18190E-11    0.97936E-12  2682   0.142E-07    0.220E-06
DAV:   3    -0.216323834123E+02    0.43201E-11    0.10115E-11  3144   0.474E-08    0.220E-06
DAV:   4    -0.216323834123E+02   -0.13188E-10    0.92094E-12  3150   0.345E-08    0.220E-06
DAV:   5    -0.216323834123E+02    0.79581E-11    0.10166E-11  3264   0.226E-08
  11 F= -.21632383E+02 E0= -.21632383E+02  d E =-.272964E-05
 curvature:  -0.32 expect dE=-0.312E-11 dE for cont linesearch -0.103E-16
 ZBRENT: interpolating
 opt :   0.7529  next Energy=   -21.632383 (dE=-0.273E-05)
 bond charge predicted
       N       E                     dE             d eps       ncg     rms          rms(c)
DAV:   1    -0.216323834124E+02   -0.73214E-10    0.96942E-12  3360   0.200E-07    0.220E-06
DAV:   2    -0.216323834124E+02    0.14666E-10    0.99465E-12  2622   0.633E-08    0.220E-06
DAV:   3    -0.216323834124E+02    0.89813E-11    0.94714E-12  2178   0.185E-08    0.220E-06
DAV:   4    -0.216323834124E+02    0.88676E-11    0.10362E-11  2178   0.121E-08    0.220E-06
DAV:   5    -0.216323834124E+02   -0.12051E-10    0.94156E-12  2178   0.817E-09
  12 F= -.21632383E+02 E0= -.21632383E+02  d E =-.272970E-05
 curvature:  -0.40 expect dE=-0.395E-11 dE for cont linesearch -0.898E-19
 trial: gam=-0.00003 g(F)=  0.979E-11 g(S)=  0.000E+00 ort =-0.128E-11 (trialstep = 0.976E+00)
 search vector abs. value=  0.110E-09
 bond charge predicted
       N       E                     dE             d eps       ncg     rms          rms(c)
DAV:   1    -0.216323834124E+02   -0.51045E-10   -0.34075E-10  2178   0.889E-05    0.513E-06
DAV:   2    -0.216323834128E+02   -0.36880E-09   -0.19774E-11  2178   0.312E-05    0.248E-06
DAV:   3    -0.216323834131E+02   -0.28410E-09    0.74772E-12  2178   0.104E-05    0.235E-06
DAV:   4    -0.216323834132E+02   -0.14484E-09    0.93971E-12  2178   0.421E-06    0.226E-06
DAV:   5    -0.216323834135E+02   -0.24534E-09    0.96627E-12  2370   0.188E-06
  13 F= -.21632383E+02 E0= -.21632383E+02  d E =-.108207E-08
 trial-energy change:   -0.000000  1 .order   -0.000000   -0.000000   -0.000000
 step:   1.1863(harm=  1.1863)  dis= 0.00000  next Energy=   -21.632383 (dE=-0.581E-11)
 bond charge predicted
       N       E                     dE             d eps       ncg     rms          rms(c)
DAV:   1    -0.216323834135E+02   -0.23147E-09   -0.69482E-12  2178   0.193E-05    0.242E-06
DAV:   2    -0.216323834136E+02   -0.92882E-10    0.79313E-12  2250   0.674E-06    0.221E-06
DAV:   3    -0.216323834136E+02   -0.57298E-10    0.96885E-12  2202   0.224E-06    0.221E-06
DAV:   4    -0.216323834137E+02   -0.59913E-10    0.96477E-12  2346   0.912E-07    0.220E-06
DAV:   5    -0.216323834137E+02   -0.38881E-10    0.99098E-12  2646   0.410E-07
  14 F= -.21632383E+02 E0= -.21632383E+02  d E =-.131718E-08
 curvature:  -6.65 expect dE=-0.350E-15 dE for cont linesearch -0.114E-17
 ZBRENT: extrapolating
 opt :   1.1869  next Energy=   -21.632383 (dE=-0.132E-08)
 bond charge predicted
       N       E                     dE             d eps       ncg     rms          rms(c)
DAV:   1    -0.216323834137E+02   -0.29900E-10    0.10309E-11  2178   0.188E-07    0.220E-06
DAV:   2    -0.216323834137E+02   -0.22851E-10    0.10140E-11  2178   0.902E-08    0.220E-06
DAV:   3    -0.216323834137E+02    0.12960E-10    0.97372E-12  2238   0.647E-08    0.220E-06
DAV:   4    -0.216323834137E+02   -0.15120E-10    0.10686E-11  2178   0.446E-08    0.220E-06
DAV:   5    -0.216323834137E+02    0.47748E-11    0.10262E-11  2466   0.495E-08
  15 F= -.21632383E+02 E0= -.21632383E+02  d E =-.132843E-08
 curvature:  -6.67 expect dE=-0.130E-15 dE for cont linesearch -0.386E-18
 ZBRENT: bracketing found
 ZBRENT: interpolating
 opt :   1.1867  next Energy=   -21.632383 (dE=-0.133E-08)
 bond charge predicted
       N       E                     dE             d eps       ncg     rms          rms(c)
DAV:   1    -0.216323834137E+02    0.31832E-10    0.10276E-11  2178   0.348E-08    0.220E-06
DAV:   2    -0.216323834137E+02   -0.26034E-10    0.97118E-12  2274   0.163E-08    0.220E-06
DAV:   3    -0.216323834137E+02    0.10914E-10    0.96309E-12  2484   0.118E-08    0.220E-06
DAV:   4    -0.216323834137E+02    0.45475E-11    0.98922E-12  3198   0.244E-08    0.220E-06
DAV:   5    -0.216323834137E+02    0.39790E-11    0.10014E-11  3126   0.137E-08
  16 F= -.21632383E+02 E0= -.21632383E+02  d E =-.130797E-08
 curvature:  -4.22 expect dE=-0.805E-16 dE for cont linesearch -0.295E-18
 ZBRENT: interpolating
 opt :   1.1868  next Energy=   -21.632383 (dE=-0.133E-08)
 bond charge predicted
       N       E                     dE             d eps       ncg     rms          rms(c)
DAV:   1    -0.216323834138E+02   -0.44679E-10    0.98606E-12  2322   0.130E-08    0.220E-06
DAV:   2    -0.216323834138E+02    0.28422E-11    0.10070E-11  2178   0.520E-09    0.220E-06
DAV:   3    -0.216323834138E+02    0.12506E-11    0.96865E-12  2178   0.334E-09    0.220E-06
DAV:   4    -0.216323834137E+02    0.59117E-11    0.10045E-11  2178   0.522E-09    0.220E-06
DAV:   5    -0.216323834137E+02   -0.14779E-11    0.98804E-12  2178   0.371E-09
  17 F= -.21632383E+02 E0= -.21632383E+02  d E =-.134810E-08
 curvature:  -1.67 expect dE=-0.305E-16 dE for cont linesearch -0.162E-19
 ZBRENT: interpolating
 opt :   1.1868  next Energy=   -21.632383 (dE=-0.135E-08)
 bond charge predicted
       N       E                     dE             d eps       ncg     rms          rms(c)
DAV:   1    -0.216323834138E+02   -0.19895E-10    0.10012E-11  2178   0.438E-09    0.220E-06
DAV:   2    -0.216323834138E+02    0.11369E-10    0.99063E-12  2178   0.168E-09    0.220E-06
DAV:   3    -0.216323834138E+02   -0.22055E-10    0.98228E-12  2178   0.199E-09    0.220E-06
DAV:   4    -0.216323834138E+02    0.16826E-10    0.96169E-12  2178   0.138E-09    0.220E-06
DAV:   5    -0.216323834138E+02   -0.28422E-11    0.96892E-12  2178   0.143E-09
  18 F= -.21632383E+02 E0= -.21632383E+02  d E =-.136322E-08
 curvature:  -1.43 expect dE=-0.262E-16 dE for cont linesearch -0.172E-19
 ZBRENT: bisectioning
 opt :   1.1868  next Energy=   -21.632383 (dE=-0.136E-08)
 bond charge predicted
       N       E                     dE             d eps       ncg     rms          rms(c)
DAV:   1    -0.216323834137E+02    0.24556E-10    0.10039E-11  2178   0.326E-09    0.220E-06
DAV:   2    -0.216323834137E+02   -0.54570E-11    0.10081E-11  2178   0.117E-09    0.220E-06
DAV:   3    -0.216323834138E+02   -0.18304E-10    0.93581E-12  2178   0.449E-10    0.220E-06
DAV:   4    -0.216323834137E+02    0.45134E-10    0.93971E-12  2178   0.566E-10    0.220E-06
DAV:   5    -0.216323834137E+02   -0.21032E-10    0.96725E-12  2178   0.463E-10
  19 F= -.21632383E+02 E0= -.21632383E+02  d E =-.133548E-08
 curvature:  -3.32 expect dE=-0.612E-16 dE for cont linesearch -0.209E-19
 ZBRENT: bisectioning
 opt :   1.1868  next Energy=   -21.632383 (dE=-0.134E-08)
 bond charge predicted
       N       E                     dE             d eps       ncg     rms          rms(c)
DAV:   1    -0.216323834137E+02   -0.15007E-10    0.89599E-12  2178   0.166E-09    0.220E-06
DAV:   2    -0.216323834137E+02    0.72760E-11    0.10092E-11  2178   0.591E-10    0.220E-06
DAV:   3    -0.216323834138E+02   -0.29559E-10    0.98069E-12  2178   0.231E-10    0.220E-06
DAV:   4    -0.216323834137E+02    0.21032E-10    0.99056E-12  2178   0.340E-10    0.220E-06
DAV:   5    -0.216323834137E+02    0.14666E-10    0.10036E-11  2178   0.142E-10
  20 F= -.21632383E+02 E0= -.21632383E+02  d E =-.131604E-08
 curvature:  -1.95 expect dE=-0.358E-16 dE for cont linesearch -0.827E-20
 ZBRENT: bisectioning
 opt :   1.1868  next Energy=   -21.632383 (dE=-0.132E-08)
 bond charge predicted
       N       E                     dE             d eps       ncg     rms          rms(c)
DAV:   1    -0.216323834137E+02    0.22396E-10    0.10405E-11  2178   0.830E-10    0.220E-06
DAV:   2    -0.216323834137E+02   -0.44338E-11    0.10145E-11  2178   0.301E-10    0.220E-06
DAV:   3    -0.216323834137E+02   -0.34788E-10    0.10009E-11  2178   0.158E-10    0.220E-06
DAV:   4    -0.216323834137E+02    0.31946E-10    0.10119E-11  2178   0.915E-11    0.220E-06
DAV:   5    -0.216323834137E+02   -0.18986E-10    0.10577E-11  2178   0.124E-10
  21 F= -.21632383E+02 E0= -.21632383E+02  d E =-.133457E-08
 curvature:  -1.25 expect dE=-0.230E-16 dE for cont linesearch -0.334E-20
 ZBRENT: bisectioning
 opt :   1.1868  next Energy=   -21.632383 (dE=-0.133E-08)
 bond charge predicted
       N       E                     dE             d eps       ncg     rms          rms(c)
DAV:   1    -0.216323834137E+02   -0.12506E-11    0.10665E-11  2178   0.388E-10    0.220E-06
DAV:   2    -0.216323834137E+02   -0.10573E-10    0.10095E-11  2178   0.143E-10    0.220E-06
DAV:   3    -0.216323834137E+02   -0.12847E-10    0.10704E-11  2178   0.181E-10    0.220E-06
DAV:   4    -0.216323834138E+02   -0.15689E-10    0.10108E-11  2178   0.167E-10    0.220E-06
DAV:   5    -0.216323834137E+02    0.34674E-10    0.10414E-11  2178   0.181E-10
  22 F= -.21632383E+02 E0= -.21632383E+02  d E =-.132127E-08
 curvature:  -0.78 expect dE=-0.141E-16 dE for cont linesearch -0.205E-20
 ZBRENT: bisectioning
 opt :   1.1868  next Energy=   -21.632383 (dE=-0.132E-08)
 bond charge predicted
       N       E                     dE             d eps       ncg     rms          rms(c)
DAV:   1    -0.216323834137E+02    0.64688E-10    0.10261E-11  2178   0.195E-10    0.220E-06
DAV:   2    -0.216323834137E+02    0.11596E-10    0.10090E-11  2178   0.794E-11    0.220E-06
DAV:   3    -0.216323834137E+02    0.19327E-11    0.10325E-11  2178   0.811E-11    0.220E-06
DAV:   4    -0.216323834137E+02    0.21373E-10    0.10383E-11  2178   0.138E-10    0.220E-06
DAV:   5    -0.216323834137E+02    0.65938E-11    0.10176E-11  2178   0.700E-11
  23 F= -.21632383E+02 E0= -.21632383E+02  d E =-.124976E-08
 curvature:  -0.42 expect dE=-0.758E-17 dE for cont linesearch -0.949E-21
 ZBRENT: bisectioning
 opt :   1.1869  next Energy=   -21.632383 (dE=-0.125E-08)
 bond charge predicted
       N       E                     dE             d eps       ncg     rms          rms(c)
DAV:   1    -0.216323834138E+02   -0.10652E-09    0.98961E-12  2178   0.145E-10    0.220E-06
DAV:   2    -0.216323834138E+02    0.29559E-11    0.10756E-11  2178   0.168E-10    0.220E-06
DAV:   3    -0.216323834137E+02    0.19782E-10    0.10037E-11  2178   0.980E-11    0.220E-06
DAV:   4    -0.216323834138E+02   -0.44565E-10    0.10202E-11  2178   0.586E-11    0.220E-06
DAV:   5    -0.216323834138E+02    0.30241E-10    0.10131E-11  2178   0.162E-10
  24 F= -.21632383E+02 E0= -.21632383E+02  d E =-.135446E-08
 curvature:  -0.22 expect dE=-0.401E-17 dE for cont linesearch -0.410E-21
 ZBRENT: bisectioning
 opt :   1.1869  next Energy=   -21.632383 (dE=-0.135E-08)
 bond charge predicted
       N       E                     dE             d eps       ncg     rms          rms(c)
DAV:   1    -0.216323834138E+02    0.33992E-10    0.10070E-11  2178   0.156E-10    0.220E-06
DAV:   2    -0.216323834137E+02    0.23419E-10    0.10309E-11  2178   0.431E-11    0.220E-06
DAV:   3    -0.216323834137E+02    0.12278E-10    0.10064E-11  2178   0.724E-11    0.220E-06
DAV:   4    -0.216323834138E+02   -0.34220E-10    0.10074E-11  2178   0.433E-11    0.220E-06
DAV:   5    -0.216323834137E+02    0.26944E-10    0.10355E-11  2178   0.374E-11
  25 F= -.21632383E+02 E0= -.21632383E+02  d E =-.132229E-08
 curvature:  -0.12 expect dE=-0.223E-17 dE for cont linesearch -0.284E-21
 ZBRENT: bisectioning
 opt :   1.1869  next Energy=   -21.632383 (dE=-0.132E-08)
 bond charge predicted
       N       E                     dE             d eps       ncg     rms          rms(c)
DAV:   1    -0.216323834137E+02    0.64347E-10    0.10077E-11  2178   0.414E-11    0.220E-06
DAV:   2    -0.216323834137E+02   -0.73896E-11    0.10119E-11  2178   0.482E-11    0.220E-06
DAV:   3    -0.216323834137E+02    0.23874E-11    0.99751E-12  2178   0.285E-11    0.220E-06
DAV:   4    -0.216323834137E+02   -0.17053E-11    0.98348E-12  2178   0.579E-11    0.220E-06
DAV:   5    -0.216323834137E+02   -0.21259E-10    0.10131E-11  2178   0.780E-11
  26 F= -.21632383E+02 E0= -.21632383E+02  d E =-.131286E-08
 curvature:  -0.06 expect dE=-0.105E-17 dE for cont linesearch -0.122E-21
 ZBRENT: bisectioning
 opt :   1.1869  next Energy=   -21.632383 (dE=-0.131E-08)
 bond charge predicted
       N       E                     dE             d eps       ncg     rms          rms(c)
DAV:   1    -0.216323834137E+02   -0.19213E-10    0.97267E-12  2178   0.138E-10    0.220E-06
DAV:   2    -0.216323834137E+02    0.23533E-10    0.99825E-12  2178   0.117E-10    0.220E-06
DAV:   3    -0.216323834137E+02   -0.38654E-11    0.10038E-11  2178   0.200E-10    0.220E-06
DAV:   4    -0.216323834137E+02   -0.10800E-10    0.10253E-11  2178   0.812E-11    0.220E-06
DAV:   5    -0.216323834137E+02   -0.56843E-11    0.10048E-11  2178   0.831E-11
  27 F= -.21632383E+02 E0= -.21632383E+02  d E =-.130763E-08
 curvature:  -0.03 expect dE=-0.533E-18 dE for cont linesearch -0.470E-22
 ZBRENT: bisectioning
 opt :   1.1869  next Energy=   -21.632383 (dE=-0.131E-08)
 bond charge predicted
       N       E                     dE             d eps       ncg     rms          rms(c)
DAV:   1    -0.216323834137E+02    0.13188E-10    0.96005E-12  2178   0.644E-11    0.220E-06
DAV:   2    -0.216323834137E+02    0.00000E+00    0.96870E-12  2178   0.774E-11    0.220E-06
DAV:   3    -0.216323834137E+02   -0.14325E-10    0.97477E-12  2178   0.538E-11    0.220E-06
DAV:   4    -0.216323834137E+02    0.23874E-11    0.10261E-11  2178   0.413E-11    0.220E-06
DAV:   5    -0.216323834137E+02   -0.12506E-10    0.96867E-12  2178   0.121E-10
  28 F= -.21632383E+02 E0= -.21632383E+02  d E =-.131320E-08
 curvature:  -0.02 expect dE=-0.293E-18 dE for cont linesearch -0.189E-22
 ZBRENT: bisectioning
 opt :   1.1869  next Energy=   -21.632383 (dE=-0.131E-08)
 bond charge predicted
       N       E                     dE             d eps       ncg     rms          rms(c)
DAV:   1    -0.216323834137E+02   -0.21373E-10    0.10049E-11  2178   0.135E-10    0.220E-06
DAV:   2    -0.216323834137E+02    0.00000E+00    0.10232E-11  2178   0.678E-11    0.220E-06
DAV:   3    -0.216323834137E+02    0.56843E-11    0.10199E-11  2178   0.562E-11    0.220E-06
DAV:   4    -0.216323834137E+02   -0.32060E-10    0.99155E-12  2178   0.518E-11    0.220E-06
DAV:   5    -0.216323834137E+02    0.36835E-10    0.10139E-11  2178   0.102E-10
  29 F= -.21632383E+02 E0= -.21632383E+02  d E =-.131161E-08
 curvature:  -0.01 expect dE=-0.168E-18 dE for cont linesearch -0.159E-22
 ZBRENT:  accuracy reached
 opt :   0.0000  next Energy=     0.000000 (dE= 0.216E+02)
 bond charge predicted
       N       E                     dE             d eps       ncg     rms          rms(c)
DAV:   1    -0.216323834137E+02    0.76056E-10   -0.50955E-10  2178   0.108E-04    0.606E-06
DAV:   2    -0.216323834132E+02    0.42587E-09   -0.34526E-11  2178   0.379E-05    0.261E-06
DAV:   3    -0.216323834129E+02    0.32173E-09    0.50243E-12  2178   0.126E-05    0.241E-06
DAV:   4    -0.216323834127E+02    0.24329E-09    0.95424E-12  2214   0.513E-06    0.229E-06
DAV:   5    -0.216323834124E+02    0.24340E-09    0.10791E-11  2928   0.229E-06
  30 F= -.21632383E+02 E0= -.21632383E+02  d E =-.380851E-10
 curvature:   0.00 expect dE= 0.398-299 dE for cont linesearch  0.354-300
 ZBRENT:  can not reach accuracy
 opt :   0.0000  next Energy=     0.000000 (dE= 0.216E+02)
 bond charge predicted
       N       E                     dE             d eps       ncg     rms          rms(c)
DAV:   1    -0.216323834124E+02    0.24284E-09    0.96329E-12  2178   0.925E-07    0.220E-06
DAV:   2    -0.216323834124E+02    0.28990E-10    0.10033E-11  2214   0.407E-07    0.220E-06
DAV:   3    -0.216323834124E+02   -0.21714E-10    0.10338E-11  3030   0.251E-07    0.220E-06
DAV:   4    -0.216323834124E+02   -0.12051E-10    0.10209E-11  2178   0.130E-07    0.220E-06
DAV:   5    -0.216323834124E+02    0.14325E-10    0.10270E-11  2754   0.733E-08
  31 F= -.21632383E+02 E0= -.21632383E+02  d E =-.291038E-10
 curvature:   0.00 expect dE= 0.780-308 dE for cont linesearch  0.695-309
 ZBRENT: fatal error in bracketing
     please rerun with smaller EDIFF, or copy CONTCAR
     to POSCAR and continue
Bstch file complete.
