   4   4   0   0
  0.2619380E+02  0.2459512E-09  0.2459512E-09  0.2000000E-08  0.5000000E-15
  1.000000000000000E-004
  CAR 
 bilayer_graphene_AA                     
     11.74328975    -22.34991591 6001     -1.22348725      1.00000000
    -22.350  0.0000E+00  0.0000E+00
    -22.344  0.0000E+00  0.0000E+00
    -22.339  0.0000E+00  0.0000E+00
    -22.333  0.0000E+00  0.0000E+00
    -22.327  0.0000E+00  0.0000E+00
    -22.322  0.0000E+00  0.0000E+00
    -22.316  0.0000E+00  0.0000E+00
    -22.310  0.0000E+00  0.0000E+00
    -22.304  0.0000E+00  0.0000E+00
    -22.299  0.0000E+00  0.0000E+00
    -22.293  0.0000E+00  0.0000E+00
    -22.287  0.0000E+00  0.0000E+00
    -22.282  0.0000E+00  0.0000E+00
    -22.276  0.0000E+00  0.0000E+00
    -22.270  0.0000E+00  0.0000E+00
    -22.265  0.0000E+00  0.0000E+00
    -22.259  0.0000E+00  0.0000E+00
    -22.253  0.0000E+00  0.0000E+00
    -22.248  0.0000E+00  0.0000E+00
    -22.242  0.0000E+00  0.0000E+00
    -22.236  0.0000E+00  0.0000E+00
    -22.231  0.0000E+00  0.0000E+00
    -22.225  0.0000E+00  0.0000E+00
    -22.219  0.0000E+00  0.0000E+00
    -22.214  0.0000E+00  0.0000E+00
    -22.208  0.0000E+00  0.0000E+00
    -22.202  0.0000E+00  0.0000E+00
    -22.196  0.0000E+00  0.0000E+00
    -22.191  0.0000E+00  0.0000E+00
    -22.185  0.0000E+00  0.0000E+00
    -22.179  0.0000E+00  0.0000E+00
    -22.174  0.0000E+00  0.0000E+00
    -22.168  0.0000E+00  0.0000E+00
    -22.162  0.0000E+00  0.0000E+00
    -22.157  0.0000E+00  0.0000E+00
    -22.151  0.0000E+00  0.0000E+00
    -22.145  0.0000E+00  0.0000E+00
    -22.140  0.0000E+00  0.0000E+00
    -22.134  0.0000E+00  0.0000E+00
    -22.128  0.0000E+00  0.0000E+00
    -22.123  0.0000E+00  0.0000E+00
    -22.117  0.0000E+00  0.0000E+00
    -22.111  0.0000E+00  0.0000E+00
    -22.106  0.0000E+00  0.0000E+00
    -22.100  0.0000E+00  0.0000E+00
    -22.094  0.0000E+00  0.0000E+00
    -22.089  0.0000E+00  0.0000E+00
    -22.083  0.0000E+00  0.0000E+00
    -22.077  0.0000E+00  0.0000E+00
    -22.071  0.0000E+00  0.0000E+00
    -22.066  0.0000E+00  0.0000E+00
    -22.060  0.0000E+00  0.0000E+00
    -22.054  0.0000E+00  0.0000E+00
    -22.049  0.0000E+00  0.0000E+00
    -22.043  0.0000E+00  0.0000E+00
    -22.037  0.0000E+00  0.0000E+00
    -22.032  0.0000E+00  0.0000E+00
    -22.026  0.0000E+00  0.0000E+00
    -22.020  0.0000E+00  0.0000E+00
    -22.015  0.0000E+00  0.0000E+00
    -22.009  0.0000E+00  0.0000E+00
    -22.003  0.0000E+00  0.0000E+00
    -21.998  0.0000E+00  0.0000E+00
    -21.992  0.0000E+00  0.0000E+00
    -21.986  0.0000E+00  0.0000E+00
    -21.981  0.0000E+00  0.0000E+00
    -21.975  0.0000E+00  0.0000E+00
    -21.969  0.0000E+00  0.0000E+00
    -21.964  0.0000E+00  0.0000E+00
    -21.958  0.0000E+00  0.0000E+00
    -21.952  0.0000E+00  0.0000E+00
    -21.946  0.0000E+00  0.0000E+00
    -21.941  0.0000E+00  0.0000E+00
    -21.935  0.0000E+00  0.0000E+00
    -21.929  0.0000E+00  0.0000E+00
    -21.924  0.0000E+00  0.0000E+00
    -21.918  0.0000E+00  0.0000E+00
    -21.912  0.0000E+00  0.0000E+00
    -21.907  0.0000E+00  0.0000E+00
    -21.901  0.0000E+00  0.0000E+00
    -21.895  0.0000E+00  0.0000E+00
    -21.890  0.0000E+00  0.0000E+00
    -21.884  0.0000E+00  0.0000E+00
    -21.878  0.0000E+00  0.0000E+00
    -21.873  0.0000E+00  0.0000E+00
    -21.867  0.0000E+00  0.0000E+00
    -21.861  0.0000E+00  0.0000E+00
    -21.856  0.0000E+00  0.0000E+00
    -21.850  0.0000E+00  0.0000E+00
    -21.844  0.0000E+00  0.0000E+00
    -21.839  0.0000E+00  0.0000E+00
    -21.833  0.0000E+00  0.0000E+00
    -21.827  0.0000E+00  0.0000E+00
    -21.821  0.0000E+00  0.0000E+00
    -21.816  0.0000E+00  0.0000E+00
    -21.810  0.0000E+00  0.0000E+00
    -21.804  0.0000E+00  0.0000E+00
    -21.799  0.0000E+00  0.0000E+00
    -21.793  0.0000E+00  0.0000E+00
    -21.787  0.0000E+00  0.0000E+00
    -21.782  0.0000E+00  0.0000E+00
    -21.776  0.0000E+00  0.0000E+00
    -21.770  0.0000E+00  0.0000E+00
    -21.765  0.0000E+00  0.0000E+00
    -21.759  0.0000E+00  0.0000E+00
    -21.753  0.0000E+00  0.0000E+00
    -21.748  0.0000E+00  0.0000E+00
    -21.742  0.0000E+00  0.0000E+00
    -21.736  0.0000E+00  0.0000E+00
    -21.731  0.0000E+00  0.0000E+00
    -21.725  0.0000E+00  0.0000E+00
    -21.719  0.0000E+00  0.0000E+00
    -21.714  0.0000E+00  0.0000E+00
    -21.708  0.0000E+00  0.0000E+00
    -21.702  0.0000E+00  0.0000E+00
    -21.696  0.0000E+00  0.0000E+00
    -21.691  0.0000E+00  0.0000E+00
    -21.685  0.0000E+00  0.0000E+00
    -21.679  0.0000E+00  0.0000E+00
    -21.674  0.0000E+00  0.0000E+00
    -21.668  0.0000E+00  0.0000E+00
    -21.662  0.0000E+00  0.0000E+00
    -21.657  0.0000E+00  0.0000E+00
    -21.651  0.0000E+00  0.0000E+00
    -21.645  0.0000E+00  0.0000E+00
    -21.640  0.0000E+00  0.0000E+00
    -21.634  0.0000E+00  0.0000E+00
    -21.628  0.0000E+00  0.0000E+00
    -21.623  0.0000E+00  0.0000E+00
    -21.617  0.0000E+00  0.0000E+00
    -21.611  0.0000E+00  0.0000E+00
    -21.606  0.0000E+00  0.0000E+00
    -21.600  0.0000E+00  0.0000E+00
    -21.594  0.0000E+00  0.0000E+00
    -21.589  0.0000E+00  0.0000E+00
    -21.583  0.0000E+00  0.0000E+00
    -21.577  0.0000E+00  0.0000E+00
    -21.571  0.0000E+00  0.0000E+00
    -21.566  0.0000E+00  0.0000E+00
    -21.560  0.0000E+00  0.0000E+00
    -21.554  0.0000E+00  0.0000E+00
    -21.549  0.0000E+00  0.0000E+00
    -21.543  0.0000E+00  0.0000E+00
    -21.537  0.0000E+00  0.0000E+00
    -21.532  0.0000E+00  0.0000E+00
    -21.526  0.0000E+00  0.0000E+00
    -21.520  0.0000E+00  0.0000E+00
    -21.515  0.0000E+00  0.0000E+00
    -21.509  0.0000E+00  0.0000E+00
    -21.503  0.0000E+00  0.0000E+00
    -21.498  0.0000E+00  0.0000E+00
    -21.492  0.0000E+00  0.0000E+00
    -21.486  0.0000E+00  0.0000E+00
    -21.481  0.0000E+00  0.0000E+00
    -21.475  0.0000E+00  0.0000E+00
    -21.469  0.0000E+00  0.0000E+00
    -21.463  0.0000E+00  0.0000E+00
    -21.458  0.0000E+00  0.0000E+00
    -21.452  0.0000E+00  0.0000E+00
    -21.446  0.0000E+00  0.0000E+00
    -21.441  0.0000E+00  0.0000E+00
    -21.435  0.0000E+00  0.0000E+00
    -21.429  0.0000E+00  0.0000E+00
    -21.424  0.0000E+00  0.0000E+00
    -21.418  0.0000E+00  0.0000E+00
    -21.412  0.0000E+00  0.0000E+00
    -21.407  0.0000E+00  0.0000E+00
    -21.401  0.0000E+00  0.0000E+00
    -21.395  0.0000E+00  0.0000E+00
    -21.390  0.0000E+00  0.0000E+00
    -21.384  0.0000E+00  0.0000E+00
    -21.378  0.0000E+00  0.0000E+00
    -21.373  0.0000E+00  0.0000E+00
    -21.367  0.0000E+00  0.0000E+00
    -21.361  0.0000E+00  0.0000E+00
    -21.356  0.0000E+00  0.0000E+00
    -21.350  0.0000E+00  0.0000E+00
    -21.344  0.0000E+00  0.0000E+00
    -21.338  0.0000E+00  0.0000E+00
    -21.333  0.0000E+00  0.0000E+00
    -21.327  0.0000E+00  0.0000E+00
    -21.321  0.0000E+00  0.0000E+00
    -21.316  0.0000E+00  0.0000E+00
    -21.310  0.0000E+00  0.0000E+00
    -21.304  0.0000E+00  0.0000E+00
    -21.299  0.0000E+00  0.0000E+00
    -21.293  0.0000E+00  0.0000E+00
    -21.287  0.0000E+00  0.0000E+00
    -21.282  0.0000E+00  0.0000E+00
    -21.276  0.0000E+00  0.0000E+00
    -21.270  0.0000E+00  0.0000E+00
    -21.265  0.0000E+00  0.0000E+00
    -21.259  0.0000E+00  0.0000E+00
    -21.253  0.0000E+00  0.0000E+00
    -21.248  0.0000E+00  0.0000E+00
    -21.242  0.0000E+00  0.0000E+00
    -21.236  0.0000E+00  0.0000E+00
    -21.231  0.0000E+00  0.0000E+00
    -21.225  0.0000E+00  0.0000E+00
    -21.219  0.0000E+00  0.0000E+00
    -21.213  0.0000E+00  0.0000E+00
    -21.208  0.0000E+00  0.0000E+00
    -21.202  0.0000E+00  0.0000E+00
    -21.196  0.0000E+00  0.0000E+00
    -21.191  0.0000E+00  0.0000E+00
    -21.185  0.0000E+00  0.0000E+00
    -21.179  0.0000E+00  0.0000E+00
    -21.174  0.0000E+00  0.0000E+00
    -21.168  0.0000E+00  0.0000E+00
    -21.162  0.0000E+00  0.0000E+00
    -21.157  0.0000E+00  0.0000E+00
    -21.151  0.0000E+00  0.0000E+00
    -21.145  0.0000E+00  0.0000E+00
    -21.140  0.0000E+00  0.0000E+00
    -21.134  0.0000E+00  0.0000E+00
    -21.128  0.0000E+00  0.0000E+00
    -21.123  0.0000E+00  0.0000E+00
    -21.117  0.0000E+00  0.0000E+00
    -21.111  0.0000E+00  0.0000E+00
    -21.106  0.0000E+00  0.0000E+00
    -21.100  0.0000E+00  0.0000E+00
    -21.094  0.0000E+00  0.0000E+00
    -21.088  0.0000E+00  0.0000E+00
    -21.083  0.0000E+00  0.0000E+00
    -21.077  0.0000E+00  0.0000E+00
    -21.071  0.0000E+00  0.0000E+00
    -21.066  0.0000E+00  0.0000E+00
    -21.060  0.0000E+00  0.0000E+00
    -21.054  0.0000E+00  0.0000E+00
    -21.049  0.0000E+00  0.0000E+00
    -21.043  0.0000E+00  0.0000E+00
    -21.037  0.0000E+00  0.0000E+00
    -21.032  0.0000E+00  0.0000E+00
    -21.026  0.0000E+00  0.0000E+00
    -21.020  0.0000E+00  0.0000E+00
    -21.015  0.0000E+00  0.0000E+00
    -21.009  0.0000E+00  0.0000E+00
    -21.003  0.0000E+00  0.0000E+00
    -20.998  0.0000E+00  0.0000E+00
    -20.992  0.0000E+00  0.0000E+00
    -20.986  0.0000E+00  0.0000E+00
    -20.981  0.0000E+00  0.0000E+00
    -20.975  0.0000E+00  0.0000E+00
    -20.969  0.0000E+00  0.0000E+00
    -20.963  0.0000E+00  0.0000E+00
    -20.958  0.0000E+00  0.0000E+00
    -20.952  0.0000E+00  0.0000E+00
    -20.946  0.0000E+00  0.0000E+00
    -20.941  0.0000E+00  0.0000E+00
    -20.935  0.0000E+00  0.0000E+00
    -20.929  0.0000E+00  0.0000E+00
    -20.924  0.0000E+00  0.0000E+00
    -20.918  0.0000E+00  0.0000E+00
    -20.912  0.0000E+00  0.0000E+00
    -20.907  0.0000E+00  0.0000E+00
    -20.901  0.0000E+00  0.0000E+00
    -20.895  0.0000E+00  0.0000E+00
    -20.890  0.0000E+00  0.0000E+00
    -20.884  0.0000E+00  0.0000E+00
    -20.878  0.0000E+00  0.0000E+00
    -20.873  0.0000E+00  0.0000E+00
    -20.867  0.0000E+00  0.0000E+00
    -20.861  0.0000E+00  0.0000E+00
    -20.855  0.5427E-16  0.3084E-18
    -20.850  0.2320E-13  0.1321E-15
    -20.844  0.5279E-11  0.3013E-13
    -20.838  0.6379E-09  0.3655E-11
    -20.833  0.4104E-07  0.2368E-09
    -20.827  0.1410E-05  0.8247E-08
    -20.821  0.2595E-04  0.1557E-06
    -20.816  0.2572E-03  0.1617E-05
    -20.810  0.1386E-02  0.9496E-05
    -20.804  0.4158E-02  0.3312E-04
    -20.799  0.7395E-02  0.7514E-04
    -20.793  0.8955E-02  0.1260E-03
    -20.787  0.8459E-02  0.1741E-03
    -20.782  0.5912E-02  0.2077E-03
    -20.776  0.2606E-02  0.2225E-03
    -20.770  0.6962E-03  0.2265E-03
    -20.765  0.6464E-03  0.2301E-03
    -20.759  0.4013E-02  0.2529E-03
    -20.753  0.1584E-01  0.3429E-03
    -20.748  0.3576E-01  0.5461E-03
    -20.742  0.5100E-01  0.8359E-03
    -20.736  0.5381E-01  0.1142E-02
    -20.730  0.4414E-01  0.1392E-02
    -20.725  0.2456E-01  0.1532E-02
    -20.719  0.8091E-02  0.1578E-02
    -20.713  0.1483E-02  0.1586E-02
    -20.708  0.1477E-03  0.1587E-02
    -20.702  0.7922E-05  0.1587E-02
    -20.696  0.2277E-06  0.1587E-02
    -20.691  0.3495E-08  0.1587E-02
    -20.685  0.3206E-10  0.1587E-02
    -20.679  0.5519E-09  0.1587E-02
    -20.674  0.4624E-07  0.1587E-02
    -20.668  0.2066E-05  0.1587E-02
    -20.662  0.4941E-04  0.1588E-02
    -20.657  0.6349E-03  0.1591E-02
    -20.651  0.4415E-02  0.1616E-02
    -20.645  0.1688E-01  0.1712E-02
    -20.640  0.3704E-01  0.1923E-02
    -20.634  0.5179E-01  0.2217E-02
    -20.628  0.5384E-01  0.2523E-02
    -20.623  0.4306E-01  0.2768E-02
    -20.617  0.2306E-01  0.2899E-02
    -20.611  0.7281E-02  0.2940E-02
    -20.605  0.1482E-02  0.2948E-02
    -20.600  0.2063E-02  0.2960E-02
    -20.594  0.9771E-02  0.3016E-02
    -20.588  0.2749E-01  0.3172E-02
    -20.583  0.4655E-01  0.3436E-02
    -20.577  0.5460E-01  0.3747E-02
    -20.571  0.4970E-01  0.4029E-02
    -20.566  0.3255E-01  0.4214E-02
    -20.560  0.1319E-01  0.4289E-02
    -20.554  0.3025E-02  0.4306E-02
    -20.549  0.3799E-03  0.4308E-02
    -20.543  0.2577E-04  0.4308E-02
    -20.537  0.9383E-06  0.4308E-02
    -20.532  0.1826E-07  0.4308E-02
    -20.526  0.1895E-09  0.4308E-02
    -20.520  0.1045E-11  0.4308E-02
    -20.515  0.3057E-14  0.4308E-02
    -20.509  0.0000E+00  0.4308E-02
    -20.503  0.0000E+00  0.4308E-02
    -20.498  0.0000E+00  0.4308E-02
    -20.492  0.0000E+00  0.4308E-02
    -20.486  0.0000E+00  0.4308E-02
    -20.480  0.1462E-15  0.4308E-02
    -20.475  0.7023E-13  0.4308E-02
    -20.469  0.1857E-10  0.4308E-02
    -20.463  0.2606E-08  0.4308E-02
    -20.458  0.1946E-06  0.4308E-02
    -20.452  0.7752E-05  0.4308E-02
    -20.446  0.1654E-03  0.4309E-02
    -20.441  0.1898E-02  0.4320E-02
    -20.435  0.1182E-01  0.4387E-02
    -20.429  0.4071E-01  0.4619E-02
    -20.424  0.8173E-01  0.5083E-02
    -20.418  0.1074E+00  0.5694E-02
    -20.412  0.1064E+00  0.6298E-02
    -20.407  0.7876E-01  0.6746E-02
    -20.401  0.3774E-01  0.6960E-02
    -20.395  0.1047E-01  0.7020E-02
    -20.390  0.1605E-02  0.7029E-02
    -20.384  0.1333E-03  0.7029E-02
    -20.378  0.5953E-05  0.7029E-02
    -20.373  0.1423E-06  0.7029E-02
    -20.367  0.1815E-08  0.7029E-02
    -20.361  0.3002E-10  0.7029E-02
    -20.355  0.2298E-08  0.7029E-02
    -20.350  0.1587E-06  0.7029E-02
    -20.344  0.5852E-05  0.7030E-02
    -20.338  0.1156E-03  0.7030E-02
    -20.333  0.1230E-02  0.7037E-02
    -20.327  0.7110E-02  0.7078E-02
    -20.321  0.2285E-01  0.7207E-02
    -20.316  0.4329E-01  0.7453E-02
    -20.310  0.5469E-01  0.7764E-02
    -20.304  0.5233E-01  0.8062E-02
    -20.299  0.3669E-01  0.8270E-02
    -20.293  0.1632E-01  0.8363E-02
    -20.287  0.4170E-02  0.8386E-02
    -20.282  0.5862E-03  0.8390E-02
    -20.276  0.4461E-04  0.8390E-02
    -20.270  0.1825E-05  0.8390E-02
    -20.265  0.3993E-07  0.8390E-02
    -20.259  0.4658E-09  0.8390E-02
    -20.253  0.2890E-11  0.8390E-02
    -20.248  0.9517E-14  0.8390E-02
    -20.242  0.1329E-16  0.8390E-02
    -20.236  0.0000E+00  0.8390E-02
    -20.230  0.0000E+00  0.8390E-02
    -20.225  0.0000E+00  0.8390E-02
    -20.219  0.0000E+00  0.8390E-02
    -20.213  0.2658E-16  0.8390E-02
    -20.208  0.1517E-13  0.8390E-02
    -20.202  0.4386E-11  0.8390E-02
    -20.196  0.6731E-09  0.8390E-02
    -20.191  0.5494E-07  0.8390E-02
    -20.185  0.2391E-05  0.8390E-02
    -20.179  0.5571E-04  0.8390E-02
    -20.174  0.6980E-03  0.8394E-02
    -20.168  0.4739E-02  0.8421E-02
    -20.162  0.1776E-01  0.8522E-02
    -20.157  0.3847E-01  0.8741E-02
    -20.151  0.5346E-01  0.9045E-02
    -20.145  0.5462E-01  0.9355E-02
    -20.140  0.4163E-01  0.9591E-02
    -20.134  0.2083E-01  0.9710E-02
    -20.128  0.6127E-02  0.9745E-02
    -20.122  0.1518E-02  0.9753E-02
    -20.117  0.4707E-02  0.9780E-02
    -20.111  0.2208E-01  0.9905E-02
    -20.105  0.5951E-01  0.1024E-01
    -20.100  0.9781E-01  0.1080E-01
    -20.094  0.1121E+00  0.1144E-01
    -20.088  0.9719E-01  0.1199E-01
    -20.083  0.5859E-01  0.1232E-01
    -20.077  0.2148E-01  0.1244E-01
    -20.071  0.4439E-02  0.1247E-01
    -20.066  0.5014E-03  0.1247E-01
    -20.060  0.3057E-04  0.1247E-01
    -20.054  0.1000E-05  0.1247E-01
    -20.049  0.1749E-07  0.1247E-01
    -20.043  0.1628E-09  0.1247E-01
    -20.037  0.8056E-12  0.1247E-01
    -20.032  0.2127E-14  0.1247E-01
    -20.026  0.0000E+00  0.1247E-01
    -20.020  0.0000E+00  0.1247E-01
    -20.015  0.0000E+00  0.1247E-01
    -20.009  0.0000E+00  0.1247E-01
    -20.003  0.0000E+00  0.1247E-01
    -19.997  0.3389E-15  0.1247E-01
    -19.992  0.1443E-12  0.1247E-01
    -19.986  0.3269E-10  0.1247E-01
    -19.980  0.3935E-08  0.1247E-01
    -19.975  0.2522E-06  0.1247E-01
    -19.969  0.8631E-05  0.1247E-01
    -19.963  0.1584E-03  0.1247E-01
    -19.958  0.1567E-02  0.1248E-01
    -19.952  0.8451E-02  0.1253E-01
    -19.946  0.2552E-01  0.1267E-01
    -19.941  0.4608E-01  0.1294E-01
    -19.935  0.5624E-01  0.1326E-01
    -19.929  0.5135E-01  0.1355E-01
    -19.924  0.3323E-01  0.1374E-01
    -19.918  0.1335E-01  0.1381E-01
    -19.912  0.3057E-02  0.1383E-01
    -19.907  0.3841E-03  0.1383E-01
    -19.901  0.2610E-04  0.1383E-01
    -19.895  0.9525E-06  0.1383E-01
    -19.890  0.1859E-07  0.1383E-01
    -19.884  0.1933E-09  0.1383E-01
    -19.878  0.1069E-11  0.1383E-01
    -19.872  0.3137E-14  0.1383E-01
    -19.867  0.0000E+00  0.1383E-01
    -19.861  0.0000E+00  0.1383E-01
    -19.855  0.0000E+00  0.1383E-01
    -19.850  0.0000E+00  0.1383E-01
    -19.844  0.0000E+00  0.1383E-01
    -19.838  0.2924E-15  0.1383E-01
    -19.833  0.1366E-12  0.1383E-01
    -19.827  0.3361E-10  0.1383E-01
    -19.821  0.4391E-08  0.1383E-01
    -19.816  0.3052E-06  0.1383E-01
    -19.810  0.1133E-04  0.1383E-01
    -19.804  0.2252E-03  0.1383E-01
    -19.799  0.2413E-02  0.1385E-01
    -19.793  0.1408E-01  0.1393E-01
    -19.787  0.4579E-01  0.1419E-01
    -19.782  0.8813E-01  0.1469E-01
    -19.776  0.1125E+00  0.1533E-01
    -19.770  0.1060E+00  0.1593E-01
    -19.765  0.7127E-01  0.1633E-01
    -19.759  0.3015E-01  0.1651E-01
    -19.753  0.7317E-02  0.1655E-01
    -19.747  0.9781E-03  0.1655E-01
    -19.742  0.7081E-04  0.1655E-01
    -19.736  0.2755E-05  0.1655E-01
    -19.730  0.5734E-07  0.1655E-01
    -19.725  0.6369E-09  0.1655E-01
    -19.719  0.1300E-09  0.1655E-01
    -19.713  0.1400E-07  0.1655E-01
    -19.708  0.8271E-06  0.1655E-01
    -19.702  0.2610E-04  0.1655E-01
    -19.696  0.4419E-03  0.1656E-01
    -19.691  0.4040E-02  0.1658E-01
    -19.685  0.2021E-01  0.1669E-01
    -19.679  0.5702E-01  0.1702E-01
    -19.674  0.9758E-01  0.1757E-01
    -19.668  0.1144E+00  0.1822E-01
    -19.662  0.9921E-01  0.1879E-01
    -19.657  0.5933E-01  0.1912E-01
    -19.651  0.2163E-01  0.1925E-01
    -19.645  0.4461E-02  0.1927E-01
    -19.640  0.5038E-03  0.1927E-01
    -19.634  0.3074E-04  0.1927E-01
    -19.628  0.1006E-05  0.1927E-01
    -19.622  0.1761E-07  0.1927E-01
    -19.617  0.1641E-09  0.1927E-01
    -19.611  0.8129E-12  0.1927E-01
    -19.605  0.2127E-14  0.1927E-01
    -19.600  0.0000E+00  0.1927E-01
    -19.594  0.0000E+00  0.1927E-01
    -19.588  0.0000E+00  0.1927E-01
    -19.583  0.0000E+00  0.1927E-01
    -19.577  0.0000E+00  0.1927E-01
    -19.571  0.0000E+00  0.1927E-01
    -19.566  0.0000E+00  0.1927E-01
    -19.560  0.0000E+00  0.1927E-01
    -19.554  0.0000E+00  0.1927E-01
    -19.549  0.0000E+00  0.1927E-01
    -19.543  0.0000E+00  0.1927E-01
    -19.537  0.0000E+00  0.1927E-01
    -19.532  0.0000E+00  0.1927E-01
    -19.526  0.0000E+00  0.1927E-01
    -19.520  0.5981E-16  0.1927E-01
    -19.514  0.3096E-13  0.1927E-01
    -19.509  0.8297E-11  0.1927E-01
    -19.503  0.1180E-08  0.1927E-01
    -19.497  0.8932E-07  0.1927E-01
    -19.492  0.3607E-05  0.1927E-01
    -19.486  0.7803E-04  0.1927E-01
    -19.480  0.9090E-03  0.1928E-01
    -19.475  0.5760E-02  0.1931E-01
    -19.469  0.2030E-01  0.1943E-01
    -19.463  0.4196E-01  0.1967E-01
    -19.458  0.5637E-01  0.1999E-01
    -19.452  0.5473E-01  0.2030E-01
    -19.446  0.3785E-01  0.2051E-01
    -19.441  0.1662E-01  0.2061E-01
    -19.435  0.4222E-02  0.2063E-01
    -19.429  0.5929E-03  0.2063E-01
    -19.424  0.4517E-04  0.2063E-01
    -19.418  0.1851E-05  0.2063E-01
    -19.412  0.4060E-07  0.2063E-01
    -19.407  0.4752E-09  0.2063E-01
    -19.401  0.6647E-10  0.2063E-01
    -19.395  0.7038E-08  0.2063E-01
    -19.389  0.4154E-06  0.2063E-01
    -19.384  0.1310E-04  0.2063E-01
    -19.378  0.2217E-03  0.2064E-01
    -19.372  0.2028E-02  0.2065E-01
    -19.367  0.1016E-01  0.2071E-01
    -19.361  0.2879E-01  0.2087E-01
    -19.355  0.4954E-01  0.2115E-01
    -19.350  0.5805E-01  0.2148E-01
    -19.344  0.4951E-01  0.2176E-01
    -19.338  0.2874E-01  0.2193E-01
    -19.333  0.1014E-01  0.2198E-01
    -19.327  0.2208E-02  0.2200E-01
    -19.321  0.2323E-02  0.2201E-01
    -19.316  0.1281E-01  0.2208E-01
    -19.310  0.4350E-01  0.2233E-01
    -19.304  0.8725E-01  0.2282E-01
    -19.299  0.1145E+00  0.2348E-01
    -19.293  0.1083E+00  0.2409E-01
    -19.287  0.7194E-01  0.2450E-01
    -19.282  0.3001E-01  0.2467E-01
    -19.276  0.7206E-02  0.2471E-01
    -19.270  0.9549E-03  0.2472E-01
    -19.264  0.6862E-04  0.2472E-01
    -19.259  0.2651E-05  0.2472E-01
    -19.253  0.5479E-07  0.2472E-01
    -19.247  0.6038E-09  0.2472E-01
    -19.242  0.3538E-11  0.2472E-01
    -19.236  0.1101E-13  0.2472E-01
    -19.230  0.0000E+00  0.2472E-01
    -19.225  0.0000E+00  0.2472E-01
    -19.219  0.0000E+00  0.2472E-01
    -19.213  0.0000E+00  0.2472E-01
    -19.208  0.0000E+00  0.2472E-01
    -19.202  0.2924E-15  0.2472E-01
    -19.196  0.1366E-12  0.2472E-01
    -19.191  0.3361E-10  0.2472E-01
    -19.185  0.4390E-08  0.2472E-01
    -19.179  0.3052E-06  0.2472E-01
    -19.174  0.1133E-04  0.2472E-01
    -19.168  0.2254E-03  0.2472E-01
    -19.162  0.2419E-02  0.2473E-01
    -19.157  0.1417E-01  0.2481E-01
    -19.151  0.4646E-01  0.2508E-01
    -19.145  0.9051E-01  0.2559E-01
    -19.139  0.1161E+00  0.2625E-01
    -19.134  0.1068E+00  0.2686E-01
    -19.128  0.6815E-01  0.2724E-01
    -19.122  0.2703E-01  0.2740E-01
    -19.117  0.6145E-02  0.2743E-01
    -19.111  0.7697E-03  0.2744E-01
    -19.105  0.5224E-04  0.2744E-01
    -19.100  0.1906E-05  0.2744E-01
    -19.094  0.3719E-07  0.2744E-01
    -19.088  0.3867E-09  0.2744E-01
    -19.083  0.2138E-11  0.2744E-01
    -19.077  0.6274E-14  0.2744E-01
    -19.071  0.0000E+00  0.2744E-01
    -19.066  0.0000E+00  0.2744E-01
    -19.060  0.0000E+00  0.2744E-01
    -19.054  0.0000E+00  0.2744E-01
    -19.049  0.0000E+00  0.2744E-01
    -19.043  0.0000E+00  0.2744E-01
    -19.037  0.0000E+00  0.2744E-01
    -19.032  0.0000E+00  0.2744E-01
    -19.026  0.0000E+00  0.2744E-01
    -19.020  0.0000E+00  0.2744E-01
    -19.014  0.0000E+00  0.2744E-01
    -19.009  0.0000E+00  0.2744E-01
    -19.003  0.0000E+00  0.2744E-01
    -18.997  0.0000E+00  0.2744E-01
    -18.992  0.0000E+00  0.2744E-01
    -18.986  0.0000E+00  0.2744E-01
    -18.980  0.0000E+00  0.2744E-01
    -18.975  0.0000E+00  0.2744E-01
    -18.969  0.0000E+00  0.2744E-01
    -18.963  0.0000E+00  0.2744E-01
    -18.958  0.0000E+00  0.2744E-01
    -18.952  0.0000E+00  0.2744E-01
    -18.946  0.0000E+00  0.2744E-01
    -18.941  0.1329E-16  0.2744E-01
    -18.935  0.6951E-14  0.2744E-01
    -18.929  0.2183E-11  0.2744E-01
    -18.924  0.3636E-09  0.2744E-01
    -18.918  0.3220E-07  0.2744E-01
    -18.912  0.1521E-05  0.2744E-01
    -18.907  0.3844E-04  0.2744E-01
    -18.901  0.5228E-03  0.2744E-01
    -18.895  0.3862E-02  0.2746E-01
    -18.889  0.1579E-01  0.2755E-01
    -18.884  0.3738E-01  0.2776E-01
    -18.878  0.5571E-01  0.2808E-01
    -18.872  0.5774E-01  0.2841E-01
    -18.867  0.4216E-01  0.2865E-01
    -18.861  0.1984E-01  0.2876E-01
    -18.855  0.5530E-02  0.2879E-01
    -18.850  0.1604E-02  0.2880E-01
    -18.844  0.6173E-02  0.2884E-01
    -18.838  0.2701E-01  0.2899E-01
    -18.833  0.6864E-01  0.2938E-01
    -18.827  0.1084E+00  0.3000E-01
    -18.821  0.1174E+00  0.3066E-01
    -18.816  0.8990E-01  0.3117E-01
    -18.810  0.4491E-01  0.3143E-01
    -18.804  0.1330E-01  0.3151E-01
    -18.799  0.2206E-02  0.3152E-01
    -18.793  0.1998E-03  0.3152E-01
    -18.787  0.9759E-05  0.3152E-01
    -18.781  0.2556E-06  0.3152E-01
    -18.776  0.3573E-08  0.3152E-01
    -18.770  0.5444E-10  0.3152E-01
    -18.764  0.3723E-08  0.3152E-01
    -18.759  0.2648E-06  0.3152E-01
    -18.753  0.1006E-04  0.3152E-01
    -18.747  0.2047E-03  0.3152E-01
    -18.742  0.2249E-02  0.3153E-01
    -18.736  0.1349E-01  0.3161E-01
    -18.730  0.4540E-01  0.3187E-01
    -18.725  0.9064E-01  0.3238E-01
    -18.719  0.1180E+00  0.3305E-01
    -18.713  0.1082E+00  0.3367E-01
    -18.708  0.6775E-01  0.3405E-01
    -18.702  0.2629E-01  0.3420E-01
    -18.696  0.5851E-02  0.3424E-01
    -18.691  0.7188E-03  0.3424E-01
    -18.685  0.4788E-04  0.3424E-01
    -18.679  0.1714E-05  0.3424E-01
    -18.674  0.3284E-07  0.3424E-01
    -18.668  0.3353E-09  0.3424E-01
    -18.662  0.1819E-11  0.3424E-01
    -18.656  0.5263E-14  0.3424E-01
    -18.651  0.0000E+00  0.3424E-01
    -18.645  0.0000E+00  0.3424E-01
    -18.639  0.0000E+00  0.3424E-01
    -18.634  0.0000E+00  0.3424E-01
    -18.628  0.0000E+00  0.3424E-01
    -18.622  0.0000E+00  0.3424E-01
    -18.617  0.0000E+00  0.3424E-01
    -18.611  0.0000E+00  0.3424E-01
    -18.605  0.0000E+00  0.3424E-01
    -18.600  0.0000E+00  0.3424E-01
    -18.594  0.0000E+00  0.3424E-01
    -18.588  0.0000E+00  0.3424E-01
    -18.583  0.0000E+00  0.3424E-01
    -18.577  0.0000E+00  0.3424E-01
    -18.571  0.4120E-15  0.3424E-01
    -18.566  0.1838E-12  0.3424E-01
    -18.560  0.4377E-10  0.3424E-01
    -18.554  0.5536E-08  0.3424E-01
    -18.549  0.3728E-06  0.3424E-01
    -18.543  0.1341E-04  0.3424E-01
    -18.537  0.2586E-03  0.3424E-01
    -18.531  0.2696E-02  0.3426E-01
    -18.526  0.1538E-01  0.3434E-01
    -18.520  0.4945E-01  0.3463E-01
    -18.514  0.9504E-01  0.3517E-01
    -18.509  0.1198E+00  0.3585E-01
    -18.503  0.1056E+00  0.3645E-01
    -18.497  0.6261E-01  0.3680E-01
    -18.492  0.2275E-01  0.3693E-01
    -18.486  0.4717E-02  0.3696E-01
    -18.480  0.5387E-03  0.3696E-01
    -18.475  0.3334E-04  0.3696E-01
    -18.469  0.1109E-05  0.3696E-01
    -18.463  0.1971E-07  0.3696E-01
    -18.458  0.1867E-09  0.3696E-01
    -18.452  0.9400E-12  0.3696E-01
    -18.446  0.2499E-14  0.3696E-01
    -18.441  0.0000E+00  0.3696E-01
    -18.435  0.0000E+00  0.3696E-01
    -18.429  0.0000E+00  0.3696E-01
    -18.424  0.0000E+00  0.3696E-01
    -18.418  0.0000E+00  0.3696E-01
    -18.412  0.0000E+00  0.3696E-01
    -18.406  0.0000E+00  0.3696E-01
    -18.401  0.0000E+00  0.3696E-01
    -18.395  0.0000E+00  0.3696E-01
    -18.389  0.0000E+00  0.3696E-01
    -18.384  0.0000E+00  0.3696E-01
    -18.378  0.0000E+00  0.3696E-01
    -18.372  0.0000E+00  0.3696E-01
    -18.367  0.0000E+00  0.3696E-01
    -18.361  0.0000E+00  0.3696E-01
    -18.355  0.0000E+00  0.3696E-01
    -18.350  0.0000E+00  0.3696E-01
    -18.344  0.0000E+00  0.3696E-01
    -18.338  0.0000E+00  0.3696E-01
    -18.333  0.0000E+00  0.3696E-01
    -18.327  0.0000E+00  0.3696E-01
    -18.321  0.0000E+00  0.3696E-01
    -18.316  0.0000E+00  0.3696E-01
    -18.310  0.1701E-14  0.3696E-01
    -18.304  0.6171E-12  0.3696E-01
    -18.299  0.1189E-09  0.3696E-01
    -18.293  0.1217E-07  0.3696E-01
    -18.287  0.6638E-06  0.3696E-01
    -18.281  0.1937E-04  0.3696E-01
    -18.276  0.3040E-03  0.3696E-01
    -18.270  0.2587E-02  0.3698E-01
    -18.264  0.1216E-01  0.3705E-01
    -18.259  0.3277E-01  0.3723E-01
    -18.253  0.5427E-01  0.3754E-01
    -18.247  0.6028E-01  0.3788E-01
    -18.242  0.4618E-01  0.3815E-01
    -18.236  0.2290E-01  0.3828E-01
    -18.230  0.6776E-02  0.3832E-01
    -18.225  0.1617E-02  0.3832E-01
    -18.219  0.4984E-02  0.3835E-01
    -18.213  0.2633E-01  0.3850E-01
    -18.208  0.8070E-01  0.3896E-01
    -18.202  0.1494E+00  0.3981E-01
    -18.196  0.1821E+00  0.4085E-01
    -18.191  0.1534E+00  0.4172E-01
    -18.185  0.8558E-01  0.4220E-01
    -18.179  0.2901E-01  0.4237E-01
    -18.173  0.5612E-02  0.4240E-01
    -18.168  0.5998E-03  0.4240E-01
    -18.162  0.3487E-04  0.4240E-01
    -18.156  0.1094E-05  0.4240E-01
    -18.151  0.1844E-07  0.4240E-01
    -18.145  0.1663E-09  0.4240E-01
    -18.139  0.8001E-12  0.4240E-01
    -18.134  0.2047E-14  0.4240E-01
    -18.128  0.0000E+00  0.4240E-01
    -18.122  0.0000E+00  0.4240E-01
    -18.117  0.0000E+00  0.4240E-01
    -18.111  0.0000E+00  0.4240E-01
    -18.105  0.5317E-16  0.4240E-01
    -18.100  0.2874E-13  0.4240E-01
    -18.094  0.8358E-11  0.4240E-01
    -18.088  0.1290E-08  0.4240E-01
    -18.083  0.1059E-06  0.4240E-01
    -18.077  0.4641E-05  0.4240E-01
    -18.071  0.1090E-03  0.4240E-01
    -18.066  0.1379E-02  0.4241E-01
    -18.060  0.9523E-02  0.4247E-01
    -18.054  0.3671E-01  0.4267E-01
    -18.048  0.8285E-01  0.4315E-01
    -18.043  0.1184E+00  0.4382E-01
    -18.037  0.1151E+00  0.4447E-01
    -18.031  0.7550E-01  0.4490E-01
    -18.026  0.3096E-01  0.4508E-01
    -18.020  0.7361E-02  0.4512E-01
    -18.014  0.9726E-03  0.4512E-01
    -18.009  0.6993E-04  0.4512E-01
    -18.003  0.2708E-05  0.4512E-01
    -17.997  0.5615E-07  0.4512E-01
    -17.992  0.6209E-09  0.4512E-01
    -17.986  0.3651E-11  0.4512E-01
    -17.980  0.1140E-13  0.4512E-01
    -17.975  0.0000E+00  0.4512E-01
    -17.969  0.0000E+00  0.4512E-01
    -17.963  0.0000E+00  0.4512E-01
    -17.958  0.0000E+00  0.4512E-01
    -17.952  0.0000E+00  0.4512E-01
    -17.946  0.0000E+00  0.4512E-01
    -17.941  0.0000E+00  0.4512E-01
    -17.935  0.0000E+00  0.4512E-01
    -17.929  0.0000E+00  0.4512E-01
    -17.923  0.0000E+00  0.4512E-01
    -17.918  0.0000E+00  0.4512E-01
    -17.912  0.0000E+00  0.4512E-01
    -17.906  0.0000E+00  0.4512E-01
    -17.901  0.0000E+00  0.4512E-01
    -17.895  0.0000E+00  0.4512E-01
    -17.889  0.0000E+00  0.4512E-01
    -17.884  0.0000E+00  0.4512E-01
    -17.878  0.0000E+00  0.4512E-01
    -17.872  0.0000E+00  0.4512E-01
    -17.867  0.0000E+00  0.4512E-01
    -17.861  0.0000E+00  0.4512E-01
    -17.855  0.0000E+00  0.4512E-01
    -17.850  0.0000E+00  0.4512E-01
    -17.844  0.1143E-14  0.4512E-01
    -17.838  0.4635E-12  0.4512E-01
    -17.833  0.9968E-10  0.4512E-01
    -17.827  0.1139E-07  0.4512E-01
    -17.821  0.6931E-06  0.4512E-01
    -17.816  0.2255E-04  0.4512E-01
    -17.810  0.3943E-03  0.4513E-01
    -17.804  0.3737E-02  0.4515E-01
    -17.798  0.1951E-01  0.4526E-01
    -17.793  0.5803E-01  0.4559E-01
    -17.787  0.1045E+00  0.4618E-01
    -17.781  0.1233E+00  0.4688E-01
    -17.776  0.9885E-01  0.4745E-01
    -17.770  0.5138E-01  0.4774E-01
    -17.764  0.1601E-01  0.4783E-01
    -17.759  0.2822E-02  0.4784E-01
    -17.753  0.2733E-03  0.4785E-01
    -17.747  0.1433E-04  0.4785E-01
    -17.742  0.4032E-06  0.4785E-01
    -17.736  0.6062E-08  0.4785E-01
    -17.730  0.4854E-10  0.4785E-01
    -17.725  0.2063E-12  0.4785E-01
    -17.719  0.4785E-15  0.4785E-01
    -17.713  0.0000E+00  0.4785E-01
    -17.708  0.0000E+00  0.4785E-01
    -17.702  0.0000E+00  0.4785E-01
    -17.696  0.0000E+00  0.4785E-01
    -17.691  0.0000E+00  0.4785E-01
    -17.685  0.0000E+00  0.4785E-01
    -17.679  0.0000E+00  0.4785E-01
    -17.673  0.0000E+00  0.4785E-01
    -17.668  0.0000E+00  0.4785E-01
    -17.662  0.0000E+00  0.4785E-01