 running on    4 total cores
 distrk:  each k-point on    4 cores,    1 groups
 distr:  one band on    1 cores,    4 groups
 using from now: INCAR     
 vasp.5.4.4.18Apr17-6-g9f103f2a35 (build May 31 2018 21:15:54) complex          
  
 POSCAR found type information on POSCAR  C 
 POSCAR found :  1 types and       4 ions
 scaLAPACK will be used
 LDA part: xc-table for Pade appr. of Perdew
 POSCAR, INCAR and KPOINTS ok, starting setup
 FFT: planning ...
 WAVECAR not read
 entering main loop
       N       E                     dE             d eps       ncg     rms          rms(c)
DAV:   1     0.127731963597E+03    0.12773E+03   -0.80793E+03  1152   0.149E+03
DAV:   2    -0.251609759910E+02   -0.15289E+03   -0.13891E+03  1880   0.243E+02
DAV:   3    -0.392158738006E+02   -0.14055E+02   -0.13501E+02  1440   0.841E+01
DAV:   4    -0.395235344653E+02   -0.30766E+00   -0.30697E+00  1460   0.153E+01
DAV:   5    -0.395325200805E+02   -0.89856E-02   -0.89643E-02  1472   0.254E+00    0.902E+00
DAV:   6    -0.376524314075E+02    0.18801E+01   -0.17244E+00  1364   0.919E+00    0.529E+00
DAV:   7    -0.369383876460E+02    0.71404E+00   -0.23304E+00  1412   0.106E+01    0.138E+00
DAV:   8    -0.369385596206E+02   -0.17197E-03   -0.69062E-02  1436   0.189E+00    0.133E-01
DAV:   9    -0.369373857263E+02    0.11739E-02   -0.18363E-03  1464   0.351E-01    0.934E-02
DAV:  10    -0.369334156902E+02    0.39700E-02   -0.24621E-03  1356   0.329E-01    0.687E-02
DAV:  11    -0.369324286524E+02    0.98704E-03   -0.46856E-04  1292   0.151E-01    0.553E-02
DAV:  12    -0.369294746196E+02    0.29540E-02   -0.16381E-03  1208   0.236E-01    0.102E-01
DAV:  13    -0.369275911928E+02    0.18834E-02   -0.58908E-04  1316   0.167E-01    0.398E-02
DAV:  14    -0.369286418717E+02   -0.10507E-02   -0.31598E-04  1312   0.137E-01    0.381E-02
DAV:  15    -0.369290472546E+02   -0.40538E-03   -0.34104E-05  1340   0.538E-02    0.156E-02
DAV:  16    -0.369298555957E+02   -0.80834E-03   -0.12582E-04  1268   0.598E-02    0.153E-02
DAV:  17    -0.369299474077E+02   -0.91812E-04   -0.10599E-05  1320   0.290E-02    0.535E-03
DAV:  18    -0.369299633076E+02   -0.15900E-04   -0.18915E-06  1308   0.159E-02    0.198E-03
DAV:  19    -0.369299672442E+02   -0.39366E-05   -0.47013E-07  1344   0.611E-03    0.616E-04
DAV:  20    -0.369299682155E+02   -0.97130E-06   -0.93105E-08  1348   0.232E-03    0.334E-04
DAV:  21    -0.369299684356E+02   -0.22018E-06   -0.12305E-08  1064   0.764E-04    0.120E-04
DAV:  22    -0.369299684951E+02   -0.59491E-07   -0.20102E-09   964   0.309E-04    0.576E-05
DAV:  23    -0.369299685562E+02   -0.61093E-07   -0.29031E-09   916   0.263E-04    0.306E-05
DAV:  24    -0.369299685720E+02   -0.15753E-07   -0.46035E-10   872   0.125E-04    0.749E-06
DAV:  25    -0.369299685807E+02   -0.86777E-08   -0.16338E-10   908   0.672E-05
   1 F= -.36929969E+02 E0= -.36929966E+02  d E =-.369300E+02
 curvature:   0.00 expect dE= 0.000E+00 dE for cont linesearch  0.000E+00
 trial: gam= 0.00000 g(F)=  0.141E-06 g(S)=  0.000E+00 ort = 0.000E+00 (trialstep = 0.100E+01)
 search vector abs. value=  0.141E-06
 bond charge predicted
       N       E                     dE             d eps       ncg     rms          rms(c)
DAV:   1    -0.369299687222E+02   -0.15025E-06   -0.18180E-05  1272   0.373E-02    0.756E-04
DAV:   2    -0.369299687293E+02   -0.70625E-08   -0.21662E-07  1308   0.446E-03    0.525E-04
DAV:   3    -0.369299687252E+02    0.40948E-08   -0.20092E-08  1016   0.151E-03    0.102E-04
DAV:   4    -0.369299687259E+02   -0.68530E-09   -0.62381E-09   904   0.656E-04    0.464E-05
DAV:   5    -0.369299687260E+02   -0.89813E-10   -0.90452E-10   932   0.283E-04
   2 F= -.36929969E+02 E0= -.36929966E+02  d E =-.145317E-06
 ZBRENT: can't locate minimum, use default step
 trial-energy change:   -0.000000  1 .order   -0.000000   -0.000000   -0.000000
 step:   4.0000(harm= 73.4683)  dis= 0.00000  next Energy=   -36.929974 (dE=-0.517E-05)
 bond charge predicted
       N       E                     dE             d eps       ncg     rms          rms(c)
DAV:   1    -0.369299691273E+02   -0.40144E-06   -0.16378E-04  1168   0.112E-01    0.228E-03
DAV:   2    -0.369299691756E+02   -0.48249E-07   -0.19067E-06  1312   0.133E-02    0.157E-03
DAV:   3    -0.369299691411E+02    0.34450E-07   -0.18802E-07  1372   0.447E-03    0.305E-04
DAV:   4    -0.369299691461E+02   -0.49988E-08   -0.53282E-08  1288   0.174E-03    0.150E-04
DAV:   5    -0.369299691465E+02   -0.41314E-09   -0.11584E-09   916   0.542E-04
   3 F= -.36929969E+02 E0= -.36929966E+02  d E =-.565877E-06
 curvature:  -2.98 expect dE=-0.398E-06 dE for cont linesearch -0.398E-06
 ZBRENT: increasing intervall
 opt :  10.0000  next Energy=   -36.929970 (dE=-0.138E-05)
 bond charge predicted
       N       E                     dE             d eps       ncg     rms          rms(c)
DAV:   1    -0.369299698746E+02   -0.72849E-06   -0.65490E-04  1160   0.223E-01    0.455E-03
DAV:   2    -0.369299701047E+02   -0.23012E-06   -0.78758E-06  1296   0.266E-02    0.315E-03
DAV:   3    -0.369299699644E+02    0.14033E-06   -0.73816E-07  1364   0.881E-03    0.661E-04
DAV:   4    -0.369299699846E+02   -0.20163E-07   -0.20343E-07  1320   0.342E-03    0.322E-04
DAV:   5    -0.369299699862E+02   -0.16134E-08   -0.46675E-09   964   0.114E-03
   4 F= -.36929970E+02 E0= -.36929967E+02  d E =-.140553E-05
 curvature:  -6.09 expect dE=-0.776E-06 dE for cont linesearch -0.776E-06
 ZBRENT: increasing intervall
 opt :  22.0000  next Energy=   -36.929972 (dE=-0.298E-05)
 bond charge predicted
       N       E                     dE             d eps       ncg     rms          rms(c)
DAV:   1    -0.369299711962E+02   -0.12116E-05   -0.26196E-03  1152   0.446E-01    0.910E-03
DAV:   2    -0.369299721441E+02   -0.94785E-06   -0.31660E-05  1280   0.531E-02    0.630E-03
DAV:   3    -0.369299715822E+02    0.56183E-06   -0.29661E-06  1380   0.176E-02    0.132E-03
DAV:   4    -0.369299716582E+02   -0.76009E-07   -0.81665E-07  1324   0.679E-03    0.647E-04
DAV:   5    -0.369299716644E+02   -0.61957E-08   -0.22115E-08  1240   0.219E-03
   5 F= -.36929972E+02 E0= -.36929969E+02  d E =-.308378E-05
 curvature: -12.32 expect dE=-0.145E-05 dE for cont linesearch -0.145E-05
 ZBRENT: increasing intervall
 opt :  46.0000  next Energy=   -36.929975 (dE=-0.606E-05)
 bond charge predicted
       N       E                     dE             d eps       ncg     rms          rms(c)
DAV:   1    -0.369299730460E+02   -0.13878E-05   -0.10476E-02  1152   0.886E-01    0.182E-02
DAV:   2    -0.369299769539E+02   -0.39079E-05   -0.12727E-04  1276   0.106E-01    0.126E-02
DAV:   3    -0.369299747070E+02    0.22469E-05   -0.11770E-05  1356   0.351E-02    0.269E-03
DAV:   4    -0.369299749972E+02   -0.29024E-06   -0.32340E-06  1316   0.133E-02    0.129E-03
DAV:   5    -0.369299750210E+02   -0.23723E-07   -0.89937E-08  1476   0.406E-03    0.729E-04
DAV:   6    -0.369299750293E+02   -0.82946E-08   -0.25318E-08  1348   0.224E-03
   6 F= -.36929975E+02 E0= -.36929972E+02  d E =-.644861E-05
 curvature: -25.19 expect dE=-0.285E-05 dE for cont linesearch -0.284E-05
 ZBRENT: increasing intervall
 opt :  94.0000  next Energy=   -36.929981 (dE=-0.124E-04)
 bond charge predicted
       N       E                     dE             d eps       ncg     rms          rms(c)
DAV:   1    -0.369299753709E+02   -0.34996E-06   -0.41903E-02  1152   0.179E+00    0.365E-02
DAV:   2    -0.369299895156E+02   -0.14145E-04   -0.49927E-04  1296   0.212E-01    0.252E-02
DAV:   3    -0.369299806034E+02    0.89121E-05   -0.47985E-05  1364   0.711E-02    0.506E-03
DAV:   4    -0.369299816605E+02   -0.10571E-05   -0.13360E-05  1320   0.268E-02    0.243E-03
DAV:   5    -0.369299817672E+02   -0.10669E-06   -0.39663E-07  1512   0.702E-03    0.118E-03
DAV:   6    -0.369299817681E+02   -0.83560E-09   -0.61871E-08  1356   0.384E-03
   7 F= -.36929982E+02 E0= -.36929979E+02  d E =-.131874E-04
 curvature: -52.43 expect dE=-0.492E-05 dE for cont linesearch -0.492E-05
 ZBRENT: increasing intervall
 opt : 190.0000  next Energy=   -36.929992 (dE=-0.231E-04)
 bond charge predicted
       N       E                     dE             d eps       ncg     rms          rms(c)
DAV:   1    -0.369299616565E+02    0.20111E-04   -0.16752E-01  1152   0.356E+00    0.725E-02
DAV:   2    -0.369300269362E+02   -0.65280E-04   -0.20623E-03  1280   0.422E-01    0.506E-02
DAV:   3    -0.369299906513E+02    0.36285E-04   -0.18954E-04  1368   0.142E-01    0.105E-02
DAV:   4    -0.369299948856E+02   -0.42343E-05   -0.52220E-05  1320   0.524E-02    0.486E-03
DAV:   5    -0.369299952198E+02   -0.33419E-06   -0.15142E-06  1520   0.109E-02    0.194E-03
DAV:   6    -0.369299952599E+02   -0.40099E-07   -0.12529E-07  1372   0.602E-03    0.102E-03
DAV:   7    -0.369299952562E+02    0.36850E-08   -0.55308E-08  1384   0.339E-03
   8 F= -.36929995E+02 E0= -.36929993E+02  d E =-.266755E-04
 curvature: ****** expect dE=-0.116E-04 dE for cont linesearch -0.116E-04
 ZBRENT: increasing intervall
 opt : 382.0000  next Energy=   -36.930021 (dE=-0.521E-04)
 bond charge predicted
       N       E                     dE             d eps       ncg     rms          rms(c)
DAV:   1    -0.369298402031E+02    0.15506E-03   -0.66916E-01  1152   0.714E+00    0.143E-01
DAV:   2    -0.369301555582E+02   -0.31536E-03   -0.86676E-03  1292   0.827E-01    0.102E-01
DAV:   3    -0.369300049920E+02    0.15057E-03   -0.76153E-04  1424   0.271E-01    0.205E-02
DAV:   4    -0.369300213676E+02   -0.16376E-04   -0.21807E-04  1272   0.103E-01    0.989E-03
DAV:   5    -0.369300225382E+02   -0.11706E-05   -0.59634E-06  1496   0.255E-02    0.601E-03
DAV:   6    -0.369300223369E+02    0.20125E-06   -0.11847E-06  1360   0.125E-02    0.158E-03
DAV:   7    -0.369300222922E+02    0.44771E-07   -0.43255E-07  1380   0.576E-03    0.757E-04
DAV:   8    -0.369300221790E+02    0.11311E-06   -0.63470E-08  1436   0.225E-03    0.199E-04
DAV:   9    -0.369300222006E+02   -0.21512E-07   -0.85572E-09   980   0.824E-04    0.258E-04
DAV:  10    -0.369300224122E+02   -0.21167E-06   -0.12968E-08  1240   0.589E-04    0.865E-05
DAV:  11    -0.369300225689E+02   -0.15665E-06   -0.72571E-09  1140   0.377E-04    0.974E-05
DAV:  12    -0.369300227013E+02   -0.13246E-06   -0.10971E-08  1240   0.468E-04    0.435E-05
DAV:  13    -0.369300227353E+02   -0.33993E-07   -0.27780E-09   964   0.281E-04    0.311E-05
DAV:  14    -0.369300227192E+02    0.16131E-07   -0.36857E-09   980   0.239E-04    0.343E-05
DAV:  15    -0.369300227119E+02    0.72489E-08   -0.27677E-10  1024   0.983E-05
   9 F= -.36930023E+02 E0= -.36930020E+02  d E =-.541313E-04
 curvature: ****** expect dE=-0.335E-04 dE for cont linesearch -0.334E-04
 ZBRENT: increasing intervall
 opt : 766.0000  next Energy=   -36.930084 (dE=-0.116E-03)
 bond charge predicted
       N       E                     dE             d eps       ncg     rms          rms(c)
DAV:   1    -0.369292003106E+02    0.82241E-03   -0.26732E+00  1152   0.143E+01    0.285E-01
DAV:   2    -0.369306154767E+02   -0.14152E-02   -0.35943E-02  1304   0.157E+00    0.205E-01
DAV:   3    -0.369300065622E+02    0.60891E-03   -0.28614E-03  1380   0.479E-01    0.479E-02
DAV:   4    -0.369300798194E+02   -0.73257E-04   -0.79487E-04  1268   0.174E-01    0.212E-02
DAV:   5    -0.369300756217E+02    0.41977E-05   -0.21128E-05  1576   0.452E-02    0.134E-02
DAV:   6    -0.369300760290E+02   -0.40727E-06   -0.69455E-06  1356   0.217E-02    0.273E-03
DAV:   7    -0.369300762472E+02   -0.21825E-06   -0.98345E-07  1392   0.890E-03    0.131E-03
DAV:   8    -0.369300760582E+02    0.18906E-06   -0.22922E-07  1380   0.401E-03    0.641E-04
DAV:   9    -0.369300762686E+02   -0.21043E-06   -0.25147E-08  1348   0.145E-03    0.424E-04
DAV:  10    -0.369300767821E+02   -0.51349E-06   -0.30963E-08  1232   0.105E-03    0.214E-04
DAV:  11    -0.369300772729E+02   -0.49084E-06   -0.36070E-08  1340   0.759E-04    0.204E-04
DAV:  12    -0.369300775045E+02   -0.23162E-06   -0.22461E-08  1340   0.774E-04    0.168E-04
DAV:  13    -0.369300775584E+02   -0.53829E-07   -0.61100E-09  1036   0.403E-04    0.139E-04
DAV:  14    -0.369300775402E+02    0.18157E-07   -0.35634E-09   968   0.301E-04    0.605E-05
DAV:  15    -0.369300775083E+02    0.31887E-07   -0.10964E-09   988   0.171E-04    0.503E-05
DAV:  16    -0.369300774764E+02    0.31958E-07   -0.48157E-10   964   0.105E-04    0.385E-05
DAV:  17    -0.369300774701E+02    0.62992E-08   -0.29193E-10   832   0.105E-04
  10 F= -.36930077E+02 E0= -.36930076E+02  d E =-.108889E-03
 curvature: ****** expect dE=-0.621E-04 dE for cont linesearch -0.620E-04
 ZBRENT: increasing intervall
 opt : ********  next Energy=   -36.930188 (dE=-0.219E-03)
 bond charge predicted
       N       E                     dE             d eps       ncg     rms          rms(c)
DAV:   1    -0.369259098637E+02    0.41676E-02   -0.10657E+01  1152   0.285E+01    0.584E-01
DAV:   2    -0.369323688414E+02   -0.64590E-02   -0.15113E-01  1220   0.293E+00    0.414E-01
DAV:   3    -0.369300523303E+02    0.23165E-02   -0.92242E-03  1400   0.786E-01    0.155E-01
DAV:   4    -0.369302213487E+02   -0.16902E-03   -0.25418E-03  1372   0.337E-01    0.444E-02
DAV:   5    -0.369301807634E+02    0.40585E-04   -0.10899E-04  1444   0.103E-01    0.260E-02
DAV:   6    -0.369301822676E+02   -0.15042E-05   -0.37388E-05  1356   0.483E-02    0.661E-03
DAV:   7    -0.369301827919E+02   -0.52436E-06   -0.29999E-06  1396   0.151E-02    0.243E-03
DAV:   8    -0.369301823569E+02    0.43506E-06   -0.59638E-07  1380   0.634E-03    0.861E-04
DAV:   9    -0.369301830447E+02   -0.68787E-06   -0.91905E-08  1484   0.248E-03    0.803E-04
DAV:  10    -0.369301851995E+02   -0.21547E-05   -0.23692E-07  1244   0.253E-03    0.493E-04
DAV:  11    -0.369301858139E+02   -0.61439E-06   -0.33521E-08  1380   0.149E-03    0.342E-04
DAV:  12    -0.369301866807E+02   -0.86682E-06   -0.14707E-07  1352   0.181E-03    0.267E-04
DAV:  13    -0.369301867485E+02   -0.67818E-07   -0.50088E-09  1036   0.553E-04    0.150E-04
DAV:  14    -0.369301867670E+02   -0.18519E-07   -0.21807E-08  1300   0.647E-04    0.147E-04
DAV:  15    -0.369301866775E+02    0.89514E-07   -0.58677E-09   988   0.481E-04    0.162E-04
DAV:  16    -0.369301866333E+02    0.44153E-07   -0.34252E-09   964   0.359E-04    0.794E-05
DAV:  17    -0.369301866201E+02    0.13245E-07   -0.16423E-09   860   0.182E-04    0.272E-05
DAV:  18    -0.369301866099E+02    0.10217E-07   -0.34455E-10   908   0.996E-05    0.274E-05
DAV:  19    -0.369301866183E+02   -0.84206E-08   -0.14370E-09   892   0.166E-04
  11 F= -.36930187E+02 E0= -.36930186E+02  d E =-.218038E-03
 curvature: ****** expect dE=-0.110E-03 dE for cont linesearch -0.110E-03
 ZBRENT: increasing intervall
 opt : ********  next Energy=   -36.930406 (dE=-0.437E-03)
 bond charge predicted
       N       E                     dE             d eps       ncg     rms          rms(c)
DAV:   1    -0.369031837536E+02    0.27003E-01   -0.42095E+01  1152   0.566E+01    0.135E+00
DAV:   2    -0.369394155150E+02   -0.36232E-01   -0.70391E-01  1184   0.599E+00    0.875E-01
DAV:   3    -0.369322444343E+02    0.71711E-02   -0.30132E-02  1444   0.128E+00    0.517E-01
DAV:   4    -0.369302619805E+02    0.19825E-02   -0.87085E-03  1392   0.860E-01    0.973E-02
DAV:   5    -0.369304043821E+02   -0.14240E-03   -0.22038E-03  1360   0.288E-01    0.389E-02
DAV:   6    -0.369303906542E+02    0.13728E-04   -0.12881E-04  1456   0.998E-02    0.105E-02
DAV:   7    -0.369303872666E+02    0.33876E-05   -0.17872E-05  1384   0.368E-02    0.408E-03
DAV:   8    -0.369303889118E+02   -0.16453E-05   -0.10210E-06  1420   0.117E-02    0.194E-03
DAV:   9    -0.369303939781E+02   -0.50663E-05   -0.10826E-06  1352   0.752E-03    0.186E-03
DAV:  10    -0.369303972553E+02   -0.32772E-05   -0.25759E-07  1328   0.303E-03    0.138E-03
DAV:  11    -0.369304013013E+02   -0.40460E-05   -0.49135E-07  1240   0.377E-03    0.830E-04
DAV:  12    -0.369304028307E+02   -0.15293E-05   -0.22025E-07  1384   0.213E-03    0.386E-04
DAV:  13    -0.369304032741E+02   -0.44348E-06   -0.76607E-08  1376   0.136E-03    0.283E-04
DAV:  14    -0.369304031837E+02    0.90435E-07   -0.55929E-08  1372   0.108E-03    0.392E-04
DAV:  15    -0.369304031123E+02    0.71360E-07   -0.14195E-08  1320   0.578E-04    0.960E-05
DAV:  16    -0.369304030066E+02    0.10578E-06   -0.99345E-09  1232   0.498E-04    0.145E-04
DAV:  17    -0.369304029882E+02    0.18397E-07   -0.30373E-09   884   0.304E-04    0.364E-05
DAV:  18    -0.369304029917E+02   -0.35609E-08   -0.28201E-09   888   0.251E-04
  12 F= -.36930403E+02 E0= -.36930403E+02  d E =-.434411E-03
 curvature: ****** expect dE=-0.209E-03 dE for cont linesearch -0.209E-03
 ZBRENT: increasing intervall
 opt : ********  next Energy=   -36.930819 (dE=-0.851E-03)
 bond charge predicted
       N       E                     dE             d eps       ncg     rms          rms(c)
DAV:   1    -0.366783546729E+02    0.25205E+00   -0.16012E+02  1152   0.110E+02    0.493E+00
DAV:   2    -0.369696296909E+02   -0.29128E+00   -0.42047E+00  1160   0.141E+01    0.241E+00
DAV:   3    -0.369464234590E+02    0.23206E-01   -0.12995E-01  1580   0.245E+00    0.175E+00
DAV:   4    -0.369304181504E+02    0.16005E-01   -0.52222E-02  1412   0.177E+00    0.290E-01
DAV:   5    -0.369309191165E+02   -0.50097E-03   -0.10662E-02  1336   0.650E-01    0.760E-02
DAV:   6    -0.369307895311E+02    0.12959E-03   -0.66344E-04  1384   0.233E-01    0.312E-02
DAV:   7    -0.369307701855E+02    0.19346E-04   -0.93450E-05  1368   0.101E-01    0.156E-02
DAV:   8    -0.369307456955E+02    0.24490E-04   -0.36315E-05  1364   0.492E-02    0.963E-03
DAV:   9    -0.369307520634E+02   -0.63679E-05   -0.53943E-06  1444   0.280E-02    0.259E-03
DAV:  10    -0.369307676339E+02   -0.15570E-04   -0.58803E-06  1284   0.207E-02    0.559E-03
DAV:  11    -0.369307758149E+02   -0.81810E-05   -0.86033E-07  1320   0.101E-02    0.200E-03
DAV:  12    -0.369307838208E+02   -0.80059E-05   -0.16693E-06  1248   0.160E-02    0.304E-03
DAV:  13    -0.369307848970E+02   -0.10762E-05   -0.41557E-07  1352   0.880E-03    0.595E-04
DAV:  14    -0.369307858431E+02   -0.94611E-06   -0.62528E-07  1316   0.599E-03    0.135E-03
DAV:  15    -0.369307858285E+02    0.14692E-07   -0.66831E-08  1412   0.234E-03    0.687E-04
DAV:  16    -0.369307852681E+02    0.56039E-06   -0.88279E-08  1368   0.196E-03    0.112E-03
DAV:  17    -0.369307852604E+02    0.76307E-08   -0.71690E-08  1364   0.266E-03
  13 F= -.36930785E+02 E0= -.36930785E+02  d E =-.816680E-03
 curvature: ****** expect dE=-0.249E-03 dE for cont linesearch -0.249E-03
 ZBRENT: increasing intervall
 opt : ********  next Energy=   -36.931252 (dE=-0.128E-02)
 bond charge predicted
       N       E                     dE             d eps       ncg     rms          rms(c)
DAV:   1    -0.345296513634E+02    0.24011E+01   -0.52679E+02  1152   0.192E+02    0.210E+01
DAV:   2    -0.370783777366E+02   -0.25487E+01   -0.29605E+01  1216   0.355E+01    0.867E+00
DAV:   3    -0.370157169821E+02    0.62661E-01   -0.74881E-01  1436   0.537E+00    0.654E+00
DAV:   4    -0.369300667251E+02    0.85650E-01   -0.31000E-01  1372   0.370E+00    0.894E-01
DAV:   5    -0.369316936242E+02   -0.16269E-02   -0.28493E-02  1332   0.107E+00    0.327E-01
DAV:   6    -0.369307154355E+02    0.97819E-03   -0.36789E-03  1424   0.548E-01    0.140E-01
DAV:   7    -0.369307357650E+02   -0.20329E-04   -0.59003E-04  1308   0.194E-01    0.314E-02
DAV:   8    -0.369306970781E+02    0.38687E-04   -0.57791E-05  1456   0.962E-02    0.147E-02
DAV:   9    -0.369307051941E+02   -0.81160E-05   -0.29811E-05  1364   0.519E-02    0.870E-03
DAV:  10    -0.369307423807E+02   -0.37187E-04   -0.95457E-06  1360   0.227E-02    0.342E-03
DAV:  11    -0.369307613712E+02   -0.18990E-04   -0.43994E-06  1308   0.127E-02    0.608E-03
DAV:  12    -0.369307807491E+02   -0.19378E-04   -0.38304E-06  1288   0.204E-02    0.213E-03
DAV:  13    -0.369307844452E+02   -0.36961E-05   -0.11803E-06  1356   0.937E-03    0.256E-03
DAV:  14    -0.369307858608E+02   -0.14156E-05   -0.19176E-06  1352   0.135E-02    0.230E-03
DAV:  15    -0.369307855981E+02    0.26263E-06   -0.16418E-07  1432   0.823E-03    0.106E-03
DAV:  16    -0.369307862130E+02   -0.61482E-06   -0.26039E-07  1364   0.596E-03    0.728E-04
DAV:  17    -0.369307860323E+02    0.18066E-06   -0.85590E-08  1376   0.245E-03    0.349E-04
DAV:  18    -0.369307864312E+02   -0.39890E-06   -0.74035E-08  1340   0.202E-03    0.607E-04
DAV:  19    -0.369307863730E+02    0.58230E-07   -0.83404E-09  1036   0.241E-03    0.225E-04
DAV:  20    -0.369307863811E+02   -0.80859E-08   -0.50704E-08  1304   0.167E-03
  14 F= -.36930786E+02 E0= -.36930786E+02  d E =-.817800E-03
 curvature: ****** expect dE=-0.126E-02 dE for cont linesearch -0.126E-02
 ZBRENT: bracketing found
 ZBRENT: interpolating
 opt : ********  next Energy=   -36.930910 (dE=-0.942E-03)
 bond charge predicted
       N       E                     dE             d eps       ncg     rms          rms(c)
DAV:   1    -0.364296233443E+02    0.50116E+00   -0.23873E+02  1152   0.133E+02    0.818E+00
DAV:   2    -0.369951562023E+02   -0.56553E+00   -0.76636E+00  1224   0.192E+01    0.375E+00
DAV:   3    -0.369573099097E+02    0.37846E-01   -0.18149E-01  1468   0.298E+00    0.269E+00
DAV:   4    -0.369303926700E+02    0.26917E-01   -0.86651E-02  1340   0.225E+00    0.461E-01
DAV:   5    -0.369312928792E+02   -0.90021E-03   -0.16388E-02  1376   0.787E-01    0.128E-01
DAV:   6    -0.369309970808E+02    0.29580E-03   -0.11207E-03  1452   0.322E-01    0.534E-02
DAV:   7    -0.369309737280E+02    0.23353E-04   -0.18249E-04  1292   0.130E-01    0.183E-02
DAV:   8    -0.369309551144E+02    0.18614E-04   -0.45472E-05  1380   0.591E-02    0.936E-03
DAV:   9    -0.369309451963E+02    0.99181E-05   -0.92708E-06  1408   0.329E-02    0.355E-03
DAV:  10    -0.369309404513E+02    0.47450E-05   -0.40293E-06  1376   0.287E-02    0.480E-03
DAV:  11    -0.369309423898E+02   -0.19385E-05   -0.14424E-06  1384   0.115E-02    0.418E-03
DAV:  12    -0.369309488408E+02   -0.64510E-05   -0.41942E-06  1240   0.246E-02    0.404E-03
DAV:  13    -0.369309486989E+02    0.14192E-06   -0.14795E-06  1328   0.102E-02    0.476E-03
DAV:  14    -0.369309533959E+02   -0.46970E-05   -0.59219E-07  1388   0.969E-03    0.690E-04
DAV:  15    -0.369309600309E+02   -0.66350E-05   -0.60922E-07  1648   0.143E-02    0.397E-03
DAV:  16    -0.369309630669E+02   -0.30360E-05   -0.42178E-07  1384   0.727E-03    0.119E-03
DAV:  17    -0.369309655818E+02   -0.25148E-05   -0.35305E-07  1368   0.560E-03    0.109E-03
DAV:  18    -0.369309671549E+02   -0.15731E-05   -0.62005E-08  1304   0.197E-03    0.316E-04
DAV:  19    -0.369309685184E+02   -0.13635E-05   -0.31491E-08  1328   0.104E-03    0.427E-04
DAV:  20    -0.369309693009E+02   -0.78253E-06   -0.21150E-08  1280   0.828E-04    0.281E-04
DAV:  21    -0.369309697314E+02   -0.43047E-06   -0.60360E-09   980   0.130E-03    0.730E-05
DAV:  22    -0.369309700294E+02   -0.29806E-06   -0.50811E-09  1004   0.120E-03    0.467E-04
DAV:  23    -0.369309701472E+02   -0.11776E-06   -0.56870E-09   952   0.672E-04    0.147E-04
DAV:  24    -0.369309701916E+02   -0.44394E-07   -0.54060E-09   928   0.659E-04    0.109E-04
DAV:  25    -0.369309702137E+02   -0.22089E-07   -0.11678E-09   920   0.484E-04    0.932E-05
DAV:  26    -0.369309702137E+02    0.35698E-10   -0.23618E-10  1000   0.177E-04
  15 F= -.36930970E+02 E0= -.36930970E+02  d E =-.100163E-02
 curvature: ****** expect dE=-0.900E-05 dE for cont linesearch -0.899E-05
 ZBRENT: interpolating
 opt : ********  next Energy=   -36.931012 (dE=-0.104E-02)
 bond charge predicted
       N       E                     dE             d eps       ncg     rms          rms(c)
DAV:   1    -0.369087005103E+02    0.22270E-01   -0.37436E+01  1152   0.534E+01    0.125E+00
DAV:   2    -0.369390032805E+02   -0.30303E-01   -0.60768E-01  1160   0.589E+00    0.813E-01
DAV:   3    -0.369323250637E+02    0.66782E-02   -0.26230E-02  1492   0.124E+00    0.463E-01
DAV:   4    -0.369308807535E+02    0.14443E-02   -0.83433E-03  1472   0.754E-01    0.774E-02
DAV:   5    -0.369309895582E+02   -0.10880E-03   -0.14664E-03  1292   0.288E-01    0.221E-02
DAV:   6    -0.369309846755E+02    0.48827E-05   -0.81609E-05  1504   0.782E-02    0.124E-02
DAV:   7    -0.369309829819E+02    0.16936E-05   -0.78579E-06  1388   0.319E-02    0.408E-03
DAV:   8    -0.369309861858E+02   -0.32040E-05   -0.13358E-06  1376   0.121E-02    0.123E-03
DAV:   9    -0.369309888868E+02   -0.27010E-05   -0.30151E-07  1364   0.468E-03    0.101E-03
DAV:  10    -0.369309932343E+02   -0.43475E-05   -0.39693E-07  1308   0.344E-03    0.727E-04
DAV:  11    -0.369309961622E+02   -0.29280E-05   -0.34986E-07  1264   0.300E-03    0.321E-04
DAV:  12    -0.369309974260E+02   -0.12638E-05   -0.18700E-07  1320   0.233E-03    0.307E-04
DAV:  13    -0.369309977811E+02   -0.35506E-06   -0.79357E-08  1376   0.126E-03    0.219E-04
DAV:  14    -0.369309977424E+02    0.38674E-07   -0.31853E-08  1396   0.868E-04    0.214E-04
DAV:  15    -0.369309976935E+02    0.48924E-07   -0.59603E-09  1016   0.412E-04    0.127E-04
DAV:  16    -0.369309976559E+02    0.37648E-07   -0.15230E-08  1292   0.724E-04    0.169E-04
DAV:  17    -0.369309976458E+02    0.10024E-07   -0.47364E-09   892   0.548E-04    0.125E-04
DAV:  18    -0.369309976471E+02   -0.12319E-08   -0.85683E-10   920   0.208E-04
  16 F= -.36930998E+02 E0= -.36930998E+02  d E =-.102907E-02
 curvature: ****** expect dE=-0.345E-05 dE for cont linesearch -0.345E-05
 ZBRENT: interpolating
 opt : ********  next Energy=   -36.931000 (dE=-0.103E-02)
 bond charge predicted
       N       E                     dE             d eps       ncg     rms          rms(c)
DAV:   1    -0.369306336812E+02    0.36396E-03   -0.18984E+00  1152   0.120E+01    0.243E-01
DAV:   2    -0.369313660812E+02   -0.73240E-03   -0.23314E-02  1292   0.138E+00    0.171E-01
DAV:   3    -0.369309494277E+02    0.41665E-03   -0.20808E-03  1380   0.465E-01    0.331E-02
DAV:   4    -0.369309967264E+02   -0.47299E-04   -0.62732E-04  1300   0.180E-01    0.170E-02
DAV:   5    -0.369310007369E+02   -0.40105E-05   -0.17051E-05  1560   0.327E-02    0.639E-03
DAV:   6    -0.369309993702E+02    0.13667E-05   -0.46893E-06  1400   0.199E-02    0.109E-03
DAV:   7    -0.369309992801E+02    0.90061E-07   -0.31336E-07  1416   0.535E-03    0.339E-04
DAV:   8    -0.369309989420E+02    0.33815E-06   -0.64816E-08  1380   0.220E-03    0.442E-04
DAV:   9    -0.369309988934E+02    0.48622E-07   -0.10295E-08  1200   0.952E-04    0.152E-04
DAV:  10    -0.369309988519E+02    0.41464E-07   -0.15792E-08  1332   0.610E-04    0.133E-04
DAV:  11    -0.369309989232E+02   -0.71323E-07   -0.26305E-09   888   0.296E-04    0.131E-04
DAV:  12    -0.369309990818E+02   -0.15858E-06   -0.12317E-08  1232   0.525E-04    0.726E-05
DAV:  13    -0.369309992488E+02   -0.16698E-06   -0.22742E-09   960   0.314E-04    0.483E-05
DAV:  14    -0.369309993638E+02   -0.11497E-06   -0.34205E-09   984   0.268E-04    0.347E-05
DAV:  15    -0.369309994680E+02   -0.10425E-06   -0.11820E-09   988   0.187E-04    0.316E-05
DAV:  16    -0.369309994996E+02   -0.31599E-07   -0.25181E-10   860   0.949E-05    0.242E-05
DAV:  17    -0.369309995359E+02   -0.36266E-07   -0.52843E-10   888   0.108E-04    0.325E-05
DAV:  18    -0.369309995422E+02   -0.63249E-08   -0.48151E-11   976   0.453E-05
  17 F= -.36931000E+02 E0= -.36931000E+02  d E =-.103096E-02
 curvature: ****** expect dE=-0.509E-07 dE for cont linesearch -0.509E-07
 trial: gam=-0.01451 g(F)=  0.305E-10 g(S)=  0.000E+00 ort = 0.207E-08 (trialstep = 0.192E+04)
 search vector abs. value=  0.100E-09
 reached required accuracy - stopping structural energy minimisation
