 running on   36 total cores
 distrk:  each k-point on   36 cores,    1 groups
 distr:  one band on    6 cores,    6 groups
 using from now: INCAR     
 vasp.5.4.4.18Apr17-6-g9f103f2a35 (build May 31 2018 21:15:54) complex          
  
 POSCAR found type information on POSCAR  C 
 POSCAR found :  1 types and       2 ions
 scaLAPACK will be used

 ----------------------------------------------------------------------------- 
|                                                                             |
|  ADVICE TO THIS USER RUNNING 'VASP/VAMP'   (HEAR YOUR MASTER'S VOICE ...):  |
|                                                                             |
|      You have switched on vdW-DFT.                                          |
|      This routine was written and supplied by Jiri Klimes.                  |
|      We recommed that you carefully read and cite the following             |
|      publication                                                            |
|      J. Klimes, D.R. Bowler, A. Michelides                                  |
|        J. Phys.: Cond Matt. 22 022201 (2010)                                |
|      J. Klimes, D.R. Bowler, A. Michelides                                  |
|        Phys. Rev. B. 83, 195131 (2011)                                      |
|      and references therein.                                                |
|                                                                             |
 ----------------------------------------------------------------------------- 

 LDA part: xc-table for Pade appr. of Perdew
 POSCAR, INCAR and KPOINTS ok, starting setup
 FFT: planning ...
 WAVECAR not read
 entering main loop
       N       E                     dE             d eps       ncg     rms          rms(c)
Total rVV10 correction in eV:      0.1615702     8.0925840
DAV:   1     0.427462317184E+02    0.42746E+02   -0.38555E+03  1152   0.692E+02
DAV:   2    -0.200672860334E+02   -0.62814E+02   -0.55460E+02  1500   0.954E+01
DAV:   3    -0.231016360192E+02   -0.30343E+01   -0.30343E+01  1668   0.307E+01
DAV:   4    -0.231163484326E+02   -0.14712E-01   -0.14712E-01  1716   0.236E+00
DAV:   5    -0.231163826350E+02   -0.34202E-04   -0.34202E-04  1680   0.830E-02    0.602E+00
Total rVV10 correction in eV:      0.1636637     8.0926091
DAV:   6    -0.202212851625E+02    0.28951E+01   -0.73454E-01  1752   0.596E+00    0.421E+00
Total rVV10 correction in eV:      0.1683601     8.0925840
DAV:   7    -0.199967445044E+02    0.22454E+00   -0.11342E+00  1896   0.604E+00    0.103E+00
Total rVV10 correction in eV:      0.1691661     8.0925840
DAV:   8    -0.200000559218E+02   -0.33114E-02   -0.13308E-02  1428   0.110E+00    0.529E-01
Total rVV10 correction in eV:      0.1708379     8.0925840
DAV:   9    -0.199989452033E+02    0.11107E-02   -0.10281E-02  1488   0.855E-01    0.124E-01
Total rVV10 correction in eV:      0.1714749     8.0925840
DAV:  10    -0.199980756123E+02    0.86959E-03   -0.13787E-03  1488   0.266E-01    0.877E-02
Total rVV10 correction in eV:      0.1726841     8.0943804
DAV:  11    -0.199937089082E+02    0.43667E-02   -0.33864E-03  1320   0.306E-01    0.697E-02
Total rVV10 correction in eV:      0.1727625     8.0974936
DAV:  12    -0.199941553451E+02   -0.44644E-03   -0.12980E-03  1332   0.232E-01    0.321E-02
Total rVV10 correction in eV:      0.1726891     8.0964088
DAV:  13    -0.199958154032E+02   -0.16601E-02   -0.10942E-03  1332   0.201E-01    0.341E-02
Total rVV10 correction in eV:      0.1727333     8.0964385
DAV:  14    -0.199956007897E+02    0.21461E-03   -0.44809E-04  1428   0.156E-01    0.190E-02
Total rVV10 correction in eV:      0.1729181     8.0945713
DAV:  15    -0.199960608750E+02   -0.46009E-03   -0.26465E-04  1176   0.996E-02    0.504E-02
Total rVV10 correction in eV:      0.1728202     8.0937757
DAV:  16    -0.199961947745E+02   -0.13390E-03   -0.40167E-05  1368   0.396E-02    0.856E-03
Total rVV10 correction in eV:      0.1728966     8.0930318
DAV:  17    -0.199963870790E+02   -0.19230E-03   -0.25136E-05  1272   0.437E-02    0.435E-03
Total rVV10 correction in eV:      0.1729347     8.0927260
DAV:  18    -0.199964698976E+02   -0.82819E-04   -0.31838E-06  1356   0.180E-02    0.206E-03
Total rVV10 correction in eV:      0.1729574     8.0926085
DAV:  19    -0.199964884102E+02   -0.18513E-04   -0.34714E-06  1212   0.119E-02    0.241E-04
Total rVV10 correction in eV:      0.1729611     8.0925941
DAV:  20    -0.199964907655E+02   -0.23553E-05   -0.40378E-07  1212   0.321E-03    0.124E-04
Total rVV10 correction in eV:      0.1729627     8.0925850
DAV:  21    -0.199964923048E+02   -0.15393E-05   -0.10092E-07  1308   0.199E-03    0.310E-05
Total rVV10 correction in eV:      0.1729625     8.0925845
DAV:  22    -0.199964923696E+02   -0.64778E-07   -0.41658E-09  1524   0.732E-04    0.146E-05
Total rVV10 correction in eV:      0.1729625     8.0925841
DAV:  23    -0.199964924033E+02   -0.33664E-07   -0.37936E-09  1356   0.729E-04    0.252E-06
Total rVV10 correction in eV:      0.1729625     8.0925841
DAV:  24    -0.199964924016E+02    0.16378E-08   -0.13813E-09  1404   0.443E-04
Total rVV10 correction in eV:      0.1729625     8.0925841
Total rVV10 correction in eV:      0.1729625     8.0925841
   1 F= -.19996492E+02 E0= -.19996467E+02  d E =-.511736E-04
