nqpoint: 303    
npath: 3      
segment_nqpoint:
- 101
- 101
- 101
reciprocal_lattice:
- [   0.23474178,  -0.40658472,   0.00000000 ] # a*
- [   0.23474178,   0.40658472,   0.00000000 ] # b*
- [   0.00000000,   0.00000000,   0.05000000 ] # c*
natom: 4      
lattice:
- [     2.130000000000000,    -1.229756000000000,     0.000000000000000 ] # a
- [     2.130000000000000,     1.229756000000000,     0.000000000000000 ] # b
- [     0.000000000000000,     0.000000000000000,    20.000000000000000 ] # c
points:
- symbol: C  # 1
  coordinates: [  0.000000000000000,  0.000000000000000,  0.000000000000000 ]
  mass: 12.010700
- symbol: C  # 2
  coordinates: [  0.333333000000000,  0.333333000000000,  0.000000000000000 ]
  mass: 12.010700
- symbol: C  # 3
  coordinates: [  0.000000000000000,  0.000000000000000,  0.221934000000000 ]
  mass: 12.010700
- symbol: C  # 4
  coordinates: [  0.333333000000000,  0.333333000000000,  0.221934000000000 ]
  mass: 12.010700
supercell_matrix:
- [    9,    0,    0 ]
- [    0,    9,    0 ]
- [    0,    0,    1 ]

phonon:
- q-position: [    0.0000000,    0.0000000,    0.0000000 ]
  distance:    0.0000000
  band:
  - # 1
    frequency:   -0.1997621626
  - # 2
    frequency:   -0.1997621471
  - # 3
    frequency:   -0.0043169025
  - # 4
    frequency:   -0.0043169022
  - # 5
    frequency:   -0.0000003804
  - # 6
    frequency:    0.5793629719
  - # 7
    frequency:   26.1457265127
  - # 8
    frequency:   26.1489457941
  - # 9
    frequency:   47.0272695732
  - # 10
    frequency:   47.0272732182
  - # 11
    frequency:   47.4575239698
  - # 12
    frequency:   47.4575276481

- q-position: [    0.0050000,    0.0050000,    0.0000000 ]
  distance:    0.0023474
  band:
  - # 1
    frequency:   -0.0655570162
  - # 2
    frequency:    0.2357884294
  - # 3
    frequency:    0.3081105547
  - # 4
    frequency:    0.4743658307
  - # 5
    frequency:    0.5134334642
  - # 6
    frequency:    0.5758500433
  - # 7
    frequency:   26.1453678286
  - # 8
    frequency:   26.1485851686
  - # 9
    frequency:   47.0267340704
  - # 10
    frequency:   47.0281461039
  - # 11
    frequency:   47.4567617770
  - # 12
    frequency:   47.4581724943

- q-position: [    0.0100000,    0.0100000,    0.0000000 ]
  distance:    0.0046948
  band:
  - # 1
    frequency:   -0.1303670735
  - # 2
    frequency:    0.5645045056
  - # 3
    frequency:    0.5847817397
  - # 4
    frequency:    0.6161640505
  - # 5
    frequency:    1.0096887324
  - # 6
    frequency:    1.0272017852
  - # 7
    frequency:   26.1442902210
  - # 8
    frequency:   26.1475017388
  - # 9
    frequency:   47.0251156666
  - # 10
    frequency:   47.0307708632
  - # 11
    frequency:   47.4544637683
  - # 12
    frequency:   47.4601138334

- q-position: [    0.0150000,    0.0150000,    0.0000000 ]
  distance:    0.0070423
  band:
  - # 1
    frequency:   -0.1947783013
  - # 2
    frequency:    0.5456900028
  - # 3
    frequency:    0.9048903234
  - # 4
    frequency:    0.9240027615
  - # 5
    frequency:    1.5306423558
  - # 6
    frequency:    1.5405343253
  - # 7
    frequency:   26.1424890287
  - # 8
    frequency:   26.1456908496
  - # 9
    frequency:   47.0224126844
  - # 10
    frequency:   47.0351318174
  - # 11
    frequency:   47.4506299693
  - # 12
    frequency:   47.4633377667

- q-position: [    0.0200000,    0.0200000,    0.0000000 ]
  distance:    0.0093897
  band:
  - # 1
    frequency:   -0.2584242801
  - # 2
    frequency:    0.5186474329
  - # 3
    frequency:    1.2188188399
  - # 4
    frequency:    1.2315322223
  - # 5
    frequency:    2.0479661993
  - # 6
    frequency:    2.0535847120
  - # 7
    frequency:   26.1399565006
  - # 8
    frequency:   26.1431447599
  - # 9
    frequency:   47.0186166917
  - # 10
    frequency:   47.0412085454
  - # 11
    frequency:   47.4452547284
  - # 12
    frequency:   47.4678268832

- q-position: [    0.0250000,    0.0250000,    0.0000000 ]
  distance:    0.0117371
  band:
  - # 1
    frequency:   -0.3210196079
  - # 2
    frequency:    0.4824952440
  - # 3
    frequency:    1.5300799475
  - # 4
    frequency:    1.5386523096
  - # 5
    frequency:    2.5635755482
  - # 6
    frequency:    2.5662493481
  - # 7
    frequency:   26.1366818207
  - # 8
    frequency:   26.1398526679
  - # 9
    frequency:   47.0137159439
  - # 10
    frequency:   47.0489725538
  - # 11
    frequency:   47.4383301794
  - # 12
    frequency:   47.4735568853

- q-position: [    0.0300000,    0.0300000,    0.0000000 ]
  distance:    0.0140845
  band:
  - # 1
    frequency:   -0.3822837153
  - # 2
    frequency:    0.4356692228
  - # 3
    frequency:    1.8397132496
  - # 4
    frequency:    1.8452624121
  - # 5
    frequency:    3.0780300948
  - # 6
    frequency:    3.0784308649
  - # 7
    frequency:   26.1326511442
  - # 8
    frequency:   26.1358007467
  - # 9
    frequency:   47.0076954443
  - # 10
    frequency:   47.0583873708
  - # 11
    frequency:   47.4298462884
  - # 12
    frequency:   47.4804966639

- q-position: [    0.0350000,    0.0350000,    0.0000000 ]
  distance:    0.0164319
  band:
  - # 1
    frequency:   -0.4419312174
  - # 2
    frequency:    0.3751737515
  - # 3
    frequency:    2.1480949254
  - # 4
    frequency:    2.1512622788
  - # 5
    frequency:    3.5900332500
  - # 6
    frequency:    3.5915109690
  - # 7
    frequency:   26.1278476426
  - # 8
    frequency:   26.1309721899
  - # 9
    frequency:   47.0005370218
  - # 10
    frequency:   47.0694086669
  - # 11
    frequency:   47.4197909134
  - # 12
    frequency:   47.4886083964

- q-position: [    0.0400000,    0.0400000,    0.0000000 ]
  distance:    0.0187793
  band:
  - # 1
    frequency:   -0.4996680766
  - # 2
    frequency:    0.2941384635
  - # 3
    frequency:    2.4553595823
  - # 4
    frequency:    2.4565523256
  - # 5
    frequency:    4.1009613389
  - # 6
    frequency:    4.1040591672
  - # 7
    frequency:   26.1222515594
  - # 8
    frequency:   26.1253472664
  - # 9
    frequency:   46.9922194239
  - # 10
    frequency:   47.0819844010
  - # 11
    frequency:   47.4081498764
  - # 12
    frequency:   47.4978476644

- q-position: [    0.0450000,    0.0450000,    0.0000000 ]
  distance:    0.0211268
  band:
  - # 1
    frequency:   -0.5551886539
  - # 2
    frequency:    0.1676171439
  - # 3
    frequency:    2.7610338208
  - # 4
    frequency:    2.7615366081
  - # 5
    frequency:    4.6111207737
  - # 6
    frequency:    4.6156542214
  - # 7
    frequency:   26.1158402739
  - # 8
    frequency:   26.1189033852
  - # 9
    frequency:   46.9827184269
  - # 10
    frequency:   47.0960549912
  - # 11
    frequency:   47.3949070479
  - # 12
    frequency:   47.5081635918

- q-position: [    0.0500000,    0.0500000,    0.0000000 ]
  distance:    0.0234742
  band:
  - # 1
    frequency:   -0.6081726690
  - # 2
    frequency:   -0.1827082079
  - # 3
    frequency:    3.0646090325
  - # 4
    frequency:    3.0666038515
  - # 5
    frequency:    5.1204180570
  - # 6
    frequency:    5.1262455388
  - # 7
    frequency:   26.1085883755
  - # 8
    frequency:   26.1116151685
  - # 9
    frequency:   46.9720069613
  - # 10
    frequency:   47.1115535088
  - # 11
    frequency:   47.3800444442
  - # 12
    frequency:   47.5194990017

- q-position: [    0.0550000,    0.0550000,    0.0000000 ]
  distance:    0.0258216
  band:
  - # 1
    frequency:   -0.6582816994
  - # 2
    frequency:   -0.3109078983
  - # 3
    frequency:    3.3671813618
  - # 4
    frequency:    3.3705118308
  - # 5
    frequency:    5.6287606314
  - # 6
    frequency:    5.6357666498
  - # 7
    frequency:   26.1004677453
  - # 8
    frequency:   26.1034545340
  - # 9
    frequency:   46.9600552517
  - # 10
    frequency:   47.1284058956
  - # 11
    frequency:   47.3635423355
  - # 12
    frequency:   47.5317905924

- q-position: [    0.0600000,    0.0600000,    0.0000000 ]
  distance:    0.0281690
  band:
  - # 1
    frequency:   -0.7051549526
  - # 2
    frequency:   -0.4004688181
  - # 3
    frequency:    3.6686554667
  - # 4
    frequency:    3.6731958147
  - # 5
    frequency:    6.1360569678
  - # 6
    frequency:    6.1441423670
  - # 7
    frequency:   26.0914476470
  - # 8
    frequency:   26.0943907853
  - # 9
    frequency:   46.9468309723
  - # 10
    frequency:   47.1465312015
  - # 11
    frequency:   47.3453793660
  - # 12
    frequency:   47.5449691304

- q-position: [    0.0650000,    0.0650000,    0.0000000 ]
  distance:    0.0305164
  band:
  - # 1
    frequency:   -0.7484040154
  - # 2
    frequency:   -0.4722554483
  - # 3
    frequency:    3.9689373824
  - # 4
    frequency:    3.9745823501
  - # 5
    frequency:    6.6422166552
  - # 6
    frequency:    6.6512926792
  - # 7
    frequency:   26.0814948251
  - # 8
    frequency:   26.0843907102
  - # 9
    frequency:   46.9322994152
  - # 10
    frequency:   47.1658418433
  - # 11
    frequency:   47.3255326850
  - # 12
    frequency:   47.5589596602

- q-position: [    0.0700000,    0.0700000,    0.0000000 ]
  distance:    0.0328638
  band:
  - # 1
    frequency:   -0.7876061906
  - # 2
    frequency:   -0.5319838984
  - # 3
    frequency:    4.2679346365
  - # 4
    frequency:    4.2745930302
  - # 5
    frequency:    7.1471504907
  - # 6
    frequency:    7.1571350161
  - # 7
    frequency:   26.0705736107
  - # 8
    frequency:   26.0734186859
  - # 9
    frequency:   46.9164236727
  - # 10
    frequency:   47.1862438813
  - # 11
    frequency:   47.3039780880
  - # 12
    frequency:   47.5736817293

- q-position: [    0.0750000,    0.0750000,    0.0000000 ]
  distance:    0.0352113
  band:
  - # 1
    frequency:   -0.8222958653
  - # 2
    frequency:   -0.5818953790
  - # 3
    frequency:    4.5655563608
  - # 4
    frequency:    4.5731467939
  - # 5
    frequency:    7.6507705671
  - # 6
    frequency:    7.6615856443
  - # 7
    frequency:   26.0586460342
  - # 8
    frequency:   26.0614367921
  - # 9
    frequency:   46.8991648318
  - # 10
    frequency:   47.2076373138
  - # 11
    frequency:   47.2806901681
  - # 12
    frequency:   47.5890496282

- q-position: [    0.0800000,    0.0800000,    0.0000000 ]
  distance:    0.0375587
  band:
  - # 1
    frequency:   -0.8519530956
  - # 2
    frequency:   -0.6228849753
  - # 3
    frequency:    4.8617133994
  - # 4
    frequency:    4.8701614020
  - # 5
    frequency:    8.1529903592
  - # 6
    frequency:    8.1645605730
  - # 7
    frequency:   26.0456719442
  - # 8
    frequency:   26.0484049296
  - # 9
    frequency:   46.8804821799
  - # 10
    frequency:   47.2299163867
  - # 11
    frequency:   47.2556424765
  - # 12
    frequency:   47.6049726434

- q-position: [    0.0850000,    0.0850000,    0.0000000 ]
  distance:    0.0399061
  band:
  - # 1
    frequency:   -0.8759881560
  - # 2
    frequency:   -0.6551549847
  - # 3
    frequency:    5.1563184121
  - # 4
    frequency:    5.1655544275
  - # 5
    frequency:    8.6537248073
  - # 6
    frequency:    8.6659761709
  - # 7
    frequency:   26.0316091329
  - # 8
    frequency:   26.0342809454
  - # 9
    frequency:   46.8603334220
  - # 10
    frequency:   47.2288076922
  - # 11
    frequency:   47.2529699179
  - # 12
    frequency:   47.6213553220

- q-position: [    0.0900000,    0.0900000,    0.0000000 ]
  distance:    0.0422535
  band:
  - # 1
    frequency:   -0.8937200882
  - # 2
    frequency:   -0.6784546702
  - # 3
    frequency:    5.4492859745
  - # 4
    frequency:    5.4592439487
  - # 5
    frequency:    9.1528903976
  - # 6
    frequency:    9.1657496050
  - # 7
    frequency:   26.0164134662
  - # 8
    frequency:   26.0190207625
  - # 9
    frequency:   46.8386749078
  - # 10
    frequency:   47.2001577993
  - # 11
    frequency:   47.2766816337
  - # 12
    frequency:   47.6380977480

- q-position: [    0.0950000,    0.0950000,    0.0000000 ]
  distance:    0.0446009
  band:
  - # 1
    frequency:   -0.9043460166
  - # 2
    frequency:   -0.6921561935
  - # 3
    frequency:    5.7405326730
  - # 4
    frequency:    5.7511490531
  - # 5
    frequency:    9.6504052398
  - # 6
    frequency:    9.6637991662
  - # 7
    frequency:   26.0000390188
  - # 8
    frequency:   26.0025785155
  - # 9
    frequency:   46.8154618679
  - # 10
    frequency:   47.1696642729
  - # 11
    frequency:   47.3009305168
  - # 12
    frequency:   47.6550958275

- q-position: [    0.1000000,    0.1000000,    0.0000000 ]
  distance:    0.0469484
  band:
  - # 1
    frequency:   -0.9068957042
  - # 2
    frequency:   -0.6952355615
  - # 3
    frequency:    6.0299771952
  - # 4
    frequency:    6.0411902155
  - # 5
    frequency:   10.1461891414
  - # 6
    frequency:   10.1600445190
  - # 7
    frequency:   25.9824382145
  - # 8
    frequency:   25.9849066898
  - # 9
    frequency:   46.7906486582
  - # 10
    frequency:   47.1372982707
  - # 11
    frequency:   47.3255911628
  - # 12
    frequency:   47.6722415826

- q-position: [    0.1050000,    0.1050000,    0.0000000 ]
  distance:    0.0492958
  band:
  - # 1
    frequency:   -0.9001613577
  - # 2
    frequency:   -0.6861618293
  - # 3
    frequency:    6.3175404150
  - # 4
    frequency:    6.3292895927
  - # 5
    frequency:   10.6401636780
  - # 6
    frequency:   10.6544068997
  - # 7
    frequency:   25.9635619687
  - # 8
    frequency:   25.9659562648
  - # 9
    frequency:   46.7641890123
  - # 10
    frequency:   47.1030308321
  - # 11
    frequency:   47.3505341452
  - # 12
    frequency:   47.6894234519

- q-position: [    0.1100000,    0.1100000,    0.0000000 ]
  distance:    0.0516432
  band:
  - # 1
    frequency:   -0.8825834506
  - # 2
    frequency:   -0.6626437008
  - # 3
    frequency:    6.6031454727
  - # 4
    frequency:    6.6153712569
  - # 5
    frequency:   11.1322522607
  - # 6
    frequency:   11.1468092782
  - # 7
    frequency:   25.9433598358
  - # 8
    frequency:   25.9456768606
  - # 9
    frequency:   46.7360362997
  - # 10
    frequency:   47.0668330823
  - # 11
    frequency:   47.3756263858
  - # 12
    frequency:   47.7065265973

- q-position: [    0.1150000,    0.1150000,    0.0000000 ]
  distance:    0.0539906
  band:
  - # 1
    frequency:   -0.8520524162
  - # 2
    frequency:   -0.6210736876
  - # 3
    frequency:    6.8867178488
  - # 4
    frequency:    6.8993613864
  - # 5
    frequency:   11.6223801984
  - # 6
    frequency:   11.6371764929
  - # 7
    frequency:   25.9217801587
  - # 8
    frequency:   25.9240168875
  - # 9
    frequency:   46.7061437901
  - # 10
    frequency:   47.0286764415
  - # 11
    frequency:   47.4007315302
  - # 12
    frequency:   47.7234332150

- q-position: [    0.1200000,    0.1200000,    0.0000000 ]
  distance:    0.0563380
  band:
  - # 1
    frequency:   -0.8055331729
  - # 2
    frequency:   -0.5551571432
  - # 3
    frequency:    7.1681854318
  - # 4
    frequency:    7.1811884228
  - # 5
    frequency:   12.1104747572
  - # 6
    frequency:   12.1254353644
  - # 7
    frequency:   25.8987702201
  - # 8
    frequency:   25.9009236973
  - # 9
    frequency:   46.6744649228
  - # 10
    frequency:   46.9885328390
  - # 11
    frequency:   47.4257103257
  - # 12
    frequency:   47.7400228497

- q-position: [    0.1250000,    0.1250000,    0.0000000 ]
  distance:    0.0586854
  band:
  - # 1
    frequency:   -0.7382639009
  - # 2
    frequency:   -0.4515599034
  - # 3
    frequency:    7.4474785798
  - # 4
    frequency:    7.4607832027
  - # 5
    frequency:   12.5964652150
  - # 6
    frequency:   12.6115147941
  - # 7
    frequency:   25.8742763970
  - # 8
    frequency:   25.8763437372
  - # 9
    frequency:   46.6409535791
  - # 10
    frequency:   46.9463749301
  - # 11
    frequency:   47.4504210005
  - # 12
    frequency:   47.7561727108

- q-position: [    0.1300000,    0.1300000,    0.0000000 ]
  distance:    0.0610329
  band:
  - # 1
    frequency:   -0.6417105703
  - # 2
    frequency:   -0.2649578291
  - # 3
    frequency:    7.7245301744
  - # 4
    frequency:    7.7380790682
  - # 5
    frequency:   13.0802829114
  - # 6
    frequency:   13.0953458484
  - # 7
    frequency:   25.8482443152
  - # 8
    frequency:   25.8502227047
  - # 9
    frequency:   46.6055643589
  - # 10
    frequency:   46.9021763167
  - # 11
    frequency:   47.4747196434
  - # 12
    frequency:   47.7717579894

- q-position: [    0.1350000,    0.1350000,    0.0000000 ]
  distance:    0.0633803
  band:
  - # 1
    frequency:   -0.4964432700
  - # 2
    frequency:    0.3092183434
  - # 3
    frequency:    7.9992756686
  - # 4
    frequency:    8.0130119595
  - # 5
    frequency:   13.5618612935
  - # 6
    frequency:   13.5768618320
  - # 7
    frequency:   25.8206190058
  - # 8
    frequency:   25.8225057034
  - # 9
    frequency:   46.5682528583
  - # 10
    frequency:   46.8559117706
  - # 11
    frequency:   47.4984605816
  - # 12
    frequency:   47.7866521757

- q-position: [    0.1400000,    0.1400000,    0.0000000 ]
  distance:    0.0657277
  band:
  - # 1
    frequency:   -0.2151081750
  - # 2
    frequency:    0.5443362484
  - # 3
    frequency:    8.2716531259
  - # 4
    frequency:    8.2855204913
  - # 5
    frequency:   14.0411359569
  - # 6
    frequency:   14.0559983514
  - # 7
    frequency:   25.7913450615
  - # 8
    frequency:   25.7931373999
  - # 9
    frequency:   46.5289759495
  - # 10
    frequency:   46.8075574573
  - # 11
    frequency:   47.5214967555
  - # 12
    frequency:   47.8007273734

- q-position: [    0.1450000,    0.1450000,    0.0000000 ]
  distance:    0.0680751
  band:
  - # 1
    frequency:    0.4376704049
  - # 2
    frequency:    0.7311975203
  - # 3
    frequency:    8.5416032519
  - # 4
    frequency:    8.5555460159
  - # 5
    frequency:   14.5180446815
  - # 6
    frequency:   14.5326933692
  - # 7
    frequency:   25.7603667942
  - # 8
    frequency:   25.7620621801
  - # 9
    frequency:   46.4876920607
  - # 10
    frequency:   46.7570911624
  - # 11
    frequency:   47.5436800895
  - # 12
    frequency:   47.8138546131

- q-position: [    0.1500000,    0.1500000,    0.0000000 ]
  distance:    0.0704225
  band:
  - # 1
    frequency:    0.6854602115
  - # 2
    frequency:    0.9019369865
  - # 3
    frequency:    8.8090694175
  - # 4
    frequency:    8.8230326719
  - # 5
    frequency:   14.9925274627
  - # 6
    frequency:   15.0068872498
  - # 7
    frequency:   25.7276283908
  - # 8
    frequency:   25.7292243062
  - # 9
    frequency:   46.4443614559
  - # 10
    frequency:   46.7044925171
  - # 11
    frequency:   47.5648618576
  - # 12
    frequency:   47.8259041615

- q-position: [    0.1550000,    0.1550000,    0.0000000 ]
  distance:    0.0727700
  band:
  - # 1
    frequency:    0.8896575049
  - # 2
    frequency:    1.0656849283
  - # 3
    frequency:    9.0739976732
  - # 4
    frequency:    9.0879274206
  - # 5
    frequency:   15.4645265375
  - # 6
    frequency:   15.4785227981
  - # 7
    frequency:   25.6930740708
  - # 8
    frequency:   25.6945680729
  - # 9
    frequency:   46.3989465138
  - # 10
    frequency:   46.6497432253
  - # 11
    frequency:   47.5848930421
  - # 12
    frequency:   47.8367458261

- q-position: [    0.1600000,    0.1600000,    0.0000000 ]
  distance:    0.0751174
  band:
  - # 1
    frequency:    1.0767287218
  - # 2
    frequency:    1.2264243752
  - # 3
    frequency:    9.3363367548
  - # 4
    frequency:    9.3501800699
  - # 5
    frequency:   15.9339864048
  - # 6
    frequency:   15.9475452893
  - # 7
    frequency:   25.6566482408
  - # 8
    frequency:   25.6580379632
  - # 9
    frequency:   46.3514120047
  - # 10
    frequency:   46.5928272878
  - # 11
    frequency:   47.6036246852
  - # 12
    frequency:   47.8462492542

- q-position: [    0.1650000,    0.1650000,    0.0000000 ]
  distance:    0.0774648
  band:
  - # 1
    frequency:    1.2555163278
  - # 2
    frequency:    1.3862503265
  - # 3
    frequency:    9.5960380784
  - # 4
    frequency:    9.6097432856
  - # 5
    frequency:   16.4008538415
  - # 6
    frequency:   16.4139024927
  - # 7
    frequency:   25.6182956503
  - # 8
    frequency:   25.6195788023
  - # 9
    frequency:   46.3017253653
  - # 10
    frequency:   46.5337312274
  - # 11
    frequency:   47.6209082316
  - # 12
    frequency:   47.8542842266

- q-position: [    0.1700000,    0.1700000,    0.0000000 ]
  distance:    0.0798122
  band:
  - # 1
    frequency:    1.4301517843
  - # 2
    frequency:    1.5463886463
  - # 3
    frequency:    9.8530557270
  - # 4
    frequency:    9.8665725903
  - # 5
    frequency:   16.8650779120
  - # 6
    frequency:   16.8775446873
  - # 7
    frequency:   25.5779615446
  - # 8
    frequency:   25.5791359122
  - # 9
    frequency:   46.2498569700
  - # 10
    frequency:   46.4724443105
  - # 11
    frequency:   47.6365958618
  - # 12
    frequency:   47.8607209431

- q-position: [    0.1750000,    0.1750000,    0.0000000 ]
  distance:    0.0821596
  band:
  - # 1
    frequency:    1.6029043705
  - # 2
    frequency:    1.7076062432
  - # 3
    frequency:   10.1073464261
  - # 4
    frequency:   10.1206263500
  - # 5
    frequency:   17.3266099734
  - # 6
    frequency:   17.3384246710
  - # 7
    frequency:   25.5355918176
  - # 8
    frequency:   25.5366552630
  - # 9
    frequency:   46.1957803984
  - # 10
    frequency:   46.4089587675
  - # 11
    frequency:   47.6505408154
  - # 12
    frequency:   47.8654303010

- q-position: [    0.1800000,    0.1800000,    0.0000000 ]
  distance:    0.0845070
  band:
  - # 1
    frequency:    1.7751460747
  - # 2
    frequency:    1.8704038960
  - # 3
    frequency:   10.3588695086
  - # 4
    frequency:   10.3718657478
  - # 5
    frequency:   17.7854036742
  - # 6
    frequency:   17.7964977628
  - # 7
    frequency:   25.4911331625
  - # 8
    frequency:   25.4920836244
  - # 9
    frequency:   46.1394726993
  - # 10
    frequency:   46.3432700093
  - # 11
    frequency:   47.6625977028
  - # 12
    frequency:   47.8682841649

- q-position: [    0.1850000,    0.1850000,    0.0000000 ]
  distance:    0.0868545
  band:
  - # 1
    frequency:    1.9477594485
  - # 2
    frequency:    2.0351170987
  - # 3
    frequency:   10.6075868696
  - # 4
    frequency:   10.6202547450
  - # 5
    frequency:   18.2414149480
  - # 6
    frequency:   18.2517217970
  - # 7
    frequency:   25.4445332217
  - # 8
    frequency:   25.4453687148
  - # 9
    frequency:   46.0809146485
  - # 10
    frequency:   46.2753768413
  - # 11
    frequency:   47.6726228058
  - # 12
    frequency:   47.8691556272

- q-position: [    0.1900000,    0.1900000,    0.0000000 ]
  distance:    0.0892019
  band:
  - # 1
    frequency:    2.1213360452
  - # 2
    frequency:    2.2019731045
  - # 3
    frequency:   10.8534629093
  - # 4
    frequency:   10.8657600287
  - # 5
    frequency:   18.6946020018
  - # 6
    frequency:   18.7040571120
  - # 7
    frequency:   25.3957407340
  - # 8
    frequency:   25.3964593491
  - # 9
    frequency:   46.0200910018
  - # 10
    frequency:   46.2052816728
  - # 11
    frequency:   47.6804743657
  - # 12
    frequency:   47.8679192591

- q-position: [    0.1950000,    0.1950000,    0.0000000 ]
  distance:    0.0915493
  band:
  - # 1
    frequency:    2.2962829755
  - # 2
    frequency:    2.3711251995
  - # 3
    frequency:   11.0964644652
  - # 4
    frequency:   11.1083509465
  - # 5
    frequency:   19.1449252983
  - # 6
    frequency:   19.1534665313
  - # 7
    frequency:   25.3447056816
  - # 8
    frequency:   25.3453055852
  - # 9
    frequency:   45.9569907422
  - # 10
    frequency:   46.1329907226
  - # 11
    frequency:   47.6860128585
  - # 12
    frequency:   47.8644513520

- q-position: [    0.2000000,    0.2000000,    0.0000000 ]
  distance:    0.0938967
  band:
  - # 1
    frequency:    2.4728844836
  - # 2
    frequency:    2.5426743075
  - # 3
    frequency:   11.3365607321
  - # 4
    frequency:   11.3479994275
  - # 5
    frequency:   19.5923475329
  - # 6
    frequency:   19.5999153381
  - # 7
    frequency:   25.2913794348
  - # 8
    frequency:   25.2918588685
  - # 9
    frequency:   45.8916073200
  - # 10
    frequency:   46.0585142192
  - # 11
    frequency:   47.6891012569
  - # 12
    frequency:   47.8586301476

- q-position: [    0.2050000,    0.2050000,    0.0000000 ]
  distance:    0.0962441
  band:
  - # 1
    frequency:    2.6513396193
  - # 2
    frequency:    2.7166831517
  - # 3
    frequency:   11.5737231707
  - # 4
    frequency:   11.5846798892
  - # 5
    frequency:   20.0368336049
  - # 6
    frequency:   20.0433712428
  - # 7
    frequency:   25.2357148956
  - # 8
    frequency:   25.2360721758
  - # 9
    frequency:   45.8239388861
  - # 10
    frequency:   45.9818665963
  - # 11
    frequency:   47.6896052794
  - # 12
    frequency:   47.8503360574

- q-position: [    0.2100000,    0.2100000,    0.0000000 ]
  distance:    0.0985915
  band:
  - # 1
    frequency:    2.8317863574
  - # 2
    frequency:    2.8931858417
  - # 3
    frequency:   11.8079254043
  - # 4
    frequency:   11.8183691314
  - # 5
    frequency:   20.4783505833
  - # 6
    frequency:   20.4838043441
  - # 7
    frequency:   25.1776666400
  - # 8
    frequency:   25.1779001570
  - # 9
    frequency:   45.7539885183
  - # 10
    frequency:   45.9030666822
  - # 11
    frequency:   47.6873936244
  - # 12
    frequency:   47.8394518709

- q-position: [    0.2150000,    0.2150000,    0.0000000 ]
  distance:    0.1009390
  band:
  - # 1
    frequency:    3.0143176293
  - # 2
    frequency:    3.0721945441
  - # 3
    frequency:   12.0391431026
  - # 4
    frequency:   12.0490462147
  - # 5
    frequency:   20.9168676675
  - # 6
    frequency:   20.9211870833
  - # 7
    frequency:   25.1171910595
  - # 8
    frequency:   25.1172992771
  - # 9
    frequency:   45.6817644393
  - # 10
    frequency:   45.8221378835
  - # 11
    frequency:   47.6823381911
  - # 12
    frequency:   47.8258629528

- q-position: [    0.2200000,    0.2200000,    0.0000000 ]
  distance:    0.1032864
  band:
  - # 1
    frequency:    3.1989923117
  - # 2
    frequency:    3.2537042306
  - # 3
    frequency:   12.2673538544
  - # 4
    frequency:   12.2766923262
  - # 5
    frequency:   21.3523561415
  - # 6
    frequency:   21.3554941926
  - # 7
    frequency:   25.0542279555
  - # 8
    frequency:   25.0542465016
  - # 9
    frequency:   45.6072802265
  - # 10
    frequency:   45.7391083617
  - # 11
    frequency:   47.6743142856
  - # 12
    frequency:   47.8094574274

- q-position: [    0.2250000,    0.2250000,    0.0000000 ]
  distance:    0.1056338
  band:
  - # 1
    frequency:    3.3858429598
  - # 2
    frequency:    3.4376961265
  - # 3
    frequency:   12.4925370274
  - # 4
    frequency:   12.5012906296
  - # 5
    frequency:   21.7847893234
  - # 6
    frequency:   21.7867026361
  - # 7
    frequency:   24.9886467074
  - # 8
    frequency:   24.9887934106
  - # 9
    frequency:   45.5305550133
  - # 10
    frequency:   45.6540112034
  - # 11
    frequency:   47.6632008132
  - # 12
    frequency:   47.7901263522

- q-position: [    0.2300000,    0.2300000,    0.0000000 ]
  distance:    0.1079812
  band:
  - # 1
    frequency:    3.5748813699
  - # 2
    frequency:    3.6241402552
  - # 3
    frequency:   12.7146736161
  - # 4
    frequency:   12.7228261023
  - # 5
    frequency:   22.2141425087
  - # 6
    frequency:   22.2147915447
  - # 7
    frequency:   24.9205182830
  - # 8
    frequency:   24.9207944688
  - # 9
    frequency:   45.4516136815
  - # 10
    frequency:   45.5668845832
  - # 11
    frequency:   47.6488804555
  - # 12
    frequency:   47.7677638787

- q-position: [    0.2350000,    0.2350000,    0.0000000 ]
  distance:    0.1103286
  band:
  - # 1
    frequency:    3.7661026573
  - # 2
    frequency:    3.8129973434
  - # 3
    frequency:   12.9337460778
  - # 4
    frequency:   12.9412853579
  - # 5
    frequency:   22.6397421445
  - # 6
    frequency:   22.6403929068
  - # 7
    frequency:   24.8498078093
  - # 8
    frequency:   24.8502147400
  - # 9
    frequency:   45.3704870437
  - # 10
    frequency:   45.4777719179
  - # 11
    frequency:   47.6312398338
  - # 12
    frequency:   47.7422674016

- q-position: [    0.2400000,    0.2400000,    0.0000000 ]
  distance:    0.1126761
  band:
  - # 1
    frequency:    3.9594882942
  - # 2
    frequency:    4.0042202637
  - # 3
    frequency:   13.1497381564
  - # 4
    frequency:   13.1566564541
  - # 5
    frequency:   23.0615376781
  - # 6
    frequency:   23.0635195654
  - # 7
    frequency:   24.7764829338
  - # 8
    frequency:   24.7770218201
  - # 9
    frequency:   45.2872120162
  - # 10
    frequency:   45.3867220141
  - # 11
    frequency:   47.6101696572
  - # 12
    frequency:   47.7135376958

- q-position: [    0.2450000,    0.2450000,    0.0000000 ]
  distance:    0.1150235
  band:
  - # 1
    frequency:    4.1550084022
  - # 2
    frequency:    4.1977551356
  - # 3
    frequency:   13.3626346949
  - # 4
    frequency:   13.3689286883
  - # 5
    frequency:   23.4801633110
  - # 6
    frequency:   23.4835032707
  - # 7
    frequency:   24.7005139767
  - # 8
    frequency:   24.7011860110
  - # 9
    frequency:   45.2018317821
  - # 10
    frequency:   45.2937892055
  - # 11
    frequency:   47.5855648575
  - # 12
    frequency:   47.6814790410

- q-position: [    0.2500000,    0.2500000,    0.0000000 ]
  distance:    0.1173709
  band:
  - # 1
    frequency:    4.3526235021
  - # 2
    frequency:    4.3935421718
  - # 3
    frequency:   13.5724214368
  - # 4
    frequency:   13.5780923783
  - # 5
    frequency:   23.8956059974
  - # 6
    frequency:   23.9003263091
  - # 7
    frequency:   24.6218741241
  - # 8
    frequency:   24.6226806282
  - # 9
    frequency:   45.1143959427
  - # 10
    frequency:   45.1990334824
  - # 11
    frequency:   47.5573247090
  - # 12
    frequency:   47.6459993346

- q-position: [    0.2550000,    0.2550000,    0.0000000 ]
  distance:    0.1197183
  band:
  - # 1
    frequency:    4.5522858600
  - # 2
    frequency:    4.5915163285
  - # 3