       N       E                     dE             d eps       ncg     rms          rms(c)
DAV:   1     0.124772664038E+03    0.12477E+03   -0.80197E+03  1152   0.149E+03
DAV:   2    -0.257019833452E+02   -0.15047E+03   -0.13650E+03  1900   0.245E+02
DAV:   3    -0.392277759882E+02   -0.13526E+02   -0.13422E+02  1452   0.838E+01
DAV:   4    -0.395225008123E+02   -0.29472E+00   -0.29398E+00  1488   0.149E+01
DAV:   5    -0.395314850577E+02   -0.89842E-02   -0.89742E-02  1464   0.249E+00    0.902E+00
DAV:   6    -0.376503402006E+02    0.18811E+01   -0.17194E+00  1384   0.920E+00    0.530E+00
DAV:   7    -0.369391830707E+02    0.71116E+00   -0.23281E+00  1420   0.106E+01    0.138E+00
DAV:   8    -0.369391779427E+02    0.51280E-05   -0.67328E-02  1408   0.191E+00    0.135E-01
DAV:   9    -0.369378681506E+02    0.13098E-02   -0.19867E-03  1524   0.357E-01    0.933E-02
DAV:  10    -0.369331522495E+02    0.47159E-02   -0.36579E-03  1312   0.350E-01    0.835E-02
DAV:  11    -0.369321185132E+02    0.10337E-02   -0.54580E-04  1388   0.161E-01    0.703E-02
DAV:  12    -0.369278682985E+02    0.42502E-02   -0.21834E-03  1216   0.276E-01    0.439E-02
DAV:  13    -0.369280048568E+02   -0.13656E-03   -0.12997E-04  1332   0.772E-02    0.427E-02
DAV:  14    -0.369290254372E+02   -0.10206E-02   -0.17998E-04  1260   0.910E-02    0.173E-02
DAV:  15    -0.369299471578E+02   -0.92172E-03   -0.13710E-04  1276   0.674E-02    0.230E-02
DAV:  16    -0.369301540703E+02   -0.20691E-03   -0.41383E-05  1300   0.399E-02    0.404E-03
DAV:  17    -0.369302050289E+02   -0.50959E-04   -0.36318E-06  1340   0.168E-02    0.253E-03
DAV:  18    -0.369302101215E+02   -0.50926E-05   -0.45550E-07  1332   0.571E-03    0.575E-04
DAV:  19    -0.369302123340E+02   -0.22125E-05   -0.96568E-08  1312   0.192E-03    0.223E-04
DAV:  20    -0.369302124861E+02   -0.15213E-06   -0.48482E-09   996   0.389E-04    0.924E-05
DAV:  21    -0.369302125295E+02   -0.43362E-07   -0.28513E-09   852   0.262E-04    0.275E-05
DAV:  22    -0.369302125252E+02    0.42644E-08   -0.26982E-10   944   0.994E-05
   1 F= -.36930213E+02 E0= -.36930212E+02  d E =-.167043E-05
