       N       E                     dE             d eps       ncg     rms          rms(c)
DAV:   1     0.128032046749E+03    0.12803E+03   -0.80122E+03  1152   0.149E+03
DAV:   2    -0.248311457897E+02   -0.15286E+03   -0.13988E+03  1844   0.245E+02
DAV:   3    -0.391504541065E+02   -0.14319E+02   -0.14204E+02  1424   0.862E+01
DAV:   4    -0.394724832536E+02   -0.32203E+00   -0.32106E+00  1492   0.158E+01
DAV:   5    -0.394820630832E+02   -0.95798E-02   -0.95605E-02  1468   0.262E+00    0.902E+00
DAV:   6    -0.376102522911E+02    0.18718E+01   -0.17498E+00  1388   0.928E+00    0.529E+00
DAV:   7    -0.369398510832E+02    0.67040E+00   -0.22871E+00  1412   0.105E+01    0.137E+00
DAV:   8    -0.369357089581E+02    0.41421E-02   -0.80524E-02  1440   0.203E+00    0.130E-01
DAV:   9    -0.369337413136E+02    0.19676E-02   -0.28278E-03  1520   0.419E-01    0.948E-02
DAV:  10    -0.369268905932E+02    0.68507E-02   -0.37949E-03  1396   0.355E-01    0.102E-01
DAV:  11    -0.369245608455E+02    0.23297E-02   -0.75280E-04  1364   0.177E-01    0.530E-02
DAV:  12    -0.369210202937E+02    0.35406E-02   -0.17169E-03  1244   0.252E-01    0.365E-02
DAV:  13    -0.369206981103E+02    0.32218E-03   -0.29204E-04  1292   0.120E-01    0.324E-02
DAV:  14    -0.369218951967E+02   -0.11971E-02   -0.60904E-04  1280   0.130E-01    0.281E-02
DAV:  15    -0.369225860654E+02   -0.69087E-03   -0.11481E-04  1396   0.829E-02    0.286E-02
DAV:  16    -0.369228570314E+02   -0.27097E-03   -0.21820E-05  1340   0.299E-02    0.815E-03
DAV:  17    -0.369229896308E+02   -0.13260E-03   -0.33944E-06  1372   0.137E-02    0.916E-03
DAV:  18    -0.369230090646E+02   -0.19434E-04   -0.62518E-07  1352   0.686E-03    0.961E-04
DAV:  19    -0.369230141369E+02   -0.50723E-05   -0.13649E-07  1308   0.296E-03    0.946E-04
DAV:  20    -0.369230147258E+02   -0.58891E-06   -0.25328E-08  1328   0.116E-03    0.675E-05
DAV:  21    -0.369230147739E+02   -0.48116E-07   -0.13498E-09   976   0.318E-04    0.354E-05
DAV:  22    -0.369230147842E+02   -0.10301E-07   -0.53861E-10   832   0.189E-04    0.197E-05
DAV:  23    -0.369230147811E+02    0.31873E-08   -0.97030E-11  1032   0.845E-05
   1 F= -.36923015E+02 E0= -.36923015E+02  d E =-.258930E-12
