       N       E                     dE             d eps       ncg     rms          rms(c)
DAV:   1     0.125285938113E+03    0.12529E+03   -0.80187E+03  1152   0.149E+03
DAV:   2    -0.253984608974E+02   -0.15068E+03   -0.13738E+03  1872   0.245E+02
DAV:   3    -0.392001349826E+02   -0.13802E+02   -0.13565E+02  1436   0.846E+01
DAV:   4    -0.395150193979E+02   -0.31488E+00   -0.31406E+00  1496   0.154E+01
DAV:   5    -0.395238012372E+02   -0.87818E-02   -0.87703E-02  1432   0.250E+00    0.902E+00
DAV:   6    -0.376410598700E+02    0.18827E+01   -0.17326E+00  1384   0.922E+00    0.529E+00
DAV:   7    -0.369414805445E+02    0.69958E+00   -0.23117E+00  1420   0.105E+01    0.138E+00
DAV:   8    -0.369411428619E+02    0.33768E-03   -0.70742E-02  1428   0.193E+00    0.135E-01
DAV:   9    -0.369397131100E+02    0.14298E-02   -0.20585E-03  1484   0.367E-01    0.919E-02
DAV:  10    -0.369337797953E+02    0.59333E-02   -0.39744E-03  1316   0.388E-01    0.948E-02
DAV:  11    -0.369327727147E+02    0.10071E-02   -0.40060E-04  1388   0.140E-01    0.549E-02
DAV:  12    -0.369286207720E+02    0.41519E-02   -0.21542E-03  1196   0.277E-01    0.365E-02
DAV:  13    -0.369285779694E+02    0.42803E-04   -0.15854E-04  1320   0.879E-02    0.399E-02
DAV:  14    -0.369297137490E+02   -0.11358E-02   -0.28409E-04  1264   0.105E-01    0.200E-02
DAV:  15    -0.369307045237E+02   -0.99077E-03   -0.17929E-04  1320   0.751E-02    0.254E-02
DAV:  16    -0.369308722078E+02   -0.16768E-03   -0.22593E-05  1356   0.341E-02    0.468E-03
DAV:  17    -0.369309560587E+02   -0.83851E-04   -0.30239E-06  1276   0.166E-02    0.214E-03
DAV:  18    -0.369309691303E+02   -0.13072E-04   -0.48914E-07  1380   0.536E-03    0.820E-04
DAV:  19    -0.369309744861E+02   -0.53559E-05   -0.16324E-07  1284   0.243E-03    0.371E-04
DAV:  20    -0.369309754255E+02   -0.93940E-06   -0.35737E-08  1356   0.107E-03    0.132E-04
DAV:  21    -0.369309754820E+02   -0.56488E-07   -0.30492E-09   932   0.327E-04    0.488E-05
DAV:  22    -0.369309754830E+02   -0.97657E-09   -0.38904E-10  1036   0.143E-04
   1 F= -.36930975E+02 E0= -.36930975E+02  d E =-.158874E-11
