       N       E                     dE             d eps       ncg     rms          rms(c)
DAV:   1     0.128972038623E+03    0.12897E+03   -0.80192E+03  1152   0.149E+03
DAV:   2    -0.244401576289E+02   -0.15341E+03   -0.13951E+03  1836   0.245E+02
DAV:   3    -0.389871674128E+02   -0.14547E+02   -0.14431E+02  1464   0.871E+01
DAV:   4    -0.393298878155E+02   -0.34272E+00   -0.34163E+00  1456   0.164E+01
DAV:   5    -0.393406054207E+02   -0.10718E-01   -0.10700E-01  1468   0.277E+00    0.902E+00
DAV:   6    -0.375069154487E+02    0.18337E+01   -0.17235E+00  1356   0.927E+00    0.529E+00
DAV:   7    -0.368592586453E+02    0.64766E+00   -0.21648E+00  1420   0.104E+01    0.135E+00
DAV:   8    -0.368506173895E+02    0.86413E-02   -0.81837E-02  1416   0.204E+00    0.121E-01
DAV:   9    -0.368481215690E+02    0.24958E-02   -0.40321E-03  1424   0.471E-01    0.963E-02
DAV:  10    -0.368420881139E+02    0.60335E-02   -0.27100E-03  1396   0.314E-01    0.788E-02
DAV:  11    -0.368384815067E+02    0.36066E-02   -0.16642E-03  1316   0.253E-01    0.529E-02
DAV:  12    -0.368346591115E+02    0.38224E-02   -0.16441E-03  1268   0.227E-01    0.359E-02
DAV:  13    -0.368344610446E+02    0.19807E-03   -0.43098E-04  1256   0.144E-01    0.332E-02
DAV:  14    -0.368353147567E+02   -0.85371E-03   -0.48802E-04  1336   0.116E-01    0.291E-02
DAV:  15    -0.368360074862E+02   -0.69273E-03   -0.15916E-04  1344   0.843E-02    0.295E-02
DAV:  16    -0.368363900519E+02   -0.38257E-03   -0.38760E-05  1316   0.356E-02    0.884E-03
DAV:  17    -0.368365094999E+02   -0.11945E-03   -0.95272E-06  1324   0.164E-02    0.904E-03
DAV:  18    -0.368365387639E+02   -0.29264E-04   -0.15568E-06  1332   0.855E-03    0.183E-03
DAV:  19    -0.368365416565E+02   -0.28926E-05   -0.22551E-07  1404   0.334E-03    0.765E-04
DAV:  20    -0.368365434875E+02   -0.18310E-05   -0.63138E-08  1344   0.144E-03    0.115E-04
DAV:  21    -0.368365435894E+02   -0.10191E-06   -0.19829E-09  1016   0.325E-04    0.401E-05
DAV:  22    -0.368365436504E+02   -0.60994E-07   -0.20667E-09   860   0.247E-04    0.149E-05
DAV:  23    -0.368365436488E+02    0.15934E-08   -0.33077E-10   988   0.128E-04
   1 F= -.36836544E+02 E0= -.36836544E+02  d E =-.796217E-13
