 vasp.5.4.4.18Apr17-6-g9f103f2a35 (build May 31 2018 21:15:54) complex          
  
 executed on          c7_intel_O1 date 2020.07.23  19:11:21
 running on    4 total cores
 distrk:  each k-point on    4 cores,    1 groups
 distr:  one band on NCORES_PER_BAND=   1 cores,    4 groups


--------------------------------------------------------------------------------------------------------


 INCAR:
 POTCAR:    PAW_PBE C 08Apr2002                   
 POTCAR:    PAW_PBE C 08Apr2002                   
   VRHFIN =C: s2p2                                                              
   LEXCH  = PE                                                                  
   EATOM  =   147.1560 eV,   10.8157 Ry                                         
                                                                                
   TITEL  = PAW_PBE C 08Apr2002                                                 
   LULTRA =        F    use ultrasoft PP ?                                      
   IUNSCR =        1    unscreen: 0-lin 1-nonlin 2-no                           
   RPACOR =    1.200    partial core radius                                     
   POMASS =   12.011; ZVAL   =    4.000    mass and valenz                      
   RCORE  =    1.500    outmost cutoff radius                                   
   RWIGS  =    1.630; RWIGS  =    0.863    wigner-seitz radius (au A)           
   ENMAX  =  400.000; ENMIN  =  300.000 eV                                      
   ICORE  =        2    local potential                                         
   LCOR   =        T    correct aug charges                                     
   LPAW   =        T    paw PP                                                  
   EAUG   =  644.873                                                            
   DEXC   =    0.000                                                            
   RMAX   =    1.529    core radius for proj-oper                               
   RAUG   =    1.300    factor for augmentation sphere                          
   RDEP   =    1.501    radius for radial grids                                 
   RDEPT  =    1.300    core radius for aug-charge                              
                                                                                
   Atomic configuration                                                         
    4 entries                                                                   
     n  l   j            E        occ.                                          
     1  0  0.50      -273.3789   2.0000                                         
     2  0  0.50       -13.7508   2.0000                                         
     2  1  0.50        -5.2854   2.0000                                         
     3  2  1.50        -5.4423   0.0000                                         
   Description                                                                  
     l       E           TYP  RCUT    TYP  RCUT                                 
     0    -13.7508458     23  1.200                                             
     0     -8.2022199     23  1.200                                             
     1     -5.2854383     23  1.500                                             
     1     34.0145650     23  1.500                                             
     2     -5.4423304      7  1.500                                             
  local pseudopotential read in
  partial core-charges read in
  partial kinetic energy density read in
  atomic valenz-charges read in
  non local Contribution for L=           0  read in
    real space projection operators read in
  non local Contribution for L=           0  read in
    real space projection operators read in
  non local Contribution for L=           1  read in
    real space projection operators read in
  non local Contribution for L=           1  read in
    real space projection operators read in
    PAW grid and wavefunctions read in
 
   number of l-projection  operators is LMAX  =           4
   number of lm-projection operators is LMMAX =           8
 
  PAW_PBE C 08Apr2002                   :
 energy of atom  1       EATOM= -147.1560
 kinetic energy error for atom=    0.0016 (will be added to EATOM!!)
 
 
 POSCAR: C2_bilayer                              
  positions in direct lattice
  No initial velocities read in
 exchange correlation table for  LEXCH =        8
   RHO(1)=    0.500       N(1)  =     2000
   RHO(2)=  100.500       N(2)  =     4000
 


--------------------------------------------------------------------------------------------------------


 ion  position               nearest neighbor table
   1  0.000  0.000  0.000-   2 1.42   2 1.42   2 1.42
   2  0.333  0.333  0.000-   1 1.42   1 1.42   1 1.42
   3  0.000  0.000  0.155-   4 1.42   4 1.42   4 1.42
   4  0.333  0.333  0.155-   3 1.42   3 1.42   3 1.42
 
  LATTYP: Found a hexagonal cell.
 ALAT       =     2.4595120000
 C/A-ratio  =     8.1316944174
  
  Lattice vectors:
  
 A1 = (   0.0000000000,  -2.4595120000,   0.0000000000)
 A2 = (  -2.1300000000,   1.2297560000,   0.0000000000)
 A3 = (   0.0000000000,   0.0000000000, -20.0000000000)


Analysis of symmetry for initial positions (statically):
=====================================================================
 Subroutine PRICEL returns:
 Original cell was already a primitive cell.
 

 Routine SETGRP: Setting up the symmetry group for a 
 hexagonal supercell.


 Subroutine GETGRP returns: Found 24 space group operations
 (whereof  6 operations were pure point group operations)
 out of a pool of 24 trial point group operations.


The static configuration has the point symmetry C_3v.
 The point group associated with its full space group is D_6h.


Analysis of symmetry for dynamics (positions and initial velocities):
=====================================================================
 Subroutine PRICEL returns:
 Original cell was already a primitive cell.
 

 Routine SETGRP: Setting up the symmetry group for a 
 hexagonal supercell.


 Subroutine GETGRP returns: Found 24 space group operations
 (whereof  6 operations were pure point group operations)
 out of a pool of 24 trial point group operations.


The dynamic configuration has the point symmetry C_3v.
 The point group associated with its full space group is D_6h.


 Subroutine INISYM returns: Found 24 space group operations
 (whereof  6 operations are pure point group operations),
 and found     1 'primitive' translations

 
 
 KPOINTS: k grid                                  

Automatic generation of k-mesh.
Space group operators:
 irot       det(A)        alpha          n_x          n_y          n_z        tau_x        tau_y        tau_z
    1     1.000000     0.000000     1.000000     0.000000     0.000000     0.000000     0.000000     0.000000
    2     1.000000   120.000000     0.000000     0.000000     1.000000     0.000000     0.000000     0.000000
    3     1.000000   120.000000     0.000000     0.000000    -1.000000     0.000000     0.000000     0.000000
    4    -1.000000   180.000000    -0.000000     1.000000     0.000000     0.000000     0.000000     0.000000
    5    -1.000000   180.000000     0.866025    -0.500000     0.000000     0.000000     0.000000     0.000000
    6    -1.000000   180.000000     0.866025     0.500000     0.000000     0.000000     0.000000     0.000000
    7    -1.000000     0.000000     1.000000     0.000000     0.000000     0.333333    -0.666667    -0.845000
    8     1.000000    60.000000     0.000000     0.000000     1.000000     0.333333    -0.666667     0.000000
    9    -1.000000    60.000000     0.000000     0.000000     1.000000    -0.000001    -0.000000    -0.845000
   10    -1.000000   120.000000     0.000000     0.000000     1.000000     0.333333    -0.666667    -0.845000
   11     1.000000   180.000000     0.000000     0.000000     1.000000     0.333333    -0.666667     0.000000
   12    -1.000000   180.000000     0.000000     0.000000     1.000000     0.000000     0.000000    -0.845000
   13    -1.000000   120.000000     0.000000     0.000000    -1.000000     0.333333    -0.666667    -0.845000
   14     1.000000    60.000000     0.000000     0.000000    -1.000000     0.333333    -0.666667     0.000000
   15    -1.000000    60.000000     0.000000     0.000000    -1.000000    -0.000000    -0.000001    -0.845000
   16     1.000000   180.000000    -0.000000     1.000000     0.000000     0.333333    -0.666667    -0.845000
   17     1.000000   180.000000     0.500000    -0.866025     0.000000    -0.000000    -0.000001    -0.845000
   18    -1.000000   180.000000     0.500000    -0.866025     0.000000     0.333333    -0.666667     0.000000
   19     1.000000   180.000000     0.866025    -0.500000     0.000000     0.333333    -0.666667    -0.845000
   20     1.000000   180.000000     1.000000     0.000000     0.000000     0.000000     0.000000    -0.845000
   21    -1.000000   180.000000     1.000000     0.000000     0.000000     0.333333    -0.666667     0.000000
   22     1.000000   180.000000     0.866025     0.500000     0.000000     0.333333    -0.666667    -0.845000
   23     1.000000   180.000000    -0.500000    -0.866025     0.000000    -0.000001    -0.000000    -0.845000
   24    -1.000000   180.000000    -0.500000    -0.866025     0.000000     0.333333    -0.666667     0.000000
 
 Subroutine IBZKPT returns following result:
 ===========================================
 
 Found     48 irreducible k-points:
 
 Following reciprocal coordinates:
            Coordinates               Weight
  0.000000  0.000000  0.000000      1.000000
  0.047619  0.000000  0.000000      6.000000
  0.095238  0.000000  0.000000      6.000000
  0.142857  0.000000  0.000000      6.000000
  0.190476  0.000000  0.000000      6.000000
  0.238095  0.000000  0.000000      6.000000
  0.285714  0.000000  0.000000      6.000000
  0.333333  0.000000  0.000000      6.000000
  0.380952  0.000000  0.000000      6.000000
  0.428571  0.000000  0.000000      6.000000
  0.476190  0.000000  0.000000      6.000000
  0.095238  0.047619  0.000000      6.000000
  0.142857  0.047619  0.000000     12.000000
  0.190476  0.047619  0.000000     12.000000
  0.238095  0.047619  0.000000     12.000000
  0.285714  0.047619  0.000000     12.000000
  0.333333  0.047619  0.000000     12.000000
  0.380952  0.047619  0.000000     12.000000
  0.428571  0.047619  0.000000     12.000000
  0.476190  0.047619  0.000000     12.000000
 -0.476190  0.047619  0.000000      6.000000
  0.190476  0.095238  0.000000      6.000000
  0.238095  0.095238  0.000000     12.000000
  0.285714  0.095238  0.000000     12.000000
  0.333333  0.095238  0.000000     12.000000
  0.380952  0.095238  0.000000     12.000000
  0.428571  0.095238  0.000000     12.000000
  0.476190  0.095238  0.000000     12.000000
 -0.476190  0.095238  0.000000     12.000000
  0.285714  0.142857  0.000000      6.000000
  0.333333  0.142857  0.000000     12.000000
  0.380952  0.142857  0.000000     12.000000
  0.428571  0.142857  0.000000     12.000000
  0.476190  0.142857  0.000000     12.000000
 -0.476190  0.142857  0.000000     12.000000
 -0.428571  0.142857  0.000000      6.000000
  0.380952  0.190476  0.000000      6.000000
  0.428571  0.190476  0.000000     12.000000
  0.476190  0.190476  0.000000     12.000000
 -0.476190  0.190476  0.000000     12.000000
 -0.428571  0.190476  0.000000     12.000000
  0.476190  0.238095  0.000000      6.000000
 -0.476190  0.238095  0.000000     12.000000
 -0.428571  0.238095  0.000000     12.000000
 -0.380952  0.238095  0.000000      6.000000
 -0.428571  0.285714  0.000000      6.000000
 -0.380952  0.285714  0.000000     12.000000
 -0.333333  0.333333  0.000000      2.000000
 
 Following cartesian coordinates:
            Coordinates               Weight
  0.000000  0.000000  0.000000      1.000000
  0.011178 -0.019361  0.000000      6.000000
  0.022356 -0.038722  0.000000      6.000000
  0.033535 -0.058084  0.000000      6.000000
  0.044713 -0.077445  0.000000      6.000000
  0.055891 -0.096806  0.000000      6.000000
  0.067069 -0.116167  0.000000      6.000000
  0.078247 -0.135528  0.000000      6.000000
  0.089425 -0.154889  0.000000      6.000000
  0.100604 -0.174251  0.000000      6.000000
  0.111782 -0.193612  0.000000      6.000000
  0.033535 -0.019361  0.000000      6.000000
  0.044713 -0.038722  0.000000     12.000000
  0.055891 -0.058084  0.000000     12.000000
  0.067069 -0.077445  0.000000     12.000000
  0.078247 -0.096806  0.000000     12.000000
  0.089425 -0.116167  0.000000     12.000000
  0.100604 -0.135528  0.000000     12.000000
  0.111782 -0.154889  0.000000     12.000000
  0.122960 -0.174251  0.000000     12.000000
 -0.100604  0.212973  0.000000      6.000000
  0.067069 -0.038722  0.000000      6.000000
  0.078247 -0.058084  0.000000     12.000000
  0.089425 -0.077445  0.000000     12.000000
  0.100604 -0.096806  0.000000     12.000000
  0.111782 -0.116167  0.000000     12.000000
  0.122960 -0.135528  0.000000     12.000000
  0.134138 -0.154889  0.000000     12.000000
 -0.089425  0.232334  0.000000     12.000000
  0.100604 -0.058084  0.000000      6.000000
  0.111782 -0.077445  0.000000     12.000000
  0.122960 -0.096806  0.000000     12.000000
  0.134138 -0.116167  0.000000     12.000000
  0.145316 -0.135528  0.000000     12.000000
 -0.078247  0.251695  0.000000     12.000000
 -0.067069  0.232334  0.000000      6.000000
  0.134138 -0.077445  0.000000      6.000000
  0.145316 -0.096806  0.000000     12.000000
  0.156495 -0.116167  0.000000     12.000000
 -0.067069  0.271056  0.000000     12.000000
 -0.055891  0.251695  0.000000     12.000000
  0.167673 -0.096806  0.000000      6.000000
 -0.055891  0.290418  0.000000     12.000000
 -0.044713  0.271056  0.000000     12.000000
 -0.033535  0.251695  0.000000      6.000000
 -0.033535  0.290418  0.000000      6.000000
 -0.022356  0.271056  0.000000     12.000000
  0.000000  0.271056  0.000000      2.000000
 


--------------------------------------------------------------------------------------------------------




 Dimension of arrays:
   k-points           NKPTS =     48   k-points in BZ     NKDIM =     48   number of bands    NBANDS=     12
   number of dos      NEDOS =    301   number of ions     NIONS =      4
   non local maximal  LDIM  =      4   non local SUM 2l+1 LMDIM =      8
   total plane-waves  NPLWV = 110592
   max r-space proj   IRMAX =      1   max aug-charges    IRDMAX=  99836
   dimension x,y,z NGX =    24 NGY =   24 NGZ =  192
   dimension x,y,z NGXF=    48 NGYF=   48 NGZF=  384
   support grid    NGXF=    96 NGYF=   96 NGZF=  768
   ions per type =               4
   NGX,Y,Z   is equivalent  to a cutoff of  16.22, 16.22, 15.96 a.u.
   NGXF,Y,Z  is equivalent  to a cutoff of  32.44, 32.44, 31.92 a.u.

 SYSTEM =  C:graphene                              
 POSCAR =  C2_bilayer                              

 Startparameter for this run:
   NWRITE =      2    write-flag & timer
   PREC   = accura    normal or accurate (medium, high low for compatibility)
   ISTART =      0    job   : 0-new  1-cont  2-samecut
   ICHARG =      2    charge: 1-file 2-atom 10-const
   ISPIN  =      1    spin polarized calculation?
   LNONCOLLINEAR =      F non collinear calculations
   LSORBIT =      F    spin-orbit coupling
   INIWAV =      1    electr: 0-lowe 1-rand  2-diag
   LASPH  =      F    aspherical Exc in radial PAW
   METAGGA=      F    non-selfconsistent MetaGGA calc.

 Electronic Relaxation 1
   ENCUT  =  800.0 eV  58.80 Ry    7.67 a.u.   5.67  5.67 46.12*2*pi/ulx,y,z
   ENINI  =  800.0     initial cutoff
   ENAUG  =  644.9 eV  augmentation charge cutoff
   NELM   =     60;   NELMIN=  5; NELMDL= -5     # of ELM steps 
   EDIFF  = 0.1E-07   stopping-criterion for ELM
   LREAL  =      F    real-space projection
   NLSPLINE    = F    spline interpolate recip. space projectors
   LCOMPAT=      F    compatible to vasp.4.4
   GGA_COMPAT  = T    GGA compatible to vasp.4.4-vasp.4.6
   LMAXPAW     = -100 max onsite density
   LMAXMIX     =    2 max onsite mixed and CHGCAR
   VOSKOWN=      0    Vosko Wilk Nusair interpolation
   ROPT   =    0.00000
 Ionic relaxation
   EDIFFG = 0.1E-06   stopping-criterion for IOM
   NSW    =      1    number of steps for IOM
   NBLOCK =      1;   KBLOCK =      1    inner block; outer block 
   IBRION =     -1    ionic relax: 0-MD 1-quasi-New 2-CG
   NFREE  =      0    steps in history (QN), initial steepest desc. (CG)
   ISIF   =      2    stress and relaxation
   IWAVPR =     10    prediction:  0-non 1-charg 2-wave 3-comb
   ISYM   =      2    0-nonsym 1-usesym 2-fastsym
   LCORR  =      T    Harris-Foulkes like correction to forces

   POTIM  = 0.5000    time-step for ionic-motion
   TEIN   =    0.0    initial temperature
   TEBEG  =    0.0;   TEEND  =   0.0 temperature during run
   SMASS  =  -3.00    Nose mass-parameter (am)
   estimated Nose-frequenzy (Omega)   =  0.10E-29 period in steps =****** mass=  -0.138E-27a.u.
   SCALEE = 1.0000    scale energy and forces
   NPACO  =    256;   APACO  = 16.0  distance and # of slots for P.C.
   PSTRESS=    0.0 pullay stress

  Mass of Ions in am
   POMASS =  12.01
  Ionic Valenz
   ZVAL   =   4.00
  Atomic Wigner-Seitz radii
   RWIGS  =  -1.00
  virtual crystal weights 
   VCA    =   1.00
   NELECT =      16.0000    total number of electrons
   NUPDOWN=      -1.0000    fix difference up-down

 DOS related values:
   EMIN   =  10.00;   EMAX   =-10.00  energy-range for DOS
   EFERMI =   0.00
   ISMEAR =     0;   SIGMA  =   0.01  broadening in eV -4-tet -1-fermi 0-gaus

 Electronic relaxation 2 (details)
   IALGO  =     38    algorithm
   LDIAG  =      T    sub-space diagonalisation (order eigenvalues)
   LSUBROT=      F    optimize rotation matrix (better conditioning)
   TURBO    =      0    0=normal 1=particle mesh
   IRESTART =      0    0=no restart 2=restart with 2 vectors
   NREBOOT  =      0    no. of reboots
   NMIN     =      0    reboot dimension
   EREF     =   0.00    reference energy to select bands
   IMIX   =      4    mixing-type and parameters
     AMIX     =   0.40;   BMIX     =  1.00
     AMIX_MAG =   1.60;   BMIX_MAG =  1.00
     AMIN     =   0.01
     WC   =   100.;   INIMIX=   1;  MIXPRE=   1;  MAXMIX= -45

 Intra band minimization:
   WEIMIN = 0.0000     energy-eigenvalue tresh-hold
   EBREAK =  0.21E-09  absolut break condition
   DEPER  =   0.30     relativ break condition  

   TIME   =   0.40     timestep for ELM

  volume/ion in A,a.u.               =      26.19       176.76
  Fermi-wavevector in a.u.,A,eV,Ry     =   0.875041  1.653589 10.417948  0.765698
  Thomas-Fermi vector in A             =   1.994657
 
 Write flags
   LWAVE        =      F    write WAVECAR
   LDOWNSAMPLE  =      F    k-point downsampling of WAVECAR
   LCHARG       =      T    write CHGCAR
   LVTOT        =      F    write LOCPOT, total local potential
   LVHAR        =      F    write LOCPOT, Hartree potential only
   LELF         =      F    write electronic localiz. function (ELF)
   LORBIT       =      0    0 simple, 1 ext, 2 COOP (PROOUT), +10 PAW based schemes


 Dipole corrections
   LMONO  =      F    monopole corrections only (constant potential shift)
   LDIPOL =      F    correct potential (dipole corrections)
   IDIPOL =      0    1-x, 2-y, 3-z, 4-all directions 
   EPSILON=  1.0000000 bulk dielectric constant

 Exchange correlation treatment:
   GGA     =    --    GGA type
   LEXCH   =     8    internal setting for exchange type
   VOSKOWN=      0    Vosko Wilk Nusair interpolation
   LHFCALC =     F    Hartree Fock is set to
   LHFONE  =     F    Hartree Fock one center treatment
   AEXX    =    0.0000 exact exchange contribution

 Linear response parameters
   LEPSILON=     F    determine dielectric tensor
   LRPA    =     F    only Hartree local field effects (RPA)
   LNABLA  =     F    use nabla operator in PAW spheres
   LVEL    =     F    velocity operator in full k-point grid
   LINTERFAST=   F  fast interpolation
   KINTER  =     0    interpolate to denser k-point grid
   CSHIFT  =0.1000    complex shift for real part using Kramers Kronig
   OMEGAMAX=  -1.0    maximum frequency
   DEG_THRESHOLD= 0.2000000E-02 threshold for treating states as degnerate
   RTIME   =   -0.100 relaxation time in fs
  (WPLASMAI=    0.000 imaginary part of plasma frequency in eV, 0.658/RTIME)
   DFIELD  = 0.0000000 0.0000000 0.0000000 field for delta impulse in time
 
 Orbital magnetization related:
   ORBITALMAG=     F  switch on orbital magnetization
   LCHIMAG   =     F  perturbation theory with respect to B field
   DQ        =  0.001000  dq finite difference perturbation B field
   LLRAUG    =     F  two centre corrections for induced B field



--------------------------------------------------------------------------------------------------------


 Static calculation
 charge density and potential will be updated during run
 non-spin polarized calculation
 Variant of blocked Davidson
 Davidson routine will perform the subspace rotation
 perform sub-space diagonalisation
    after iterative eigenvector-optimisation
 modified Broyden-mixing scheme, WC =      100.0
 initial mixing is a Kerker type mixing with AMIX =  0.4000 and BMIX =      1.0000
 Hartree-type preconditioning will be used
 using additional bands            4
 reciprocal scheme for non local part
 use partial core corrections
 calculate Harris-corrections to forces 
   (improved forces if not selfconsistent)
 use gradient corrections 
 use of overlap-Matrix (Vanderbilt PP)
 Gauss-broadening in eV      SIGMA  =   0.01


--------------------------------------------------------------------------------------------------------


  energy-cutoff  :      800.00
  volume of cell :      104.78
      direct lattice vectors                 reciprocal lattice vectors
     2.130000000 -1.229756000  0.000000000     0.234741784 -0.406584721  0.000000000
     2.130000000  1.229756000  0.000000000     0.234741784  0.406584721  0.000000000
     0.000000000  0.000000000 20.000000000     0.000000000  0.000000000  0.050000000

  length of vectors
     2.459512110  2.459512110 20.000000000     0.469483589  0.469483589  0.050000000


 
 k-points in units of 2pi/SCALE and weight: k grid                                  
   0.00000000  0.00000000  0.00000000       0.002
   0.01117818 -0.01936118  0.00000000       0.014
   0.02235636 -0.03872235  0.00000000       0.014
   0.03353454 -0.05808353  0.00000000       0.014
   0.04471272 -0.07744471  0.00000000       0.014
   0.05589090 -0.09680589  0.00000000       0.014
   0.06706908 -0.11616706  0.00000000       0.014
   0.07824726 -0.13552824  0.00000000       0.014
   0.08942544 -0.15488942  0.00000000       0.014
   0.10060362 -0.17425059  0.00000000       0.014
   0.11178180 -0.19361177  0.00000000       0.014
   0.03353454 -0.01936118  0.00000000       0.014
   0.04471272 -0.03872235  0.00000000       0.027
   0.05589090 -0.05808353  0.00000000       0.027
   0.06706908 -0.07744471  0.00000000       0.027
   0.07824726 -0.09680589  0.00000000       0.027
   0.08942544 -0.11616706  0.00000000       0.027
   0.10060362 -0.13552824  0.00000000       0.027
   0.11178180 -0.15488942  0.00000000       0.027
   0.12295998 -0.17425059  0.00000000       0.027
  -0.10060362  0.21297295  0.00000000       0.014
   0.06706908 -0.03872235  0.00000000       0.014
   0.07824726 -0.05808353  0.00000000       0.027
   0.08942544 -0.07744471  0.00000000       0.027
   0.10060362 -0.09680589  0.00000000       0.027
   0.11178180 -0.11616706  0.00000000       0.027
   0.12295998 -0.13552824  0.00000000       0.027
   0.13413816 -0.15488942  0.00000000       0.027
  -0.08942544  0.23233413  0.00000000       0.027
   0.10060362 -0.05808353  0.00000000       0.014
   0.11178180 -0.07744471  0.00000000       0.027
   0.12295998 -0.09680589  0.00000000       0.027
   0.13413816 -0.11616706  0.00000000       0.027
   0.14531634 -0.13552824  0.00000000       0.027
  -0.07824726  0.25169530  0.00000000       0.027
  -0.06706908  0.23233413  0.00000000       0.014
   0.13413816 -0.07744471  0.00000000       0.014
   0.14531634 -0.09680589  0.00000000       0.027
   0.15649452 -0.11616706  0.00000000       0.027
  -0.06706908  0.27105648  0.00000000       0.027
  -0.05589090  0.25169530  0.00000000       0.027
   0.16767270 -0.09680589  0.00000000       0.014
  -0.05589090  0.29041766  0.00000000       0.027
  -0.04471272  0.27105648  0.00000000       0.027
  -0.03353454  0.25169530  0.00000000       0.014
  -0.03353454  0.29041766  0.00000000       0.014
  -0.02235636  0.27105648  0.00000000       0.027
   0.00000000  0.27105648  0.00000000       0.005
 
 k-points in reciprocal lattice and weights: k grid                                  
   0.00000000  0.00000000  0.00000000       0.002
   0.04761905  0.00000000  0.00000000       0.014
   0.09523810  0.00000000  0.00000000       0.014
   0.14285714  0.00000000  0.00000000       0.014
   0.19047619  0.00000000  0.00000000       0.014
   0.23809524  0.00000000  0.00000000       0.014
   0.28571429  0.00000000  0.00000000       0.014
   0.33333333  0.00000000  0.00000000       0.014
   0.38095238  0.00000000  0.00000000       0.014
   0.42857143  0.00000000  0.00000000       0.014
   0.47619048  0.00000000  0.00000000       0.014
   0.09523810  0.04761905  0.00000000       0.014
   0.14285714  0.04761905  0.00000000       0.027
   0.19047619  0.04761905  0.00000000       0.027
   0.23809524  0.04761905  0.00000000       0.027
   0.28571429  0.04761905  0.00000000       0.027
   0.33333333  0.04761905  0.00000000       0.027
   0.38095238  0.04761905  0.00000000       0.027
   0.42857143  0.04761905  0.00000000       0.027
   0.47619048  0.04761905  0.00000000       0.027
  -0.47619048  0.04761905  0.00000000       0.014
   0.19047619  0.09523810  0.00000000       0.014
   0.23809524  0.09523810  0.00000000       0.027
   0.28571429  0.09523810  0.00000000       0.027
   0.33333333  0.09523810  0.00000000       0.027
   0.38095238  0.09523810  0.00000000       0.027
   0.42857143  0.09523810  0.00000000       0.027
   0.47619048  0.09523810  0.00000000       0.027
  -0.47619048  0.09523810  0.00000000       0.027
   0.28571429  0.14285714  0.00000000       0.014
   0.33333333  0.14285714  0.00000000       0.027
   0.38095238  0.14285714  0.00000000       0.027
   0.42857143  0.14285714  0.00000000       0.027
   0.47619048  0.14285714  0.00000000       0.027
  -0.47619048  0.14285714  0.00000000       0.027
  -0.42857143  0.14285714  0.00000000       0.014
   0.38095238  0.19047619  0.00000000       0.014
   0.42857143  0.19047619  0.00000000       0.027
   0.47619048  0.19047619  0.00000000       0.027
  -0.47619048  0.19047619  0.00000000       0.027
  -0.42857143  0.19047619  0.00000000       0.027
   0.47619048  0.23809524  0.00000000       0.014
  -0.47619048  0.23809524  0.00000000       0.027
  -0.42857143  0.23809524  0.00000000       0.027
  -0.38095238  0.23809524  0.00000000       0.014
  -0.42857143  0.28571429  0.00000000       0.014
  -0.38095238  0.28571429  0.00000000       0.027
  -0.33333333  0.33333333  0.00000000       0.005
 
 position of ions in fractional coordinates (direct lattice) 
   0.00000000  0.00000000  0.00000000
   0.33333300  0.33333300  0.00000000
   0.00000000  0.00000000  0.15500000
   0.33333300  0.33333300  0.15500000
 
 position of ions in cartesian coordinates  (Angst):
   0.00000000  0.00000000  0.00000000
   1.41999858  0.00000000  0.00000000
   0.00000000  0.00000000  3.10000000
   1.41999858  0.00000000  3.10000000
 


--------------------------------------------------------------------------------------------------------


 k-point  1 :   0.0000 0.0000 0.0000  plane waves:    5409
 k-point  2 :   0.0476 0.0000 0.0000  plane waves:    5413
 k-point  3 :   0.0952 0.0000 0.0000  plane waves:    5402
 k-point  4 :   0.1429 0.0000 0.0000  plane waves:    5398
 k-point  5 :   0.1905 0.0000 0.0000  plane waves:    5404
 k-point  6 :   0.2381 0.0000 0.0000  plane waves:    5408
 k-point  7 :   0.2857 0.0000 0.0000  plane waves:    5404
 k-point  8 :   0.3333 0.0000 0.0000  plane waves:    5394
 k-point  9 :   0.3810 0.0000 0.0000  plane waves:    5382
 k-point 10 :   0.4286 0.0000 0.0000  plane waves:    5396
 k-point 11 :   0.4762 0.0000 0.0000  plane waves:    5380
 k-point 12 :   0.0952 0.0476 0.0000  plane waves:    5411
 k-point 13 :   0.1429 0.0476 0.0000  plane waves:    5415
 k-point 14 :   0.1905 0.0476 0.0000  plane waves:    5413
 k-point 15 :   0.2381 0.0476 0.0000  plane waves:    5399
 k-point 16 :   0.2857 0.0476 0.0000  plane waves:    5396
 k-point 17 :   0.3333 0.0476 0.0000  plane waves:    5389
 k-point 18 :   0.3810 0.0476 0.0000  plane waves:    5378
 k-point 19 :   0.4286 0.0476 0.0000  plane waves:    5381
 k-point 20 :   0.4762 0.0476 0.0000  plane waves:    5391
 k-point 21 :  -0.4762 0.0476 0.0000  plane waves:    5394
 k-point 22 :   0.1905 0.0952 0.0000  plane waves:    5403
 k-point 23 :   0.2381 0.0952 0.0000  plane waves:    5409
 k-point 24 :   0.2857 0.0952 0.0000  plane waves:    5419
 k-point 25 :   0.3333 0.0952 0.0000  plane waves:    5384
 k-point 26 :   0.3810 0.0952 0.0000  plane waves:    5369
 k-point 27 :   0.4286 0.0952 0.0000  plane waves:    5364
 k-point 28 :   0.4762 0.0952 0.0000  plane waves:    5382
 k-point 29 :  -0.4762 0.0952 0.0000  plane waves:    5404
 k-point 30 :   0.2857 0.1429 0.0000  plane waves:    5405
 k-point 31 :   0.3333 0.1429 0.0000  plane waves:    5404
 k-point 32 :   0.3810 0.1429 0.0000  plane waves:    5382
 k-point 33 :   0.4286 0.1429 0.0000  plane waves:    5347
 k-point 34 :   0.4762 0.1429 0.0000  plane waves:    5367
 k-point 35 :  -0.4762 0.1429 0.0000  plane waves:    5376
 k-point 36 :  -0.4286 0.1429 0.0000  plane waves:    5400
 k-point 37 :   0.3810 0.1905 0.0000  plane waves:    5390
 k-point 38 :   0.4286 0.1905 0.0000  plane waves:    5358
 k-point 39 :   0.4762 0.1905 0.0000  plane waves:    5365
 k-point 40 :  -0.4762 0.1905 0.0000  plane waves:    5363
 k-point 41 :  -0.4286 0.1905 0.0000  plane waves:    5377
 k-point 42 :   0.4762 0.2381 0.0000  plane waves:    5364
 k-point 43 :  -0.4762 0.2381 0.0000  plane waves:    5368
 k-point 44 :  -0.4286 0.2381 0.0000  plane waves:    5360
 k-point 45 :  -0.3810 0.2381 0.0000  plane waves:    5366
 k-point 46 :  -0.4286 0.2857 0.0000  plane waves:    5362
 k-point 47 :  -0.3810 0.2857 0.0000  plane waves:    5326
 k-point 48 :  -0.3333 0.3333 0.0000  plane waves:    5334

 maximum and minimum number of plane-waves per node :      5419     5326

 maximum number of plane-waves:      5419
 maximum index in each direction: 
   IXMAX=    6   IYMAX=    5   IZMAX=   46
   IXMIN=   -6   IYMIN=   -5   IZMIN=  -46


 serial   3D FFT for wavefunctions
 parallel 3D FFT for charge:
    minimum data exchange during FFTs selected (reduces bandwidth)


 total amount of memory used by VASP MPI-rank0   107376. kBytes
=======================================================================

   base      :      30000. kBytes
   nonl-proj :      16997. kBytes
   fftplans  :      32720. kBytes
   grid      :      15086. kBytes
   one-center:         12. kBytes
   wavefun   :      12561. kBytes
 
     INWAV:  cpu time    0.0000: real time    0.0001
 Broyden mixing: mesh for mixing (old mesh)
   NGX = 11   NGY = 11   NGZ = 93
  (NGX  = 48   NGY  = 48   NGZ  =384)
  gives a total of  11253 points

 initial charge density was supplied:
 charge density of overlapping atoms calculated
 number of electron      16.0000000 magnetization 
 keeping initial charge density in first step


--------------------------------------------------------------------------------------------------------


 Maximum index for augmentation-charges        24119 (set IRDMAX)


--------------------------------------------------------------------------------------------------------


 First call to EWALD:  gamma=   0.376
 Maximum number of real-space cells 5x 5x 1
 Maximum number of reciprocal cells 2x 2x10

    FEWALD:  cpu time    0.0011: real time    0.0011


--------------------------------------- Iteration      1(   1)  ---------------------------------------


    POTLOK:  cpu time    0.0853: real time    0.1023
    SETDIJ:  cpu time    0.0419: real time    0.0420
     EDDAV:  cpu time    1.4564: real time    1.4615
       DOS:  cpu time    0.0003: real time    0.0003
    --------------------------------------------
      LOOP:  cpu time    1.5838: real time    1.6061

 eigenvalue-minimisations  :  1152
 total energy-change (2. order) : 0.1289248E+03  (-0.8022406E+03)
 number of electron      16.0000000 magnetization 
 augmentation part       16.0000000 magnetization 

 Free energy of the ion-electron system (eV)
  ---------------------------------------------------
  alpha Z        PSCENC =        12.54445055
  Ewald energy   TEWEN  =      3395.13959526
  -Hartree energ DENC   =     -3856.29216807
  -exchange      EXHF   =         0.00000000
  -V(xc)+E(xc)   XCENC  =        53.01502258
  PAW double counting   =       434.08818552     -436.36580876
  entropy T*S    EENTRO =        -0.00000001
  eigenvalues    EBANDS =       -61.82216122
  atomic energy  EATOM  =       588.61769381
  Solvation  Ediel_sol  =         0.00000000
  ---------------------------------------------------
  free energy    TOTEN  =       128.92480965 eV

  energy without entropy =      128.92480966  energy(sigma->0) =      128.92480966


--------------------------------------------------------------------------------------------------------




--------------------------------------- Iteration      1(   2)  ---------------------------------------


     EDDAV:  cpu time    2.0375: real time    2.0464
       DOS:  cpu time    0.0002: real time    0.0002
    --------------------------------------------
      LOOP:  cpu time    2.0376: real time    2.0465

 eigenvalue-minimisations  :  1864
 total energy-change (2. order) :-0.1533597E+03  (-0.1391735E+03)
 number of electron      16.0000000 magnetization 
 augmentation part       16.0000000 magnetization 

 Free energy of the ion-electron system (eV)
  ---------------------------------------------------
  alpha Z        PSCENC =        12.54445055
  Ewald energy   TEWEN  =      3395.13959526
  -Hartree energ DENC   =     -3856.29216807
  -exchange      EXHF   =         0.00000000
  -V(xc)+E(xc)   XCENC  =        53.01502258
  PAW double counting   =       434.08818552     -436.36580876
  entropy T*S    EENTRO =        -0.00000000
  eigenvalues    EBANDS =      -215.18188798
  atomic energy  EATOM  =       588.61769381
  Solvation  Ediel_sol  =         0.00000000
  ---------------------------------------------------
  free energy    TOTEN  =       -24.43491709 eV

  energy without entropy =      -24.43491709  energy(sigma->0) =      -24.43491709


--------------------------------------------------------------------------------------------------------




--------------------------------------- Iteration      1(   3)  ---------------------------------------


     EDDAV:  cpu time    1.6872: real time    1.6971
       DOS:  cpu time    0.0002: real time    0.0002
    --------------------------------------------
      LOOP:  cpu time    1.6873: real time    1.6972

 eigenvalue-minimisations  :  1460
 total energy-change (2. order) :-0.1451217E+02  (-0.1439757E+02)
 number of electron      16.0000000 magnetization 
 augmentation part       16.0000000 magnetization 

 Free energy of the ion-electron system (eV)
  ---------------------------------------------------
  alpha Z        PSCENC =        12.54445055
  Ewald energy   TEWEN  =      3395.13959526
  -Hartree energ DENC   =     -3856.29216807
  -exchange      EXHF   =         0.00000000
  -V(xc)+E(xc)   XCENC  =        53.01502258
  PAW double counting   =       434.08818552     -436.36580876
  entropy T*S    EENTRO =        -0.00000000
  eigenvalues    EBANDS =      -229.69405633
  atomic energy  EATOM  =       588.61769381
  Solvation  Ediel_sol  =         0.00000000
  ---------------------------------------------------
  free energy    TOTEN  =       -38.94708545 eV

  energy without entropy =      -38.94708545  energy(sigma->0) =      -38.94708545


--------------------------------------------------------------------------------------------------------




--------------------------------------- Iteration      1(   4)  ---------------------------------------


     EDDAV:  cpu time    1.6995: real time    1.7048
       DOS:  cpu time    0.0002: real time    0.0002
    --------------------------------------------
      LOOP:  cpu time    1.6996: real time    1.7050

 eigenvalue-minimisations  :  1460
 total energy-change (2. order) :-0.3313438E+00  (-0.3302864E+00)
 number of electron      16.0000000 magnetization 
 augmentation part       16.0000000 magnetization 

 Free energy of the ion-electron system (eV)
  ---------------------------------------------------
  alpha Z        PSCENC =        12.54445055
  Ewald energy   TEWEN  =      3395.13959526
  -Hartree energ DENC   =     -3856.29216807
  -exchange      EXHF   =         0.00000000
  -V(xc)+E(xc)   XCENC  =        53.01502258
  PAW double counting   =       434.08818552     -436.36580876
  entropy T*S    EENTRO =        -0.00000000
  eigenvalues    EBANDS =      -230.02540012
  atomic energy  EATOM  =       588.61769381
  Solvation  Ediel_sol  =         0.00000000
  ---------------------------------------------------
  free energy    TOTEN  =       -39.27842924 eV

  energy without entropy =      -39.27842924  energy(sigma->0) =      -39.27842924


--------------------------------------------------------------------------------------------------------




--------------------------------------- Iteration      1(   5)  ---------------------------------------


     EDDAV:  cpu time    1.7032: real time    1.7087
       DOS:  cpu time    0.0002: real time    0.0002
    CHARGE:  cpu time    0.1904: real time    0.1908
    MIXING:  cpu time    0.0025: real time    0.0025
    --------------------------------------------
      LOOP:  cpu time    1.8962: real time    1.9022

 eigenvalue-minimisations  :  1484
 total energy-change (2. order) :-0.1007421E-01  (-0.1005640E-01)
 number of electron      16.0000000 magnetization 
 augmentation part        0.4273873 magnetization 

 Broyden mixing:
  rms(total) = 0.90238E+00    rms(broyden)= 0.90237E+00
  rms(prec ) = 0.96301E+00
  weight for this iteration     100.00

 Free energy of the ion-electron system (eV)
  ---------------------------------------------------
  alpha Z        PSCENC =        12.54445055
  Ewald energy   TEWEN  =      3395.13959526
  -Hartree energ DENC   =     -3856.29216807
  -exchange      EXHF   =         0.00000000
  -V(xc)+E(xc)   XCENC  =        53.01502258
  PAW double counting   =       434.08818552     -436.36580876
  entropy T*S    EENTRO =        -0.00000000
  eigenvalues    EBANDS =      -230.03547433
  atomic energy  EATOM  =       588.61769381
  Solvation  Ediel_sol  =         0.00000000
  ---------------------------------------------------
  free energy    TOTEN  =       -39.28850345 eV

  energy without entropy =      -39.28850345  energy(sigma->0) =      -39.28850345


--------------------------------------------------------------------------------------------------------




--------------------------------------- Iteration      1(   6)  ---------------------------------------


    POTLOK:  cpu time    0.0735: real time    0.0738
    SETDIJ:  cpu time    0.0361: real time    0.0362
     EDDAV:  cpu time    1.6121: real time    1.6175
       DOS:  cpu time    0.0002: real time    0.0002
    CHARGE:  cpu time    0.1894: real time    0.1898
    MIXING:  cpu time    0.0027: real time    0.0027
    --------------------------------------------
      LOOP:  cpu time    1.9140: real time    1.9203

 eigenvalue-minimisations  :  1360
 total energy-change (2. order) : 0.1825172E+01  (-0.1705068E+00)
 number of electron      16.0000000 magnetization 
 augmentation part        0.4086336 magnetization 

 Broyden mixing:
  rms(total) = 0.52927E+00    rms(broyden)= 0.52927E+00
  rms(prec ) = 0.55884E+00
  weight for this iteration     100.00

 eigenvalues of (default mixing * dielectric matrix)
  average eigenvalue GAMMA=   2.2063
  2.2063

 Free energy of the ion-electron system (eV)
  ---------------------------------------------------
  alpha Z        PSCENC =        12.54445055
  Ewald energy   TEWEN  =      3395.13959526
  -Hartree energ DENC   =     -3874.87530421
  -exchange      EXHF   =         0.00000000
  -V(xc)+E(xc)   XCENC  =        53.98965822
  PAW double counting   =       803.37487278     -805.95006066
  entropy T*S    EENTRO =        -0.00000000
  eigenvalues    EBANDS =      -210.30423751
  atomic energy  EATOM  =       588.61769381
  Solvation  Ediel_sol  =         0.00000000
  ---------------------------------------------------
  free energy    TOTEN  =       -37.46333176 eV

  energy without entropy =      -37.46333176  energy(sigma->0) =      -37.46333176


--------------------------------------------------------------------------------------------------------




--------------------------------------- Iteration      1(   7)  ---------------------------------------


    POTLOK:  cpu time    0.0741: real time    0.0743
    SETDIJ:  cpu time    0.0386: real time    0.0387
     EDDAV:  cpu time    1.6925: real time    1.6975
       DOS:  cpu time    0.0001: real time    0.0001
    CHARGE:  cpu time    0.1767: real time    0.1771
    MIXING:  cpu time    0.0027: real time    0.0027
    --------------------------------------------
      LOOP:  cpu time    1.9847: real time    1.9905

 eigenvalue-minimisations  :  1424
 total energy-change (2. order) : 0.6443142E+00  (-0.2141381E+00)
 number of electron      16.0000000 magnetization 
 augmentation part        0.3870351 magnetization 

 Broyden mixing:
  rms(total) = 0.13460E+00    rms(broyden)= 0.13460E+00
  rms(prec ) = 0.14098E+00
  weight for this iteration     100.00

 eigenvalues of (default mixing * dielectric matrix)
  average eigenvalue GAMMA=   2.2445
  2.0996  2.3895

 Free energy of the ion-electron system (eV)
  ---------------------------------------------------
  alpha Z        PSCENC =        12.54445055
  Ewald energy   TEWEN  =      3395.13959526
  -Hartree energ DENC   =     -3899.11946737
  -exchange      EXHF   =         0.00000000
  -V(xc)+E(xc)   XCENC  =        55.24025282
  PAW double counting   =      1520.64631829    -1523.48478669
  entropy T*S    EENTRO =        -0.00000000
  eigenvalues    EBANDS =      -186.40307421
  atomic energy  EATOM  =       588.61769381
  Solvation  Ediel_sol  =         0.00000000
  ---------------------------------------------------
  free energy    TOTEN  =       -36.81901755 eV

  energy without entropy =      -36.81901755  energy(sigma->0) =      -36.81901755


--------------------------------------------------------------------------------------------------------




--------------------------------------- Iteration      1(   8)  ---------------------------------------


    POTLOK:  cpu time    0.0725: real time    0.0727
    SETDIJ:  cpu time    0.0381: real time    0.0382
     EDDAV:  cpu time    1.7215: real time    1.7266
       DOS:  cpu time    0.0002: real time    0.0002
    CHARGE:  cpu time    0.1829: real time    0.1833
    MIXING:  cpu time    0.0028: real time    0.0029
    --------------------------------------------
      LOOP:  cpu time    2.0179: real time    2.0238

 eigenvalue-minimisations  :  1456
 total energy-change (2. order) : 0.9295512E-02  (-0.8016785E-02)
 number of electron      16.0000000 magnetization 
 augmentation part        0.3867606 magnetization 

 Broyden mixing:
  rms(total) = 0.12198E-01    rms(broyden)= 0.12198E-01
  rms(prec ) = 0.28874E-01
  weight for this iteration     100.00

 eigenvalues of (default mixing * dielectric matrix)
  average eigenvalue GAMMA=   1.8968
  1.2306  2.3623  2.0975

 Free energy of the ion-electron system (eV)
  ---------------------------------------------------
  alpha Z        PSCENC =        12.54445055
  Ewald energy   TEWEN  =      3395.13959526
  -Hartree energ DENC   =     -3901.45590846
  -exchange      EXHF   =         0.00000000
  -V(xc)+E(xc)   XCENC  =        55.20855391
  PAW double counting   =      1708.41293611    -1711.14418640
  entropy T*S    EENTRO =        -0.00000000
  eigenvalues    EBANDS =      -184.13285681
  atomic energy  EATOM  =       588.61769381
  Solvation  Ediel_sol  =         0.00000000
  ---------------------------------------------------
  free energy    TOTEN  =       -36.80972204 eV

  energy without entropy =      -36.80972204  energy(sigma->0) =      -36.80972204


--------------------------------------------------------------------------------------------------------




--------------------------------------- Iteration      1(   9)  ---------------------------------------


    POTLOK:  cpu time    0.0727: real time    0.0730
    SETDIJ:  cpu time    0.0383: real time    0.0384
     EDDAV:  cpu time    1.6964: real time    1.7014
       DOS:  cpu time    0.0001: real time    0.0001
    CHARGE:  cpu time    0.1752: real time    0.1756
    MIXING:  cpu time    0.0028: real time    0.0028
    --------------------------------------------
      LOOP:  cpu time    1.9856: real time    1.9914

 eigenvalue-minimisations  :  1440
 total energy-change (2. order) : 0.2650059E-02  (-0.3846407E-03)
 number of electron      16.0000000 magnetization 
 augmentation part        0.3862940 magnetization 

 Broyden mixing:
  rms(total) = 0.96988E-02    rms(broyden)= 0.96988E-02
  rms(prec ) = 0.25796E-01
  weight for this iteration     100.00

 eigenvalues of (default mixing * dielectric matrix)
  average eigenvalue GAMMA=   1.9492
  1.0641  2.3765  2.3765  1.9799

 Free energy of the ion-electron system (eV)
  ---------------------------------------------------
  alpha Z        PSCENC =        12.54445055
  Ewald energy   TEWEN  =      3395.13959526
  -Hartree energ DENC   =     -3902.87642070
  -exchange      EXHF   =         0.00000000
  -V(xc)+E(xc)   XCENC  =        55.23143783
  PAW double counting   =      1709.08280211    -1711.81393257
  entropy T*S    EENTRO =        -0.00000000
  eigenvalues    EBANDS =      -182.73269826
  atomic energy  EATOM  =       588.61769381
  Solvation  Ediel_sol  =         0.00000000
  ---------------------------------------------------
  free energy    TOTEN  =       -36.80707198 eV

  energy without entropy =      -36.80707198  energy(sigma->0) =      -36.80707198


--------------------------------------------------------------------------------------------------------




--------------------------------------- Iteration      1(  10)  ---------------------------------------


    POTLOK:  cpu time    0.0712: real time    0.0714
    SETDIJ:  cpu time    0.0344: real time    0.0345
     EDDAV:  cpu time    1.6058: real time    1.6105
       DOS:  cpu time    0.0001: real time    0.0001
    CHARGE:  cpu time    0.1752: real time    0.1757
    MIXING:  cpu time    0.0029: real time    0.0029
    --------------------------------------------
      LOOP:  cpu time    1.8897: real time    1.8951

 eigenvalue-minimisations  :  1368
 total energy-change (2. order) : 0.5816518E-02  (-0.2542532E-03)
 number of electron      16.0000000 magnetization 
 augmentation part        0.3858410 magnetization 

 Broyden mixing:
  rms(total) = 0.77979E-02    rms(broyden)= 0.77979E-02
  rms(prec ) = 0.19908E-01
  weight for this iteration     100.00

 eigenvalues of (default mixing * dielectric matrix)
  average eigenvalue GAMMA=   1.8990
  2.9350  2.5799  1.9381  1.1382  0.9038

 Free energy of the ion-electron system (eV)
  ---------------------------------------------------
  alpha Z        PSCENC =        12.54445055
  Ewald energy   TEWEN  =      3395.13959526
  -Hartree energ DENC   =     -3906.52440294
  -exchange      EXHF   =         0.00000000
  -V(xc)+E(xc)   XCENC  =        55.27273872
  PAW double counting   =      1694.21550366    -1696.94566119
  entropy T*S    EENTRO =        -0.00000000
  eigenvalues    EBANDS =      -179.12117333
  atomic energy  EATOM  =       588.61769381
  Solvation  Ediel_sol  =         0.00000000
  ---------------------------------------------------
  free energy    TOTEN  =       -36.80125546 eV

  energy without entropy =      -36.80125546  energy(sigma->0) =      -36.80125546


--------------------------------------------------------------------------------------------------------




--------------------------------------- Iteration      1(  11)  ---------------------------------------


    POTLOK:  cpu time    0.0708: real time    0.0710
    SETDIJ:  cpu time    0.0346: real time    0.0347
     EDDAV:  cpu time    1.5632: real time    1.5680
       DOS:  cpu time    0.0002: real time    0.0002
    CHARGE:  cpu time    0.1823: real time    0.1827
    MIXING:  cpu time    0.0035: real time    0.0035
    --------------------------------------------
      LOOP:  cpu time    1.8545: real time    1.8601

 eigenvalue-minimisations  :  1324
 total energy-change (2. order) : 0.3813278E-02  (-0.1807943E-03)
 number of electron      16.0000000 magnetization 
 augmentation part        0.3857178 magnetization 

 Broyden mixing:
  rms(total) = 0.52756E-02    rms(broyden)= 0.52756E-02
  rms(prec ) = 0.15096E-01
  weight for this iteration     100.00

 eigenvalues of (default mixing * dielectric matrix)
  average eigenvalue GAMMA=   2.1230
  4.4402  2.4188  2.1037  0.9916  1.3918  1.3918

 Free energy of the ion-electron system (eV)
  ---------------------------------------------------
  alpha Z        PSCENC =        12.54445055
  Ewald energy   TEWEN  =      3395.13959526
  -Hartree energ DENC   =     -3909.38274975
  -exchange      EXHF   =         0.00000000
  -V(xc)+E(xc)   XCENC  =        55.29164997
  PAW double counting   =      1705.21073460    -1707.93274810
  entropy T*S    EENTRO =        -0.00000000
  eigenvalues    EBANDS =      -176.28606852
  atomic energy  EATOM  =       588.61769381
  Solvation  Ediel_sol  =         0.00000000
  ---------------------------------------------------
  free energy    TOTEN  =       -36.79744218 eV

  energy without entropy =      -36.79744218  energy(sigma->0) =      -36.79744218


--------------------------------------------------------------------------------------------------------




--------------------------------------- Iteration      1(  12)  ---------------------------------------


    POTLOK:  cpu time    0.0698: real time    0.0701
    SETDIJ:  cpu time    0.0358: real time    0.0359
     EDDAV:  cpu time    1.5343: real time    1.5392
       DOS:  cpu time    0.0002: real time    0.0002
    CHARGE:  cpu time    0.1829: real time    0.1834
    MIXING:  cpu time    0.0031: real time    0.0031
    --------------------------------------------
      LOOP:  cpu time    1.8261: real time    1.8319

 eigenvalue-minimisations  :  1280
 total energy-change (2. order) : 0.3818781E-02  (-0.1633279E-03)
 number of electron      16.0000000 magnetization 
 augmentation part        0.3854598 magnetization 

 Broyden mixing:
  rms(total) = 0.36397E-02    rms(broyden)= 0.36397E-02
  rms(prec ) = 0.11210E-01
  weight for this iteration     100.00

 eigenvalues of (default mixing * dielectric matrix)
  average eigenvalue GAMMA=   2.4415
  6.4465  2.7558  2.2228  2.0959  1.4766  1.0407  1.0525

 Free energy of the ion-electron system (eV)
  ---------------------------------------------------
  alpha Z        PSCENC =        12.54445055
  Ewald energy   TEWEN  =      3395.13959526
  -Hartree energ DENC   =     -3912.72328659
  -exchange      EXHF   =         0.00000000
  -V(xc)+E(xc)   XCENC  =        55.30913846
  PAW double counting   =      1700.25693534    -1702.98286751
  entropy T*S    EENTRO =        -0.00000000
  eigenvalues    EBANDS =      -172.95528271
  atomic energy  EATOM  =       588.61769381
  Solvation  Ediel_sol  =         0.00000000
  ---------------------------------------------------
  free energy    TOTEN  =       -36.79362340 eV

  energy without entropy =      -36.79362340  energy(sigma->0) =      -36.79362340


--------------------------------------------------------------------------------------------------------




--------------------------------------- Iteration      1(  13)  ---------------------------------------


    POTLOK:  cpu time    0.0670: real time    0.0672
    SETDIJ:  cpu time    0.0368: real time    0.0369
     EDDAV:  cpu time    1.5112: real time    1.5162
       DOS:  cpu time    0.0001: real time    0.0001
    CHARGE:  cpu time    0.1756: real time    0.1760
    MIXING:  cpu time    0.0032: real time    0.0032
    --------------------------------------------
      LOOP:  cpu time    1.7939: real time    1.7996

 eigenvalue-minimisations  :  1244
 total energy-change (2. order) : 0.1616254E-03  (-0.4283851E-04)
 number of electron      16.0000000 magnetization 
 augmentation part        0.3854629 magnetization 

 Broyden mixing:
  rms(total) = 0.33086E-02    rms(broyden)= 0.33086E-02
  rms(prec ) = 0.81994E-02
  weight for this iteration     100.00

 eigenvalues of (default mixing * dielectric matrix)
  average eigenvalue GAMMA=   2.6105
  7.6782  3.5961  2.4336  2.0686  1.6255  1.4621  1.0101  1.0101

 Free energy of the ion-electron system (eV)
  ---------------------------------------------------
  alpha Z        PSCENC =        12.54445055
  Ewald energy   TEWEN  =      3395.13959526
  -Hartree energ DENC   =     -3915.04463601
  -exchange      EXHF   =         0.00000000
  -V(xc)+E(xc)   XCENC  =        55.30198160
  PAW double counting   =      1699.83954576    -1702.56563852
  entropy T*S    EENTRO =        -0.00000000
  eigenvalues    EBANDS =      -170.62645422
  atomic energy  EATOM  =       588.61769381
  Solvation  Ediel_sol  =         0.00000000
  ---------------------------------------------------
  free energy    TOTEN  =       -36.79346178 eV

  energy without entropy =      -36.79346178  energy(sigma->0) =      -36.79346178


--------------------------------------------------------------------------------------------------------




--------------------------------------- Iteration      1(  14)  ---------------------------------------


    POTLOK:  cpu time    0.0643: real time    0.0645
    SETDIJ:  cpu time    0.0361: real time    0.0362
     EDDAV:  cpu time    1.5654: real time    1.5705
       DOS:  cpu time    0.0002: real time    0.0002
    CHARGE:  cpu time    0.1748: real time    0.1753
    MIXING:  cpu time    0.0033: real time    0.0033
    --------------------------------------------
      LOOP:  cpu time    1.8441: real time    1.8500

 eigenvalue-minimisations  :  1328
 total energy-change (2. order) :-0.7869552E-03  (-0.4638253E-04)
 number of electron      16.0000000 magnetization 
 augmentation part        0.3853923 magnetization 

 Broyden mixing:
  rms(total) = 0.29512E-02    rms(broyden)= 0.29512E-02
  rms(prec ) = 0.50360E-02
  weight for this iteration     100.00

 eigenvalues of (default mixing * dielectric matrix)
  average eigenvalue GAMMA=   3.0898
 10.7992  4.8241  2.9364  2.4648  2.0160  1.5434  1.0045  1.0045  1.2155

 Free energy of the ion-electron system (eV)
  ---------------------------------------------------
  alpha Z        PSCENC =        12.54445055
  Ewald energy   TEWEN  =      3395.13959526
  -Hartree energ DENC   =     -3917.10251188
  -exchange      EXHF   =         0.00000000
  -V(xc)+E(xc)   XCENC  =        55.30209216
  PAW double counting   =      1702.87526778    -1705.60138380
  entropy T*S    EENTRO =        -0.00000000
  eigenvalues    EBANDS =      -168.56945261
  atomic energy  EATOM  =       588.61769381
  Solvation  Ediel_sol  =         0.00000000
  ---------------------------------------------------
  free energy    TOTEN  =       -36.79424873 eV

  energy without entropy =      -36.79424873  energy(sigma->0) =      -36.79424873


--------------------------------------------------------------------------------------------------------




--------------------------------------- Iteration      1(  15)  ---------------------------------------


    POTLOK:  cpu time    0.0639: real time    0.0641
    SETDIJ:  cpu time    0.0351: real time    0.0352
     EDDAV:  cpu time    1.5912: real time    1.5964
       DOS:  cpu time    0.0002: real time    0.0002
    CHARGE:  cpu time    0.1786: real time    0.1790
    MIXING:  cpu time    0.0033: real time    0.0033
    --------------------------------------------
      LOOP:  cpu time    1.8722: real time    1.8782

 eigenvalue-minimisations  :  1348
 total energy-change (2. order) :-0.6876500E-03  (-0.1660570E-04)
 number of electron      16.0000000 magnetization 
 augmentation part        0.3853135 magnetization 

 Broyden mixing:
  rms(total) = 0.30376E-02    rms(broyden)= 0.30376E-02
  rms(prec ) = 0.34426E-02
  weight for this iteration     100.00

 eigenvalues of (default mixing * dielectric matrix)
  average eigenvalue GAMMA=   3.7624
 16.0746  6.8361  2.8395  2.8395  2.2628  2.0761  1.5846  1.0033  1.0033  1.1043

 Free energy of the ion-electron system (eV)
  ---------------------------------------------------
  alpha Z        PSCENC =        12.54445055
  Ewald energy   TEWEN  =      3395.13959526
  -Hartree energ DENC   =     -3918.66328016
  -exchange      EXHF   =         0.00000000
  -V(xc)+E(xc)   XCENC  =        55.31004642
  PAW double counting   =      1696.94484173    -1699.66983324
  entropy T*S    EENTRO =        -0.00000000
  eigenvalues    EBANDS =      -167.01845074
  atomic energy  EATOM  =       588.61769381
  Solvation  Ediel_sol  =         0.00000000
  ---------------------------------------------------
  free energy    TOTEN  =       -36.79493638 eV

  energy without entropy =      -36.79493638  energy(sigma->0) =      -36.79493638


--------------------------------------------------------------------------------------------------------




--------------------------------------- Iteration      1(  16)  ---------------------------------------


    POTLOK:  cpu time    0.0651: real time    0.0680
    SETDIJ:  cpu time    0.0362: real time    0.0363
     EDDAV:  cpu time    1.5683: real time    1.5731
       DOS:  cpu time    0.0002: real time    0.0002
    CHARGE:  cpu time    0.1799: real time    0.1804
    MIXING:  cpu time    0.0036: real time    0.0036
    --------------------------------------------
      LOOP:  cpu time    1.8534: real time    1.8615

 eigenvalue-minimisations  :  1316
 total energy-change (2. order) :-0.3962331E-03  (-0.3756372E-05)
 number of electron      16.0000000 magnetization 
 augmentation part        0.3853533 magnetization 

 Broyden mixing:
  rms(total) = 0.91257E-03    rms(broyden)= 0.91257E-03
  rms(prec ) = 0.10775E-02
  weight for this iteration     100.00

 eigenvalues of (default mixing * dielectric matrix)
  average eigenvalue GAMMA=   4.2612
 22.5220  7.0050  4.1046  2.7737  2.4679  2.0055  1.0059  1.0059  1.0303  1.5244
  1.4284

 Free energy of the ion-electron system (eV)
  ---------------------------------------------------
  alpha Z        PSCENC =        12.54445055
  Ewald energy   TEWEN  =      3395.13959526
  -Hartree energ DENC   =     -3918.63396808
  -exchange      EXHF   =         0.00000000
  -V(xc)+E(xc)   XCENC  =        55.30482746
  PAW double counting   =      1700.20997656    -1702.93519214
  entropy T*S    EENTRO =        -0.00000000
  eigenvalues    EBANDS =      -167.04271603
  atomic energy  EATOM  =       588.61769381
  Solvation  Ediel_sol  =         0.00000000
  ---------------------------------------------------
  free energy    TOTEN  =       -36.79533262 eV

  energy without entropy =      -36.79533262  energy(sigma->0) =      -36.79533262


--------------------------------------------------------------------------------------------------------




--------------------------------------- Iteration      1(  17)  ---------------------------------------


    POTLOK:  cpu time    0.0657: real time    0.0659
    SETDIJ:  cpu time    0.0359: real time    0.0360
     EDDAV:  cpu time    1.5780: real time    1.5828
       DOS:  cpu time    0.0002: real time    0.0002
    CHARGE:  cpu time    0.1735: real time    0.1739
    MIXING:  cpu time    0.0036: real time    0.0036
    --------------------------------------------
      LOOP:  cpu time    1.8568: real time    1.8624

 eigenvalue-minimisations  :  1332
 total energy-change (2. order) :-0.1260420E-03  (-0.9060735E-06)
 number of electron      16.0000000 magnetization 
 augmentation part        0.3853383 magnetization 

 Broyden mixing:
  rms(total) = 0.89932E-03    rms(broyden)= 0.89932E-03
  rms(prec ) = 0.91382E-03
  weight for this iteration     100.00

 eigenvalues of (default mixing * dielectric matrix)
  average eigenvalue GAMMA=   4.3437
 24.8766  7.4601  4.4645  2.8419  2.5555  2.2141  2.0657  1.5907  1.0985  1.0030
  1.0030  0.9503

 Free energy of the ion-electron system (eV)
  ---------------------------------------------------
  alpha Z        PSCENC =        12.54445055
  Ewald energy   TEWEN  =      3395.13959526
  -Hartree energ DENC   =     -3918.83299941
  -exchange      EXHF   =         0.00000000
  -V(xc)+E(xc)   XCENC  =        55.30663017
  PAW double counting   =      1700.50875698    -1703.23410623
  entropy T*S    EENTRO =        -0.00000000
  eigenvalues    EBANDS =      -166.84547978
  atomic energy  EATOM  =       588.61769381
  Solvation  Ediel_sol  =         0.00000000
  ---------------------------------------------------
  free energy    TOTEN  =       -36.79545866 eV

  energy without entropy =      -36.79545866  energy(sigma->0) =      -36.79545866


--------------------------------------------------------------------------------------------------------




--------------------------------------- Iteration      1(  18)  ---------------------------------------


    POTLOK:  cpu time    0.0663: real time    0.0689
    SETDIJ:  cpu time    0.0351: real time    0.0352
     EDDAV:  cpu time    1.5776: real time    1.5828
       DOS:  cpu time    0.0002: real time    0.0002
    CHARGE:  cpu time    0.1744: real time    0.1748
    MIXING:  cpu time    0.0037: real time    0.0037
    --------------------------------------------
      LOOP:  cpu time    1.8573: real time    1.8656

 eigenvalue-minimisations  :  1340
 total energy-change (2. order) :-0.3062041E-04  (-0.1442384E-06)
 number of electron      16.0000000 magnetization 
 augmentation part        0.3853276 magnetization 

 Broyden mixing:
  rms(total) = 0.15627E-03    rms(broyden)= 0.15627E-03
  rms(prec ) = 0.16491E-03
  weight for this iteration     100.00

 eigenvalues of (default mixing * dielectric matrix)
  average eigenvalue GAMMA=   4.1572
 25.0003  7.5134  4.4011  2.7901  2.7901  2.4379  1.9677  1.5302  1.5302  1.0636
  0.9906  1.0140  1.0140

 Free energy of the ion-electron system (eV)
  ---------------------------------------------------
  alpha Z        PSCENC =        12.54445055
  Ewald energy   TEWEN  =      3395.13959526
  -Hartree energ DENC   =     -3918.85213765
  -exchange      EXHF   =         0.00000000
  -V(xc)+E(xc)   XCENC  =        55.30690352
  PAW double counting   =      1699.48464204    -1702.21005641
  entropy T*S    EENTRO =        -0.00000000
  eigenvalues    EBANDS =      -166.82658040
  atomic energy  EATOM  =       588.61769381
  Solvation  Ediel_sol  =         0.00000000
  ---------------------------------------------------
  free energy    TOTEN  =       -36.79548928 eV

  energy without entropy =      -36.79548928  energy(sigma->0) =      -36.79548928


--------------------------------------------------------------------------------------------------------




--------------------------------------- Iteration      1(  19)  ---------------------------------------


    POTLOK:  cpu time    0.0658: real time    0.0660
    SETDIJ:  cpu time    0.0349: real time    0.0350
     EDDAV:  cpu time    1.6201: real time    1.6250
       DOS:  cpu time    0.0002: real time    0.0002
    CHARGE:  cpu time    0.1777: real time    0.1781
    MIXING:  cpu time    0.0039: real time    0.0039
    --------------------------------------------
      LOOP:  cpu time    1.9025: real time    1.9082

 eigenvalue-minimisations  :  1364
 total energy-change (2. order) :-0.4213525E-05  (-0.2377615E-07)
 number of electron      16.0000000 magnetization 
 augmentation part        0.3853321 magnetization 

 Broyden mixing:
  rms(total) = 0.72592E-04    rms(broyden)= 0.72590E-04
  rms(prec ) = 0.75750E-04
  weight for this iteration     100.00

 eigenvalues of (default mixing * dielectric matrix)
  average eigenvalue GAMMA=   4.0540
 25.1847  7.5363  4.5545  3.3611  2.8081  2.4838  2.1717  2.0100  1.5993  1.0779
  1.0064  1.0064  0.9780  0.9780

 Free energy of the ion-electron system (eV)
  ---------------------------------------------------
  alpha Z        PSCENC =        12.54445055
  Ewald energy   TEWEN  =      3395.13959526
  -Hartree energ DENC   =     -3918.83465354
  -exchange      EXHF   =         0.00000000
  -V(xc)+E(xc)   XCENC  =        55.30651196
  PAW double counting   =      1699.54161286    -1702.26687111
  entropy T*S    EENTRO =        -0.00000000
  eigenvalues    EBANDS =      -166.84383328
  atomic energy  EATOM  =       588.61769381
  Solvation  Ediel_sol  =         0.00000000
  ---------------------------------------------------
  free energy    TOTEN  =       -36.79549349 eV

  energy without entropy =      -36.79549349  energy(sigma->0) =      -36.79549349


--------------------------------------------------------------------------------------------------------




--------------------------------------- Iteration      1(  20)  ---------------------------------------


    POTLOK:  cpu time    0.0678: real time    0.0705
    SETDIJ:  cpu time    0.0381: real time    0.0382
     EDDAV:  cpu time    1.6208: real time    1.6257
       DOS:  cpu time    0.0002: real time    0.0002
    CHARGE:  cpu time    0.1806: real time    0.1810
    MIXING:  cpu time    0.0040: real time    0.0040
    --------------------------------------------
      LOOP:  cpu time    1.9114: real time    1.9196

 eigenvalue-minimisations  :  1348
 total energy-change (2. order) :-0.1692604E-05  (-0.6460641E-08)
 number of electron      16.0000000 magnetization 
 augmentation part        0.3853312 magnetization 

 Broyden mixing:
  rms(total) = 0.98209E-05    rms(broyden)= 0.98064E-05
  rms(prec ) = 0.10525E-04
  weight for this iteration     100.00

 eigenvalues of (default mixing * dielectric matrix)
  average eigenvalue GAMMA=   3.8816
 25.2179  7.5234  4.5775  3.3753  2.7422  2.5887  2.1638  2.0324  1.5971  0.9737
  1.0030  1.0030  1.0969  1.1646  1.1646

 Free energy of the ion-electron system (eV)
  ---------------------------------------------------
  alpha Z        PSCENC =        12.54445055
  Ewald energy   TEWEN  =      3395.13959526
  -Hartree energ DENC   =     -3918.83714034
  -exchange      EXHF   =         0.00000000
  -V(xc)+E(xc)   XCENC  =        55.30657782
  PAW double counting   =      1699.59759140    -1702.32290510
  entropy T*S    EENTRO =        -0.00000000
  eigenvalues    EBANDS =      -166.84135858
  atomic energy  EATOM  =       588.61769381
  Solvation  Ediel_sol  =         0.00000000
  ---------------------------------------------------
  free energy    TOTEN  =       -36.79549518 eV

  energy without entropy =      -36.79549518  energy(sigma->0) =      -36.79549518


--------------------------------------------------------------------------------------------------------




--------------------------------------- Iteration      1(  21)  ---------------------------------------


    POTLOK:  cpu time    0.0680: real time    0.0682
    SETDIJ:  cpu time    0.0378: real time    0.0379
     EDDAV:  cpu time    1.3737: real time    1.3781
       DOS:  cpu time    0.0002: real time    0.0002
    CHARGE:  cpu time    0.1860: real time    0.1865
    MIXING:  cpu time    0.0043: real time    0.0043
    --------------------------------------------
      LOOP:  cpu time    1.6699: real time    1.6751

 eigenvalue-minimisations  :  1036
 total energy-change (2. order) :-0.1098235E-06  (-0.2631374E-09)
 number of electron      16.0000000 magnetization 
 augmentation part        0.3853313 magnetization 

 Broyden mixing:
  rms(total) = 0.60636E-05    rms(broyden)= 0.60400E-05
  rms(prec ) = 0.64320E-05
  weight for this iteration     100.00

 eigenvalues of (default mixing * dielectric matrix)
  average eigenvalue GAMMA=   3.7894
 25.1957  7.5328  4.5700  3.5238  2.8117  2.8117  2.4652  2.1968  1.9654  1.6009
  1.0452  1.0452  1.0294  0.9916  0.9916  0.8534

 Free energy of the ion-electron system (eV)
  ---------------------------------------------------
  alpha Z        PSCENC =        12.54445055
  Ewald energy   TEWEN  =      3395.13959526
  -Hartree energ DENC   =     -3918.83557672
  -exchange      EXHF   =         0.00000000
  -V(xc)+E(xc)   XCENC  =        55.30656067
  PAW double counting   =      1699.59263681    -1702.31795495
  entropy T*S    EENTRO =        -0.00000000
  eigenvalues    EBANDS =      -166.84290073
  atomic energy  EATOM  =       588.61769381
  Solvation  Ediel_sol  =         0.00000000
  ---------------------------------------------------
  free energy    TOTEN  =       -36.79549529 eV

  energy without entropy =      -36.79549529  energy(sigma->0) =      -36.79549529


--------------------------------------------------------------------------------------------------------




--------------------------------------- Iteration      1(  22)  ---------------------------------------


    POTLOK:  cpu time    0.0699: real time    0.0701
    SETDIJ:  cpu time    0.0387: real time    0.0388
     EDDAV:  cpu time    1.2146: real time    1.2185
       DOS:  cpu time    0.0002: real time    0.0002
    CHARGE:  cpu time    0.1830: real time    0.1835
    MIXING:  cpu time    0.0045: real time    0.0045
    --------------------------------------------
      LOOP:  cpu time    1.5109: real time    1.5156

 eigenvalue-minimisations  :   860
 total energy-change (2. order) :-0.4797471E-07  (-0.1498267E-09)
 number of electron      16.0000000 magnetization 
 augmentation part        0.3853314 magnetization 

 Broyden mixing:
  rms(total) = 0.47270E-05    rms(broyden)= 0.46966E-05
  rms(prec ) = 0.48805E-05
  weight for this iteration     100.00

 eigenvalues of (default mixing * dielectric matrix)
  average eigenvalue GAMMA=   3.6683
 25.1960  7.5275  4.6180  3.3480  3.1901  2.5990  2.5782  2.2280  2.0153  1.6036
  1.3227  1.0842  1.0842  0.9860  0.9860  0.9971  0.9971

 Free energy of the ion-electron system (eV)
  ---------------------------------------------------
  alpha Z        PSCENC =        12.54445055
  Ewald energy   TEWEN  =      3395.13959526
  -Hartree energ DENC   =     -3918.83608070
  -exchange      EXHF   =         0.00000000
  -V(xc)+E(xc)   XCENC  =        55.30656322
  PAW double counting   =      1699.60635334    -1702.33166782
  entropy T*S    EENTRO =        -0.00000000
  eigenvalues    EBANDS =      -166.84240301
  atomic energy  EATOM  =       588.61769381
  Solvation  Ediel_sol  =         0.00000000
  ---------------------------------------------------
  free energy    TOTEN  =       -36.79549534 eV

  energy without entropy =      -36.79549534  energy(sigma->0) =      -36.79549534


--------------------------------------------------------------------------------------------------------




--------------------------------------- Iteration      1(  23)  ---------------------------------------


    POTLOK:  cpu time    0.0689: real time    0.0691
    SETDIJ:  cpu time    0.0346: real time    0.0347
     EDDAV:  cpu time    1.2467: real time    1.2506
       DOS:  cpu time    0.0002: real time    0.0002
    --------------------------------------------
      LOOP:  cpu time    1.3504: real time    1.3545

 eigenvalue-minimisations  :   924
 total energy-change (2. order) :-0.1407443E-08  (-0.3458544E-10)
 number of electron      16.0000000 magnetization 
 augmentation part        0.3853314 magnetization 

 Free energy of the ion-electron system (eV)
  ---------------------------------------------------
  alpha Z        PSCENC =        12.54445055
  Ewald energy   TEWEN  =      3395.13959526
  -Hartree energ DENC   =     -3918.83665081
  -exchange      EXHF   =         0.00000000
  -V(xc)+E(xc)   XCENC  =        55.30657327
  PAW double counting   =      1699.60075266    -1702.32606982
  entropy T*S    EENTRO =        -0.00000000
  eigenvalues    EBANDS =      -166.84184027
  atomic energy  EATOM  =       588.61769381
  Solvation  Ediel_sol  =         0.00000000
  ---------------------------------------------------
  free energy    TOTEN  =       -36.79549534 eV

  energy without entropy =      -36.79549534  energy(sigma->0) =      -36.79549534


--------------------------------------------------------------------------------------------------------




 average (electrostatic) potential at core
  the test charge radii are     0.6991
  (the norm of the test charge is              1.0000)
       1 -56.6702       2 -56.6702       3 -56.6702       4 -56.6702
 
 
 
 E-fermi :  -1.4120     XC(G=0):  -3.8402     alpha+bet : -3.8262


 k-point     1 :       0.0000    0.0000    0.0000
  band No.  band energies     occupation 
      1     -20.9816      2.00000
      2     -20.7072      2.00000
      3      -9.6286      2.00000
      4      -8.1986      2.00000
      5      -4.3021      2.00000
      6      -4.3020      2.00000
      7      -4.2617      2.00000
      8      -4.2617      2.00000
      9       2.2317      0.00000
     10       2.5972      0.00000
     11       3.3578      0.00000
     12       4.4723      0.00000

 k-point     2 :       0.0476    0.0000    0.0000
  band No.  band energies     occupation 
      1     -20.9273      2.00000
      2     -20.6537      2.00000
      3      -9.5633      2.00000
      4      -8.1355      2.00000
      5      -4.5252      2.00000
      6      -4.4809      2.00000
      7      -4.4195      2.00000
      8      -4.3782      2.00000
      9       2.3043      0.00000
     10       2.6706      0.00000
     11       3.4321      0.00000
     12       4.5460      0.00000

 k-point     3 :       0.0952    0.0000    0.0000
  band No.  band energies     occupation 
      1     -20.7647      2.00000
      2     -20.4934      2.00000
      3      -9.3678      2.00000
      4      -7.9468      2.00000
      5      -5.1511      2.00000
      6      -5.0963      2.00000
      7      -4.7408      2.00000
      8      -4.6970      2.00000
      9       2.5222      0.00000
     10       2.8907      0.00000
     11       3.6552      0.00000
     12       4.7672      0.00000

 k-point     4 :       0.1429    0.0000    0.0000
  band No.  band energies     occupation 
      1     -20.4942      2.00000
      2     -20.2268      2.00000
      3      -9.0439      2.00000
      4      -7.6344      2.00000
      5      -6.0788      2.00000
      6      -6.0095      2.00000
      7      -5.1943      2.00000
      8      -5.1474      2.00000
      9       2.8853      0.00000
     10       3.2570      0.00000
     11       4.0269      0.00000
     12       5.1355      0.00000

 k-point     5 :       0.1905    0.0000    0.0000
  band No.  band energies     occupation 
      1     -20.1171      2.00000
      2     -19.8550      2.00000
      3      -8.5945      2.00000
      4      -7.2032      2.00000
      5      -7.2007      2.00000
      6      -7.1135      2.00000
      7      -5.7048      2.00000
      8      -5.6550      2.00000
      9       3.3928      0.00000
     10       3.7685      0.00000
     11       4.5472      0.00000
     12       5.6496      0.00000

 k-point     6 :       0.2381    0.0000    0.0000
  band No.  band energies     occupation 
      1     -19.6347      2.00000
      2     -19.3794      2.00000
      3      -8.4310      2.00000
      4      -8.3276      2.00000
      5      -8.0233      2.00000
      6      -6.6539      2.00000
      7      -6.2134      2.00000
      8      -6.1610      2.00000
      9       4.0431      0.00000
     10       4.4214      0.00000
     11       5.2151      0.00000
     12       5.9387      0.00000

 k-point     7 :       0.2857    0.0000    0.0000
  band No.  band energies     occupation 
      1     -19.0494      2.00000
      2     -18.8022      2.00000
      3      -9.7040      2.00000
      4      -9.5842      2.00000
      5      -7.3416      2.00000
      6      -6.6790      2.00000
      7      -6.6246      2.00000
      8      -6.0014      2.00000
      9       4.5611      0.00000
     10       4.8461      0.00000
     11       5.1322      0.00000
     12       5.5480      0.00000

 k-point     8 :       0.3333    0.0000    0.0000
  band No.  band energies     occupation 
      1     -18.3648      2.00000
      2     -18.1268      2.00000
      3     -10.9768      2.00000
      4     -10.8407      2.00000
      5      -7.0749      2.00000
      6      -7.0189      2.00000
      7      -6.5630      2.00000
      8      -5.2615      2.00000
      9       3.1781      0.00000
     10       4.1464      0.00000
     11       5.7483      0.00000
     12       6.3689      0.00000

 k-point     9 :       0.3810    0.0000    0.0000
  band No.  band energies     occupation 
      1     -17.5871      2.00000
      2     -17.3592      2.00000
      3     -12.2154      2.00000
      4     -12.0639      2.00000
      5      -7.3837      2.00000
      6      -7.3266      2.00000
      7      -5.7204      2.00000
      8      -4.4692      2.00000
      9       1.8406      0.00000
     10       2.9254      0.00000
     11       6.1591      0.00000
     12       6.5176      0.00000

 k-point    10 :       0.4286    0.0000    0.0000
  band No.  band energies     occupation 
      1     -16.7319      2.00000
      2     -16.5141      2.00000
      3     -13.3865      2.00000
      4     -13.2213      2.00000
      5      -7.5947      2.00000
      6      -7.5369      2.00000
      7      -4.8927      2.00000
      8      -3.7055      2.00000
      9       0.6665      0.00000
     10       1.8575      0.00000
     11       6.0693      0.00000
     12       6.4176      0.00000

 k-point    11 :       0.4762    0.0000    0.0000
  band No.  band energies     occupation 
      1     -15.8834      2.00000
      2     -15.6719      2.00000
      3     -14.3954      2.00000
      4     -14.2221      2.00000
      5      -7.7017      2.00000
      6      -7.6435      2.00000
      7      -4.2910      2.00000
      8      -3.1674      2.00000
      9      -0.1131      0.00000
     10       1.1624      0.00000
     11       6.0151      0.00000
     12       6.3652      0.00000

 k-point    12 :       0.0952    0.0476    0.0000
  band No.  band energies     occupation 
      1     -20.8188      2.00000
      2     -20.5468      2.00000
      3      -9.4329      2.00000
      4      -8.0096      2.00000
      5      -4.9340      2.00000
      6      -4.8831      2.00000
      7      -4.6547      2.00000
      8      -4.6111      2.00000
      9       2.4496      0.00000
     10       2.8173      0.00000
     11       3.5808      0.00000
     12       4.6935      0.00000

 k-point    13 :       0.1429    0.0476    0.0000
  band No.  band energies     occupation 
      1     -20.6023      2.00000
      2     -20.3334      2.00000
      3      -9.1732      2.00000
      4      -7.7590      2.00000
      5      -5.6775      2.00000
      6      -5.6150      2.00000
      7      -5.0760      2.00000
      8      -5.0286      2.00000
      9       2.7402      0.00000
     10       3.1106      0.00000
     11       3.8783      0.00000
     12       4.9884      0.00000

 k-point    14 :       0.1905    0.0476    0.0000
[...]
      7      -6.2327      2.00000
      8      -6.1722      2.00000
      9       3.6113      0.00000
     10       3.9882      0.00000
     11       4.7709      0.00000
     12       5.8716      0.00000

 k-point    24 :       0.2857    0.0952    0.0000
  band No.  band energies     occupation 
      1     -19.4748      2.00000
      2     -19.2217      2.00000
      3      -8.4851      2.00000
      4      -8.3830      2.00000
      5      -7.8346      2.00000
      6      -6.8124      2.00000
      7      -6.7482      2.00000
      8      -6.4713      2.00000
      9       4.2623      0.00000
     10       4.6418      0.00000
     11       5.4397      0.00000
     12       5.6688      0.00000

 k-point    25 :       0.3333    0.0952    0.0000
  band No.  band energies     occupation 
      1     -18.8911      2.00000
      2     -18.6461      2.00000
      3      -9.6820      2.00000
      4      -9.5637      2.00000
      5      -7.3221      2.00000
      6      -7.2519      2.00000
      7      -7.1531      2.00000
      8      -5.8220      2.00000
      9       4.3786      0.00000
     10       5.0580      0.00000
     11       5.1706      0.00000
     12       5.5059      0.00000

 k-point    26 :       0.3810    0.0952    0.0000
  band No.  band energies     occupation 
      1     -18.2087      2.00000
      2     -17.9729      2.00000
      3     -10.9069      2.00000
      4     -10.7725      2.00000
      5      -7.7403      2.00000
      6      -7.6689      2.00000
      7      -6.3781      2.00000
      8      -5.0843      2.00000
      9       3.0582      0.00000
     10       3.9986      0.00000
     11       5.9843      0.00000
     12       6.4005      0.00000

 k-point    27 :       0.4286    0.0952    0.0000
  band No.  band energies     occupation 
      1     -17.4342      2.00000
      2     -17.2084      2.00000
      3     -12.1149      2.00000
      4     -11.9651      2.00000
      5      -8.0621      2.00000
      6      -7.9890      2.00000
      7      -5.5365      2.00000
      8      -4.2923      2.00000
      9       1.7719      0.00000
     10       2.8174      0.00000
     11       6.9466      0.00000
     12       7.4223      0.00000

 k-point    28 :       0.4762    0.0952    0.0000
  band No.  band energies     occupation 
      1     -16.5835      2.00000
      2     -16.3679      2.00000
      3     -13.2661      2.00000
      4     -13.1025      2.00000
      5      -8.2798      2.00000
      6      -8.2056      2.00000
      7      -4.7055      2.00000
      8      -3.5239      2.00000
      9       0.6274      0.00000
     10       1.7738      0.00000
     11       6.9867      0.00000
     12       7.3549      0.00000

 k-point    29 :      -0.4762    0.0952    0.0000
  band No.  band energies     occupation 
      1     -15.7413      2.00000
      2     -15.5323      2.00000
      3     -14.2617      2.00000
      4     -14.0898      2.00000
      5      -8.3896      2.00000
      6      -8.3149      2.00000
      7      -4.0946      2.00000
      8      -2.9758      2.00000
      9      -0.1453      0.00000
     10       1.0834      0.00000
     11       6.9352      0.00000
     12       7.3025      0.00000

 k-point    30 :       0.2857    0.1429    0.0000
  band No.  band energies     occupation 
      1     -19.5282      2.00000
      2     -19.2744      2.00000
      3      -8.1973      2.00000
      4      -8.1003      2.00000
      5      -7.8972      2.00000
      6      -6.9770      2.00000
      7      -6.9081      2.00000
      8      -6.5305      2.00000
      9       4.1911      0.00000
     10       4.5713      0.00000
     11       5.3660      0.00000
     12       5.8401      0.00000

 k-point    31 :       0.3333    0.1429    0.0000
  band No.  band energies     occupation 
      1     -18.9971      2.00000
      2     -18.7506      2.00000
      3      -9.1713      2.00000
      4      -9.0610      2.00000
      5      -7.6601      2.00000
      6      -7.5810      2.00000
      7      -7.2733      2.00000
      8      -5.9358      2.00000
      9       4.6986      0.00000
     10       4.9143      0.00000
     11       5.2870      0.00000
     12       5.5049      0.00000

 k-point    32 :       0.3810    0.1429    0.0000
  band No.  band energies     occupation 
      1     -18.3659      2.00000
      2     -18.1281      2.00000
      3     -10.2715      2.00000
      4     -10.1463      2.00000
      5      -8.2048      2.00000
      6      -8.1216      2.00000
      7      -6.5473      2.00000
      8      -5.2430      2.00000
      9       3.4867      0.00000
     10       4.3581      0.00000
     11       5.7753      0.00000
     12       6.1691      0.00000

 k-point    33 :       0.4286    0.1429    0.0000
  band No.  band energies     occupation 
      1     -17.6397      2.00000
      2     -17.4115      2.00000
      3     -11.4257      2.00000
      4     -11.2851      2.00000
      5      -8.6177      2.00000
      6      -8.5313      2.00000
      7      -5.7356      2.00000
      8      -4.4747      2.00000
      9       2.2545      0.00000
     10       3.2143      0.00000
     11       6.7697      0.00000
     12       7.1725      0.00000

 k-point    34 :       0.4762    0.1429    0.0000
  band No.  band energies     occupation 
      1     -16.8286      2.00000
      2     -16.6108      2.00000
      3     -12.5713      2.00000
      4     -12.4161      2.00000
      5      -8.9086      2.00000
      6      -8.8201      2.00000
      7      -4.8839      2.00000
      8      -3.6778      2.00000
      9       1.0776      0.00000
     10       2.1292      0.00000
     11       7.8283      0.00000
     12       8.1445      0.00000

 k-point    35 :      -0.4762    0.1429    0.0000
  band No.  band energies     occupation 
      1     -15.9650      2.00000
      2     -15.7566      2.00000
      3     -13.6457      2.00000
      4     -13.4784      2.00000
      5      -9.0822      2.00000
      6      -8.9925      2.00000
      7      -4.1132      2.00000
      8      -2.9720      2.00000
      9       0.1012      0.00000
     10       1.2422      0.00000
     11       7.9545      0.00000
     12       8.3651      0.00000

 k-point    36 :      -0.4286    0.1429    0.0000
  band No.  band energies     occupation 
      1     -15.3562      2.00000
      2     -15.1496      2.00000
      3     -14.3264      2.00000
      4     -14.1564      2.00000
      5      -9.1400      2.00000
      6      -9.0500      2.00000
      7      -3.7516      2.00000
      8      -2.6507      2.00000
      9      -0.3308      0.00000
     10       0.8589      0.00000
     11       7.9296      0.00000
     12       8.3380      0.00000

 k-point    37 :       0.3810    0.1905    0.0000
  band No.  band energies     occupation 
      1     -18.4184      2.00000
      2     -18.1799      2.00000
      3      -9.9392      2.00000
      4      -9.8188      2.00000
      5      -8.4877      2.00000
      6      -8.3984      2.00000
      7      -6.6041      2.00000
      8      -5.2964      2.00000
      9       3.6483      0.00000
     10       4.4918      0.00000
     11       5.7041      0.00000
     12       6.0886      0.00000

 k-point    38 :       0.4286    0.1905    0.0000
  band No.  band energies     occupation 
      1     -17.7432      2.00000
      2     -17.5137      2.00000
      3     -10.8562      2.00000
      4     -10.7231      2.00000
      5      -9.1399      2.00000
      6      -9.0432      2.00000
      7      -5.8374      2.00000
      8      -4.5680      2.00000
      9       2.5442      0.00000
     10       3.4452      0.00000
     11       6.6309      0.00000
     12       7.0151      0.00000

 k-point    39 :       0.4762    0.1905    0.0000
  band No.  band energies     occupation 
      1     -16.9787      2.00000
      2     -16.7593      2.00000
      3     -11.8898      2.00000
      4     -11.7430      2.00000
      5      -9.5822      2.00000
      6      -9.4809      2.00000
      7      -5.0008      2.00000
      8      -3.7792      2.00000
      9       1.4302      0.00000
     10       2.3992      0.00000
     11       7.6831      0.00000
     12       8.0660      0.00000

 k-point    40 :      -0.4762    0.1905    0.0000
  band No.  band energies     occupation 
      1     -16.1421      2.00000
      2     -15.9329      2.00000
      3     -12.9457      2.00000
      4     -12.7857      2.00000
      5      -9.8549      2.00000
      6      -9.7510      2.00000
      7      -4.1592      2.00000
      8      -2.9958      2.00000
      9       0.3895      0.00000
     10       1.4345      0.00000
     11       8.7933      0.00000
     12       9.2269      0.00000

 k-point    41 :      -0.4286    0.1905    0.0000
  band No.  band energies     occupation 
      1     -15.3179      2.00000
      2     -15.1160      2.00000
      3     -13.8897      2.00000
      4     -13.7208      2.00000
      5      -9.9861      2.00000
      6      -9.8809      2.00000
      7      -3.5117      2.00000
      8      -2.4075      2.00000
      9      -0.3624      0.00000
     10       0.7522      0.00000
     11       9.0273      0.00000
     12       9.6091      0.00000

 k-point    42 :       0.4762    0.2381    0.0000
  band No.  band energies     occupation 
      1     -17.0291      2.00000
      2     -16.8091      2.00000
      3     -11.5165      2.00000
      4     -11.3738      2.00000
      5      -9.9583      2.00000
      6      -9.8513      2.00000
      7      -5.0413      2.00000
      8      -3.8144      2.00000
      9       1.5662      0.00000
     10       2.5010      0.00000
     11       7.6136      0.00000
     12       7.9842      0.00000

 k-point    43 :      -0.4762    0.2381    0.0000
  band No.  band energies     occupation 
      1     -16.2352      2.00000
      2     -16.0255      2.00000
      3     -12.3372      2.00000
      4     -12.1831      2.00000
      5     -10.5097      2.00000
      6     -10.3963      2.00000
      7      -4.1926      2.00000
      8      -3.0163      2.00000
      9       0.5836      0.00000
     10       1.5636      0.00000
     11       8.6790      0.00000
     12       9.2733      0.00000

 k-point    44 :      -0.4286    0.2381    0.0000
  band No.  band energies     occupation 
      1     -15.3947      2.00000
      2     -15.1948      2.00000
      3     -13.2494      2.00000
      4     -13.0844      2.00000
      5     -10.7968      2.00000
      6     -10.6799      2.00000
      7      -3.3846      2.00000
      8      -2.2655      2.00000
      9      -0.3082      0.00000
     10       0.7274      0.00000
     11       8.8975      0.00000
     12       9.9327      0.00000

 k-point    45 :      -0.3810    0.2381    0.0000
  band No.  band energies     occupation 
      1     -14.7991      2.00000
      2     -14.6029      2.00000
      3     -13.8785      2.00000
      4     -13.7095      2.00000
      5     -10.8846      2.00000
      6     -10.7666      2.00000
      7      -2.9634      2.00000
      8      -1.8825      2.00000
      9      -0.7581      0.00000
     10       0.3157      0.00000
     11       8.8014      0.00000
     12      10.4227      0.00000

 k-point    46 :      -0.4286    0.2857    0.0000
  band No.  band energies     occupation 
      1     -15.4291      2.00000
      2     -15.2296      2.00000
      3     -12.8689      2.00000
      4     -12.7054      2.00000
      5     -11.2292      2.00000
      6     -11.1084      2.00000
      7      -3.3471      2.00000
      8      -2.2201      2.00000
      9      -0.2729      0.00000
     10       0.7285      0.00000
     11       8.6987      0.00000
     12       9.8701      0.00000

 k-point    47 :      -0.3810    0.2857    0.0000
  band No.  band energies     occupation 
      1     -14.6325      2.00000
      2     -14.4418      2.00000
      3     -13.5377      2.00000
      4     -13.3657      2.00000
      5     -11.5862      2.00000
      6     -11.4617      2.00000
      7      -2.5873      2.00000
      8      -1.5087      2.00000
      9      -1.0338      0.00000
     10       0.0007      0.00000
     11       8.4259      0.00000
     12      10.4526      0.00000

 k-point    48 :      -0.3333    0.3333    0.0000
  band No.  band energies     occupation 
      1     -13.9677      2.00000
      2     -13.9676      2.00000
      3     -13.7861      2.00000
      4     -13.7861      2.00000
      5     -11.9289      2.00000
      6     -11.8030      2.00000
      7      -1.7962      2.00000
      8      -1.7962      2.00000
      9      -0.7476      0.00000
     10      -0.7475      0.00000
     11       8.2506      0.00000
     12      10.4849      0.00000


--------------------------------------------------------------------------------------------------------


 soft charge-density along one line, spin component           1
         0         1         2         3         4         5         6         7         8         9
 total charge-density along one line
 
 pseudopotential strength for first ion, spin component:           1
 10.126  13.463  -0.000   0.000   0.000   0.000  -0.000  -0.000
 13.463  17.900  -0.000   0.000   0.000   0.000  -0.000  -0.000
 -0.000  -0.000  -4.267  -0.000   0.000   8.346   0.000  -0.000
  0.000   0.000  -0.000  -4.259  -0.000   0.000   8.336   0.000
  0.000   0.000   0.000  -0.000  -4.267  -0.000   0.000   8.346
  0.000   0.000   8.346   0.000  -0.000 -18.456  -0.000   0.000
 -0.000  -0.000   0.000   8.336   0.000  -0.000 -18.446  -0.000
 -0.000  -0.000  -0.000   0.000   8.346   0.000  -0.000 -18.456
 total augmentation occupancy for first ion, spin component:           1
  8.132  -3.612   0.000   0.004  -0.000   0.000   0.001   0.000
 -3.612   1.662   0.000  -0.000   0.000  -0.000  -0.000   0.000
  0.000  -0.000   1.836  -0.000   0.000   0.173  -0.000   0.000
  0.004  -0.000  -0.000   1.205   0.000  -0.000   0.073  -0.000
  0.000  -0.000   0.000   0.000   1.836   0.000   0.000   0.173
  0.000  -0.000   0.173   0.000   0.000   0.018   0.000   0.000
  0.001  -0.000  -0.000   0.073   0.000  -0.000   0.005   0.000
  0.000   0.000   0.000  -0.000   0.173   0.000   0.000   0.018


------------------------ aborting loop because EDIFF is reached ----------------------------------------


    CHARGE:  cpu time    0.1735: real time    0.1740
    FORLOC:  cpu time    0.0050: real time    0.0050
    FORNL :  cpu time    0.3342: real time    0.3351
    STRESS:  cpu time    1.3338: real time    1.3370
    FORCOR:  cpu time    0.0701: real time    0.0703
    FORHAR:  cpu time    0.0188: real time    0.0189
    MIXING:  cpu time    0.0043: real time    0.0043
    OFIELD:  cpu time    0.0000: real time    0.0000

  FORCE on cell =-STRESS in cart. coord.  units (eV):
  Direction    XX          YY          ZZ          XY          YZ          ZX
  --------------------------------------------------------------------------------------
  Alpha Z    12.54445    12.54445    12.54445
  Ewald    3933.99809  3933.99685 -4472.85569    -0.00000    -0.00000     0.00000
  Hartree  3896.08615  3896.08614 -3873.33580    -0.00000    -0.00000    -0.00000
  E(xc)     -59.63999   -59.63999   -61.70163    -0.00000    -0.00000    -0.00000
  Local   -8007.52551 -8007.52490  8134.67532    -0.00000    -0.00000     0.00000
  n-local   -14.81949   -13.74330   -13.14441     0.71383    -0.00000     0.00000
  augment    -1.57504    -1.57505    -1.44650     0.00000     0.00000     0.00000
  Kinetic   245.11273   236.91294   276.71566    -6.60790     0.00000    -0.00000
  Fock        0.00000     0.00000     0.00000     0.00000     0.00000     0.00000
  -------------------------------------------------------------------------------------
  Total       0.61926     0.61926     1.45140     0.00000     0.00000     0.00000
  in kB       9.46943     9.46943    22.19415     0.00000     0.00000     0.00000
  external pressure =       13.71 kB  Pullay stress =        0.00 kB


 VOLUME and BASIS-vectors are now :
 -----------------------------------------------------------------------------
  energy-cutoff  :      800.00
  volume of cell :      104.78
      direct lattice vectors                 reciprocal lattice vectors
     2.130000000 -1.229756000  0.000000000     0.234741784 -0.406584721  0.000000000
     2.130000000  1.229756000  0.000000000     0.234741784  0.406584721  0.000000000
     0.000000000  0.000000000 20.000000000     0.000000000  0.000000000  0.050000000

  length of vectors
     2.459512110  2.459512110 20.000000000     0.469483589  0.469483589  0.050000000


 FORCES acting on ions
    electron-ion (+dipol)            ewald-force                    non-local-force                 convergence-correction
 -----------------------------------------------------------------------------------------------
   -.880E-05 -.443E-12 0.381E+03   -.242E-03 0.753E-14 -.381E+03   0.236E-16 0.230E-16 -.138E+00   -.228E-10 0.735E-15 0.249E-04
   0.262E-03 0.137E-11 0.381E+03   0.242E-03 -.499E-14 -.381E+03   0.119E-16 -.302E-16 -.138E+00   0.399E-10 0.224E-14 0.249E-04
   -.881E-05 -.518E-13 -.381E+03   -.242E-03 0.727E-14 0.381E+03   0.446E-16 0.408E-16 0.138E+00   -.230E-10 -.902E-16 -.249E-04
   0.262E-03 0.607E-12 -.381E+03   0.242E-03 -.525E-14 0.381E+03   0.156E-16 0.145E-16 0.138E+00   0.389E-10 0.312E-15 -.249E-04
 -----------------------------------------------------------------------------------------------
   0.507E-03 0.149E-11 -.128E-03   0.858E-14 0.456E-14 0.000E+00   0.958E-16 0.480E-16 0.278E-16   0.330E-10 0.320E-14 -.312E-10
 
 
 POSITION                                       TOTAL-FORCE (eV/Angst)
 -----------------------------------------------------------------------------------
      0.00000      0.00000      0.00000        -0.000000      0.000000     -0.241324
      1.42000      0.00000      0.00000         0.000000      0.000000     -0.241324
      0.00000      0.00000      3.10000        -0.000000     -0.000000      0.241324
      1.42000      0.00000      3.10000         0.000000     -0.000000      0.241324
 -----------------------------------------------------------------------------------
    total drift:                                0.000507      0.000000     -0.000128


--------------------------------------------------------------------------------------------------------



  FREE ENERGIE OF THE ION-ELECTRON SYSTEM (eV)
  ---------------------------------------------------
  free  energy   TOTEN  =       -36.79549534 eV

  energy  without entropy=      -36.79549534  energy(sigma->0) =      -36.79549534
 


--------------------------------------------------------------------------------------------------------


    POTLOK:  cpu time    0.1021: real time    0.1024


--------------------------------------------------------------------------------------------------------


     LOOP+:  cpu time   44.4425: real time   44.7653
    4ORBIT:  cpu time    0.0000: real time    0.0000

 total amount of memory used by VASP MPI-rank0   107376. kBytes
=======================================================================

   base      :      30000. kBytes
   nonl-proj :      16997. kBytes
   fftplans  :      32720. kBytes
   grid      :      15086. kBytes
   one-center:         12. kBytes
   wavefun   :      12561. kBytes
 
  
  
 General timing and accounting informations for this job:
 ========================================================
  
                  Total CPU time used (sec):       46.428
                            User time (sec):       45.604
                          System time (sec):        0.824
                         Elapsed time (sec):       47.147
  
                   Maximum memory used (kb):      171336.
                   Average memory used (kb):           0.
  
                          Minor page faults:       189490
                          Major page faults:            0
                 Voluntary context switches:         3438
