 vasp.5.4.4.18Apr17-6-g9f103f2a35 (build May 31 2018 21:15:54) complex          
  
 executed on          c7_intel_O1 date 2020.07.23  19:23:05
 running on    4 total cores
 distrk:  each k-point on    4 cores,    1 groups
 distr:  one band on NCORES_PER_BAND=   1 cores,    4 groups


--------------------------------------------------------------------------------------------------------


 INCAR:
 POTCAR:    PAW_PBE C 08Apr2002                   
 POTCAR:    PAW_PBE C 08Apr2002                   
   VRHFIN =C: s2p2                                                              
   LEXCH  = PE                                                                  
   EATOM  =   147.1560 eV,   10.8157 Ry                                         
                                                                                
   TITEL  = PAW_PBE C 08Apr2002                                                 
   LULTRA =        F    use ultrasoft PP ?                                      
   IUNSCR =        1    unscreen: 0-lin 1-nonlin 2-no                           
   RPACOR =    1.200    partial core radius                                     
   POMASS =   12.011; ZVAL   =    4.000    mass and valenz                      
   RCORE  =    1.500    outmost cutoff radius                                   
   RWIGS  =    1.630; RWIGS  =    0.863    wigner-seitz radius (au A)           
   ENMAX  =  400.000; ENMIN  =  300.000 eV                                      
   ICORE  =        2    local potential                                         
   LCOR   =        T    correct aug charges                                     
   LPAW   =        T    paw PP                                                  
   EAUG   =  644.873                                                            
   DEXC   =    0.000                                                            
   RMAX   =    1.529    core radius for proj-oper                               
   RAUG   =    1.300    factor for augmentation sphere                          
   RDEP   =    1.501    radius for radial grids                                 
   RDEPT  =    1.300    core radius for aug-charge                              
                                                                                
   Atomic configuration                                                         
    4 entries                                                                   
     n  l   j            E        occ.                                          
     1  0  0.50      -273.3789   2.0000                                         
     2  0  0.50       -13.7508   2.0000                                         
     2  1  0.50        -5.2854   2.0000                                         
     3  2  1.50        -5.4423   0.0000                                         
   Description                                                                  
     l       E           TYP  RCUT    TYP  RCUT                                 
     0    -13.7508458     23  1.200                                             
     0     -8.2022199     23  1.200                                             
     1     -5.2854383     23  1.500                                             
     1     34.0145650     23  1.500                                             
     2     -5.4423304      7  1.500                                             
  local pseudopotential read in
  partial core-charges read in
  partial kinetic energy density read in
  atomic valenz-charges read in
  non local Contribution for L=           0  read in
    real space projection operators read in
  non local Contribution for L=           0  read in
    real space projection operators read in
  non local Contribution for L=           1  read in
    real space projection operators read in
  non local Contribution for L=           1  read in
    real space projection operators read in
    PAW grid and wavefunctions read in
 
   number of l-projection  operators is LMAX  =           4
   number of lm-projection operators is LMMAX =           8
 
  PAW_PBE C 08Apr2002                   :
 energy of atom  1       EATOM= -147.1560
 kinetic energy error for atom=    0.0016 (will be added to EATOM!!)
 
 
 POSCAR: C2_bilayer                              
  positions in direct lattice
  No initial velocities read in
 exchange correlation table for  LEXCH =        8
   RHO(1)=    0.500       N(1)  =     2000
   RHO(2)=  100.500       N(2)  =     4000
 


--------------------------------------------------------------------------------------------------------


 ion  position               nearest neighbor table
   1  0.000  0.000  0.000-   2 1.42   2 1.42   2 1.42
   2  0.333  0.333  0.000-   1 1.42   1 1.42   1 1.42
   3  0.000  0.000  0.230-   4 1.42   4 1.42   4 1.42
   4  0.333  0.333  0.230-   3 1.42   3 1.42   3 1.42
 
  LATTYP: Found a hexagonal cell.
 ALAT       =     2.4595120000
 C/A-ratio  =     8.1316944174
  
  Lattice vectors:
  
 A1 = (   0.0000000000,  -2.4595120000,   0.0000000000)
 A2 = (  -2.1300000000,   1.2297560000,   0.0000000000)
 A3 = (   0.0000000000,   0.0000000000, -20.0000000000)


Analysis of symmetry for initial positions (statically):
=====================================================================
 Subroutine PRICEL returns:
 Original cell was already a primitive cell.
 

 Routine SETGRP: Setting up the symmetry group for a 
 hexagonal supercell.


 Subroutine GETGRP returns: Found 24 space group operations
 (whereof  6 operations were pure point group operations)
 out of a pool of 24 trial point group operations.


The static configuration has the point symmetry C_3v.
 The point group associated with its full space group is D_6h.


Analysis of symmetry for dynamics (positions and initial velocities):
=====================================================================
 Subroutine PRICEL returns:
 Original cell was already a primitive cell.
 

 Routine SETGRP: Setting up the symmetry group for a 
 hexagonal supercell.


 Subroutine GETGRP returns: Found 24 space group operations
 (whereof  6 operations were pure point group operations)
 out of a pool of 24 trial point group operations.


The dynamic configuration has the point symmetry C_3v.
 The point group associated with its full space group is D_6h.


 Subroutine INISYM returns: Found 24 space group operations
 (whereof  6 operations are pure point group operations),
 and found     1 'primitive' translations

 
 
 KPOINTS: k grid                                  

Automatic generation of k-mesh.
Space group operators:
 irot       det(A)        alpha          n_x          n_y          n_z        tau_x        tau_y        tau_z
    1     1.000000     0.000000     1.000000     0.000000     0.000000     0.000000     0.000000     0.000000
    2     1.000000   120.000000     0.000000     0.000000     1.000000     0.000000     0.000000     0.000000
    3     1.000000   120.000000     0.000000     0.000000    -1.000000     0.000000     0.000000     0.000000
    4    -1.000000   180.000000    -0.000000     1.000000     0.000000     0.000000     0.000000     0.000000
    5    -1.000000   180.000000     0.866025    -0.500000     0.000000     0.000000     0.000000     0.000000
    6    -1.000000   180.000000     0.866025     0.500000     0.000000     0.000000     0.000000     0.000000
    7    -1.000000     0.000000     1.000000     0.000000     0.000000     0.333333    -0.666667    -0.770000
    8     1.000000    60.000000     0.000000     0.000000     1.000000     0.333333    -0.666667     0.000000
    9    -1.000000    60.000000     0.000000     0.000000     1.000000    -0.000001    -0.000000    -0.770000
   10    -1.000000   120.000000     0.000000     0.000000     1.000000     0.333333    -0.666667    -0.770000
   11     1.000000   180.000000     0.000000     0.000000     1.000000     0.333333    -0.666667     0.000000
   12    -1.000000   180.000000     0.000000     0.000000     1.000000     0.000000     0.000000    -0.770000
   13    -1.000000   120.000000     0.000000     0.000000    -1.000000     0.333333    -0.666667    -0.770000
   14     1.000000    60.000000     0.000000     0.000000    -1.000000     0.333333    -0.666667     0.000000
   15    -1.000000    60.000000     0.000000     0.000000    -1.000000    -0.000000    -0.000001    -0.770000
   16     1.000000   180.000000    -0.000000     1.000000     0.000000     0.333333    -0.666667    -0.770000
   17     1.000000   180.000000     0.500000    -0.866025     0.000000    -0.000000    -0.000001    -0.770000
   18    -1.000000   180.000000     0.500000    -0.866025     0.000000     0.333333    -0.666667     0.000000
   19     1.000000   180.000000     0.866025    -0.500000     0.000000     0.333333    -0.666667    -0.770000
   20     1.000000   180.000000     1.000000     0.000000     0.000000     0.000000     0.000000    -0.770000
   21    -1.000000   180.000000     1.000000     0.000000     0.000000     0.333333    -0.666667     0.000000
   22     1.000000   180.000000     0.866025     0.500000     0.000000     0.333333    -0.666667    -0.770000
   23     1.000000   180.000000    -0.500000    -0.866025     0.000000    -0.000001    -0.000000    -0.770000
   24    -1.000000   180.000000    -0.500000    -0.866025     0.000000     0.333333    -0.666667     0.000000
 
 Subroutine IBZKPT returns following result:
 ===========================================
 
 Found     48 irreducible k-points:
 
 Following reciprocal coordinates:
            Coordinates               Weight
  0.000000  0.000000  0.000000      1.000000
  0.047619  0.000000  0.000000      6.000000
  0.095238  0.000000  0.000000      6.000000
  0.142857  0.000000  0.000000      6.000000
  0.190476  0.000000  0.000000      6.000000
  0.238095  0.000000  0.000000      6.000000
  0.285714  0.000000  0.000000      6.000000
  0.333333  0.000000  0.000000      6.000000
  0.380952  0.000000  0.000000      6.000000
  0.428571  0.000000  0.000000      6.000000
  0.476190  0.000000  0.000000      6.000000
  0.095238  0.047619  0.000000      6.000000
  0.142857  0.047619  0.000000     12.000000
  0.190476  0.047619  0.000000     12.000000
  0.238095  0.047619  0.000000     12.000000
  0.285714  0.047619  0.000000     12.000000
  0.333333  0.047619  0.000000     12.000000
  0.380952  0.047619  0.000000     12.000000
  0.428571  0.047619  0.000000     12.000000
  0.476190  0.047619  0.000000     12.000000
 -0.476190  0.047619  0.000000      6.000000
  0.190476  0.095238  0.000000      6.000000
  0.238095  0.095238  0.000000     12.000000
  0.285714  0.095238  0.000000     12.000000
  0.333333  0.095238  0.000000     12.000000
  0.380952  0.095238  0.000000     12.000000
  0.428571  0.095238  0.000000     12.000000
  0.476190  0.095238  0.000000     12.000000
 -0.476190  0.095238  0.000000     12.000000
  0.285714  0.142857  0.000000      6.000000
  0.333333  0.142857  0.000000     12.000000
  0.380952  0.142857  0.000000     12.000000
  0.428571  0.142857  0.000000     12.000000
  0.476190  0.142857  0.000000     12.000000
 -0.476190  0.142857  0.000000     12.000000
 -0.428571  0.142857  0.000000      6.000000
  0.380952  0.190476  0.000000      6.000000
  0.428571  0.190476  0.000000     12.000000
  0.476190  0.190476  0.000000     12.000000
 -0.476190  0.190476  0.000000     12.000000
 -0.428571  0.190476  0.000000     12.000000
  0.476190  0.238095  0.000000      6.000000
 -0.476190  0.238095  0.000000     12.000000
 -0.428571  0.238095  0.000000     12.000000
 -0.380952  0.238095  0.000000      6.000000
 -0.428571  0.285714  0.000000      6.000000
 -0.380952  0.285714  0.000000     12.000000
 -0.333333  0.333333  0.000000      2.000000
 
 Following cartesian coordinates:
            Coordinates               Weight
  0.000000  0.000000  0.000000      1.000000
  0.011178 -0.019361  0.000000      6.000000
  0.022356 -0.038722  0.000000      6.000000
  0.033535 -0.058084  0.000000      6.000000
  0.044713 -0.077445  0.000000      6.000000
  0.055891 -0.096806  0.000000      6.000000
  0.067069 -0.116167  0.000000      6.000000
  0.078247 -0.135528  0.000000      6.000000
  0.089425 -0.154889  0.000000      6.000000
  0.100604 -0.174251  0.000000      6.000000
  0.111782 -0.193612  0.000000      6.000000
  0.033535 -0.019361  0.000000      6.000000
  0.044713 -0.038722  0.000000     12.000000
  0.055891 -0.058084  0.000000     12.000000
  0.067069 -0.077445  0.000000     12.000000
  0.078247 -0.096806  0.000000     12.000000
  0.089425 -0.116167  0.000000     12.000000
  0.100604 -0.135528  0.000000     12.000000
  0.111782 -0.154889  0.000000     12.000000
  0.122960 -0.174251  0.000000     12.000000
 -0.100604  0.212973  0.000000      6.000000
  0.067069 -0.038722  0.000000      6.000000
  0.078247 -0.058084  0.000000     12.000000
  0.089425 -0.077445  0.000000     12.000000
  0.100604 -0.096806  0.000000     12.000000
  0.111782 -0.116167  0.000000     12.000000
  0.122960 -0.135528  0.000000     12.000000
  0.134138 -0.154889  0.000000     12.000000
 -0.089425  0.232334  0.000000     12.000000
  0.100604 -0.058084  0.000000      6.000000
  0.111782 -0.077445  0.000000     12.000000
  0.122960 -0.096806  0.000000     12.000000
  0.134138 -0.116167  0.000000     12.000000
  0.145316 -0.135528  0.000000     12.000000
 -0.078247  0.251695  0.000000     12.000000
 -0.067069  0.232334  0.000000      6.000000
  0.134138 -0.077445  0.000000      6.000000
  0.145316 -0.096806  0.000000     12.000000
  0.156495 -0.116167  0.000000     12.000000
 -0.067069  0.271056  0.000000     12.000000
 -0.055891  0.251695  0.000000     12.000000
  0.167673 -0.096806  0.000000      6.000000
 -0.055891  0.290418  0.000000     12.000000
 -0.044713  0.271056  0.000000     12.000000
 -0.033535  0.251695  0.000000      6.000000
 -0.033535  0.290418  0.000000      6.000000
 -0.022356  0.271056  0.000000     12.000000
  0.000000  0.271056  0.000000      2.000000
 


--------------------------------------------------------------------------------------------------------




 Dimension of arrays:
   k-points           NKPTS =     48   k-points in BZ     NKDIM =     48   number of bands    NBANDS=     12
   number of dos      NEDOS =    301   number of ions     NIONS =      4
   non local maximal  LDIM  =      4   non local SUM 2l+1 LMDIM =      8
   total plane-waves  NPLWV = 110592
   max r-space proj   IRMAX =      1   max aug-charges    IRDMAX=  99836
   dimension x,y,z NGX =    24 NGY =   24 NGZ =  192
   dimension x,y,z NGXF=    48 NGYF=   48 NGZF=  384
   support grid    NGXF=    96 NGYF=   96 NGZF=  768
   ions per type =               4
   NGX,Y,Z   is equivalent  to a cutoff of  16.22, 16.22, 15.96 a.u.
   NGXF,Y,Z  is equivalent  to a cutoff of  32.44, 32.44, 31.92 a.u.

 SYSTEM =  C:graphene                              
 POSCAR =  C2_bilayer                              

 Startparameter for this run:
   NWRITE =      2    write-flag & timer
   PREC   = accura    normal or accurate (medium, high low for compatibility)
   ISTART =      0    job   : 0-new  1-cont  2-samecut
   ICHARG =      2    charge: 1-file 2-atom 10-const
   ISPIN  =      1    spin polarized calculation?
   LNONCOLLINEAR =      F non collinear calculations
   LSORBIT =      F    spin-orbit coupling
   INIWAV =      1    electr: 0-lowe 1-rand  2-diag
   LASPH  =      F    aspherical Exc in radial PAW
   METAGGA=      F    non-selfconsistent MetaGGA calc.

 Electronic Relaxation 1
   ENCUT  =  800.0 eV  58.80 Ry    7.67 a.u.   5.67  5.67 46.12*2*pi/ulx,y,z
   ENINI  =  800.0     initial cutoff
   ENAUG  =  644.9 eV  augmentation charge cutoff
   NELM   =     60;   NELMIN=  5; NELMDL= -5     # of ELM steps 
   EDIFF  = 0.1E-07   stopping-criterion for ELM
   LREAL  =      F    real-space projection
   NLSPLINE    = F    spline interpolate recip. space projectors
   LCOMPAT=      F    compatible to vasp.4.4
   GGA_COMPAT  = T    GGA compatible to vasp.4.4-vasp.4.6
   LMAXPAW     = -100 max onsite density
   LMAXMIX     =    2 max onsite mixed and CHGCAR
   VOSKOWN=      0    Vosko Wilk Nusair interpolation
   ROPT   =    0.00000
 Ionic relaxation
   EDIFFG = 0.1E-06   stopping-criterion for IOM
   NSW    =      1    number of steps for IOM
   NBLOCK =      1;   KBLOCK =      1    inner block; outer block 
   IBRION =     -1    ionic relax: 0-MD 1-quasi-New 2-CG
   NFREE  =      0    steps in history (QN), initial steepest desc. (CG)
   ISIF   =      2    stress and relaxation
   IWAVPR =     10    prediction:  0-non 1-charg 2-wave 3-comb
   ISYM   =      2    0-nonsym 1-usesym 2-fastsym
   LCORR  =      T    Harris-Foulkes like correction to forces

   POTIM  = 0.5000    time-step for ionic-motion
   TEIN   =    0.0    initial temperature
   TEBEG  =    0.0;   TEEND  =   0.0 temperature during run
   SMASS  =  -3.00    Nose mass-parameter (am)
   estimated Nose-frequenzy (Omega)   =  0.10E-29 period in steps =****** mass=  -0.138E-27a.u.
   SCALEE = 1.0000    scale energy and forces
   NPACO  =    256;   APACO  = 16.0  distance and # of slots for P.C.
   PSTRESS=    0.0 pullay stress

  Mass of Ions in am
   POMASS =  12.01
  Ionic Valenz
   ZVAL   =   4.00
  Atomic Wigner-Seitz radii
   RWIGS  =  -1.00
  virtual crystal weights 
   VCA    =   1.00
   NELECT =      16.0000    total number of electrons
   NUPDOWN=      -1.0000    fix difference up-down

 DOS related values:
   EMIN   =  10.00;   EMAX   =-10.00  energy-range for DOS
   EFERMI =   0.00
   ISMEAR =     0;   SIGMA  =   0.01  broadening in eV -4-tet -1-fermi 0-gaus

 Electronic relaxation 2 (details)
   IALGO  =     38    algorithm
   LDIAG  =      T    sub-space diagonalisation (order eigenvalues)
   LSUBROT=      F    optimize rotation matrix (better conditioning)
   TURBO    =      0    0=normal 1=particle mesh
   IRESTART =      0    0=no restart 2=restart with 2 vectors
   NREBOOT  =      0    no. of reboots
   NMIN     =      0    reboot dimension
   EREF     =   0.00    reference energy to select bands
   IMIX   =      4    mixing-type and parameters
     AMIX     =   0.40;   BMIX     =  1.00
     AMIX_MAG =   1.60;   BMIX_MAG =  1.00
     AMIN     =   0.01
     WC   =   100.;   INIMIX=   1;  MIXPRE=   1;  MAXMIX= -45

 Intra band minimization:
   WEIMIN = 0.0000     energy-eigenvalue tresh-hold
   EBREAK =  0.21E-09  absolut break condition
   DEPER  =   0.30     relativ break condition  

   TIME   =   0.40     timestep for ELM

  volume/ion in A,a.u.               =      26.19       176.76
  Fermi-wavevector in a.u.,A,eV,Ry     =   0.875041  1.653589 10.417948  0.765698
  Thomas-Fermi vector in A             =   1.994657
 
 Write flags
   LWAVE        =      F    write WAVECAR
   LDOWNSAMPLE  =      F    k-point downsampling of WAVECAR
   LCHARG       =      T    write CHGCAR
   LVTOT        =      F    write LOCPOT, total local potential
   LVHAR        =      F    write LOCPOT, Hartree potential only
   LELF         =      F    write electronic localiz. function (ELF)
   LORBIT       =      0    0 simple, 1 ext, 2 COOP (PROOUT), +10 PAW based schemes


 Dipole corrections
   LMONO  =      F    monopole corrections only (constant potential shift)
   LDIPOL =      F    correct potential (dipole corrections)
   IDIPOL =      0    1-x, 2-y, 3-z, 4-all directions 
   EPSILON=  1.0000000 bulk dielectric constant

 Exchange correlation treatment:
   GGA     =    --    GGA type
   LEXCH   =     8    internal setting for exchange type
   VOSKOWN=      0    Vosko Wilk Nusair interpolation
   LHFCALC =     F    Hartree Fock is set to
   LHFONE  =     F    Hartree Fock one center treatment
   AEXX    =    0.0000 exact exchange contribution

 Linear response parameters
   LEPSILON=     F    determine dielectric tensor
   LRPA    =     F    only Hartree local field effects (RPA)
   LNABLA  =     F    use nabla operator in PAW spheres
   LVEL    =     F    velocity operator in full k-point grid
   LINTERFAST=   F  fast interpolation
   KINTER  =     0    interpolate to denser k-point grid
   CSHIFT  =0.1000    complex shift for real part using Kramers Kronig
   OMEGAMAX=  -1.0    maximum frequency
   DEG_THRESHOLD= 0.2000000E-02 threshold for treating states as degnerate
   RTIME   =   -0.100 relaxation time in fs
  (WPLASMAI=    0.000 imaginary part of plasma frequency in eV, 0.658/RTIME)
   DFIELD  = 0.0000000 0.0000000 0.0000000 field for delta impulse in time
 
 Orbital magnetization related:
   ORBITALMAG=     F  switch on orbital magnetization
   LCHIMAG   =     F  perturbation theory with respect to B field
   DQ        =  0.001000  dq finite difference perturbation B field
   LLRAUG    =     F  two centre corrections for induced B field



--------------------------------------------------------------------------------------------------------


 Static calculation
 charge density and potential will be updated during run
 non-spin polarized calculation
 Variant of blocked Davidson
 Davidson routine will perform the subspace rotation
 perform sub-space diagonalisation
    after iterative eigenvector-optimisation
 modified Broyden-mixing scheme, WC =      100.0
 initial mixing is a Kerker type mixing with AMIX =  0.4000 and BMIX =      1.0000
 Hartree-type preconditioning will be used
 using additional bands            4
 reciprocal scheme for non local part
 use partial core corrections
 calculate Harris-corrections to forces 
   (improved forces if not selfconsistent)
 use gradient corrections 
 use of overlap-Matrix (Vanderbilt PP)
 Gauss-broadening in eV      SIGMA  =   0.01


--------------------------------------------------------------------------------------------------------


  energy-cutoff  :      800.00
  volume of cell :      104.78
      direct lattice vectors                 reciprocal lattice vectors
     2.130000000 -1.229756000  0.000000000     0.234741784 -0.406584721  0.000000000
     2.130000000  1.229756000  0.000000000     0.234741784  0.406584721  0.000000000
     0.000000000  0.000000000 20.000000000     0.000000000  0.000000000  0.050000000

  length of vectors
     2.459512110  2.459512110 20.000000000     0.469483589  0.469483589  0.050000000


 
 k-points in units of 2pi/SCALE and weight: k grid                                  
   0.00000000  0.00000000  0.00000000       0.002
   0.01117818 -0.01936118  0.00000000       0.014
   0.02235636 -0.03872235  0.00000000       0.014
   0.03353454 -0.05808353  0.00000000       0.014
   0.04471272 -0.07744471  0.00000000       0.014
   0.05589090 -0.09680589  0.00000000       0.014
   0.06706908 -0.11616706  0.00000000       0.014
   0.07824726 -0.13552824  0.00000000       0.014
   0.08942544 -0.15488942  0.00000000       0.014
   0.10060362 -0.17425059  0.00000000       0.014
   0.11178180 -0.19361177  0.00000000       0.014
   0.03353454 -0.01936118  0.00000000       0.014
   0.04471272 -0.03872235  0.00000000       0.027
   0.05589090 -0.05808353  0.00000000       0.027
   0.06706908 -0.07744471  0.00000000       0.027
   0.07824726 -0.09680589  0.00000000       0.027
   0.08942544 -0.11616706  0.00000000       0.027
   0.10060362 -0.13552824  0.00000000       0.027
   0.11178180 -0.15488942  0.00000000       0.027
   0.12295998 -0.17425059  0.00000000       0.027
  -0.10060362  0.21297295  0.00000000       0.014
   0.06706908 -0.03872235  0.00000000       0.014
   0.07824726 -0.05808353  0.00000000       0.027
   0.08942544 -0.07744471  0.00000000       0.027
   0.10060362 -0.09680589  0.00000000       0.027
   0.11178180 -0.11616706  0.00000000       0.027
   0.12295998 -0.13552824  0.00000000       0.027
   0.13413816 -0.15488942  0.00000000       0.027
  -0.08942544  0.23233413  0.00000000       0.027
   0.10060362 -0.05808353  0.00000000       0.014
   0.11178180 -0.07744471  0.00000000       0.027
   0.12295998 -0.09680589  0.00000000       0.027
   0.13413816 -0.11616706  0.00000000       0.027
   0.14531634 -0.13552824  0.00000000       0.027
  -0.07824726  0.25169530  0.00000000       0.027
  -0.06706908  0.23233413  0.00000000       0.014
   0.13413816 -0.07744471  0.00000000       0.014
   0.14531634 -0.09680589  0.00000000       0.027
   0.15649452 -0.11616706  0.00000000       0.027
  -0.06706908  0.27105648  0.00000000       0.027
  -0.05589090  0.25169530  0.00000000       0.027
   0.16767270 -0.09680589  0.00000000       0.014
  -0.05589090  0.29041766  0.00000000       0.027
  -0.04471272  0.27105648  0.00000000       0.027
  -0.03353454  0.25169530  0.00000000       0.014
  -0.03353454  0.29041766  0.00000000       0.014
  -0.02235636  0.27105648  0.00000000       0.027
   0.00000000  0.27105648  0.00000000       0.005
 
 k-points in reciprocal lattice and weights: k grid                                  
   0.00000000  0.00000000  0.00000000       0.002
   0.04761905  0.00000000  0.00000000       0.014
   0.09523810  0.00000000  0.00000000       0.014
   0.14285714  0.00000000  0.00000000       0.014
   0.19047619  0.00000000  0.00000000       0.014
   0.23809524  0.00000000  0.00000000       0.014
   0.28571429  0.00000000  0.00000000       0.014
   0.33333333  0.00000000  0.00000000       0.014
   0.38095238  0.00000000  0.00000000       0.014
   0.42857143  0.00000000  0.00000000       0.014
   0.47619048  0.00000000  0.00000000       0.014
   0.09523810  0.04761905  0.00000000       0.014
   0.14285714  0.04761905  0.00000000       0.027
   0.19047619  0.04761905  0.00000000       0.027
   0.23809524  0.04761905  0.00000000       0.027
   0.28571429  0.04761905  0.00000000       0.027
   0.33333333  0.04761905  0.00000000       0.027
   0.38095238  0.04761905  0.00000000       0.027
   0.42857143  0.04761905  0.00000000       0.027
   0.47619048  0.04761905  0.00000000       0.027
  -0.47619048  0.04761905  0.00000000       0.014
   0.19047619  0.09523810  0.00000000       0.014
   0.23809524  0.09523810  0.00000000       0.027
   0.28571429  0.09523810  0.00000000       0.027
   0.33333333  0.09523810  0.00000000       0.027
   0.38095238  0.09523810  0.00000000       0.027
   0.42857143  0.09523810  0.00000000       0.027
   0.47619048  0.09523810  0.00000000       0.027
  -0.47619048  0.09523810  0.00000000       0.027
   0.28571429  0.14285714  0.00000000       0.014
   0.33333333  0.14285714  0.00000000       0.027
   0.38095238  0.14285714  0.00000000       0.027
   0.42857143  0.14285714  0.00000000       0.027
   0.47619048  0.14285714  0.00000000       0.027
  -0.47619048  0.14285714  0.00000000       0.027
  -0.42857143  0.14285714  0.00000000       0.014
   0.38095238  0.19047619  0.00000000       0.014
   0.42857143  0.19047619  0.00000000       0.027
   0.47619048  0.19047619  0.00000000       0.027
  -0.47619048  0.19047619  0.00000000       0.027
  -0.42857143  0.19047619  0.00000000       0.027
   0.47619048  0.23809524  0.00000000       0.014
  -0.47619048  0.23809524  0.00000000       0.027
  -0.42857143  0.23809524  0.00000000       0.027
  -0.38095238  0.23809524  0.00000000       0.014
  -0.42857143  0.28571429  0.00000000       0.014
  -0.38095238  0.28571429  0.00000000       0.027
  -0.33333333  0.33333333  0.00000000       0.005
 
 position of ions in fractional coordinates (direct lattice) 
   0.00000000  0.00000000  0.00000000
   0.33333300  0.33333300  0.00000000
   0.00000000  0.00000000  0.23000000
   0.33333300  0.33333300  0.23000000
 
 position of ions in cartesian coordinates  (Angst):
   0.00000000  0.00000000  0.00000000
   1.41999858  0.00000000  0.00000000
   0.00000000  0.00000000  4.60000000
   1.41999858  0.00000000  4.60000000
 


--------------------------------------------------------------------------------------------------------


 k-point  1 :   0.0000 0.0000 0.0000  plane waves:    5409
 k-point  2 :   0.0476 0.0000 0.0000  plane waves:    5413
 k-point  3 :   0.0952 0.0000 0.0000  plane waves:    5402
 k-point  4 :   0.1429 0.0000 0.0000  plane waves:    5398
 k-point  5 :   0.1905 0.0000 0.0000  plane waves:    5404
 k-point  6 :   0.2381 0.0000 0.0000  plane waves:    5408
 k-point  7 :   0.2857 0.0000 0.0000  plane waves:    5404
 k-point  8 :   0.3333 0.0000 0.0000  plane waves:    5394
 k-point  9 :   0.3810 0.0000 0.0000  plane waves:    5382
 k-point 10 :   0.4286 0.0000 0.0000  plane waves:    5396
 k-point 11 :   0.4762 0.0000 0.0000  plane waves:    5380
 k-point 12 :   0.0952 0.0476 0.0000  plane waves:    5411
 k-point 13 :   0.1429 0.0476 0.0000  plane waves:    5415
 k-point 14 :   0.1905 0.0476 0.0000  plane waves:    5413
 k-point 15 :   0.2381 0.0476 0.0000  plane waves:    5399
 k-point 16 :   0.2857 0.0476 0.0000  plane waves:    5396
 k-point 17 :   0.3333 0.0476 0.0000  plane waves:    5389
 k-point 18 :   0.3810 0.0476 0.0000  plane waves:    5378
 k-point 19 :   0.4286 0.0476 0.0000  plane waves:    5381
 k-point 20 :   0.4762 0.0476 0.0000  plane waves:    5391
 k-point 21 :  -0.4762 0.0476 0.0000  plane waves:    5394
 k-point 22 :   0.1905 0.0952 0.0000  plane waves:    5403
 k-point 23 :   0.2381 0.0952 0.0000  plane waves:    5409
 k-point 24 :   0.2857 0.0952 0.0000  plane waves:    5419
 k-point 25 :   0.3333 0.0952 0.0000  plane waves:    5384
 k-point 26 :   0.3810 0.0952 0.0000  plane waves:    5369
 k-point 27 :   0.4286 0.0952 0.0000  plane waves:    5364
 k-point 28 :   0.4762 0.0952 0.0000  plane waves:    5382
 k-point 29 :  -0.4762 0.0952 0.0000  plane waves:    5404
 k-point 30 :   0.2857 0.1429 0.0000  plane waves:    5405
 k-point 31 :   0.3333 0.1429 0.0000  plane waves:    5404
 k-point 32 :   0.3810 0.1429 0.0000  plane waves:    5382
 k-point 33 :   0.4286 0.1429 0.0000  plane waves:    5347
 k-point 34 :   0.4762 0.1429 0.0000  plane waves:    5367
 k-point 35 :  -0.4762 0.1429 0.0000  plane waves:    5376
 k-point 36 :  -0.4286 0.1429 0.0000  plane waves:    5400
 k-point 37 :   0.3810 0.1905 0.0000  plane waves:    5390
 k-point 38 :   0.4286 0.1905 0.0000  plane waves:    5358
 k-point 39 :   0.4762 0.1905 0.0000  plane waves:    5365
 k-point 40 :  -0.4762 0.1905 0.0000  plane waves:    5363
 k-point 41 :  -0.4286 0.1905 0.0000  plane waves:    5377
 k-point 42 :   0.4762 0.2381 0.0000  plane waves:    5364
 k-point 43 :  -0.4762 0.2381 0.0000  plane waves:    5368
 k-point 44 :  -0.4286 0.2381 0.0000  plane waves:    5360
 k-point 45 :  -0.3810 0.2381 0.0000  plane waves:    5366
 k-point 46 :  -0.4286 0.2857 0.0000  plane waves:    5362
 k-point 47 :  -0.3810 0.2857 0.0000  plane waves:    5326
 k-point 48 :  -0.3333 0.3333 0.0000  plane waves:    5334

 maximum and minimum number of plane-waves per node :      5419     5326

 maximum number of plane-waves:      5419
 maximum index in each direction: 
   IXMAX=    6   IYMAX=    5   IZMAX=   46
   IXMIN=   -6   IYMIN=   -5   IZMIN=  -46


 serial   3D FFT for wavefunctions
 parallel 3D FFT for charge:
    minimum data exchange during FFTs selected (reduces bandwidth)


 total amount of memory used by VASP MPI-rank0   107376. kBytes
=======================================================================

   base      :      30000. kBytes
   nonl-proj :      16997. kBytes
   fftplans  :      32720. kBytes
   grid      :      15086. kBytes
   one-center:         12. kBytes
   wavefun   :      12561. kBytes
 
     INWAV:  cpu time    0.0000: real time    0.0001
 Broyden mixing: mesh for mixing (old mesh)
   NGX = 11   NGY = 11   NGZ = 93
  (NGX  = 48   NGY  = 48   NGZ  =384)
  gives a total of  11253 points

 initial charge density was supplied:
 charge density of overlapping atoms calculated
 number of electron      16.0000000 magnetization 
 keeping initial charge density in first step


--------------------------------------------------------------------------------------------------------


 Maximum index for augmentation-charges        24166 (set IRDMAX)


--------------------------------------------------------------------------------------------------------


 First call to EWALD:  gamma=   0.376
 Maximum number of real-space cells 5x 5x 1
 Maximum number of reciprocal cells 2x 2x10

    FEWALD:  cpu time    0.0011: real time    0.0011


--------------------------------------- Iteration      1(   1)  ---------------------------------------


    POTLOK:  cpu time    0.0867: real time    0.1036
    SETDIJ:  cpu time    0.0413: real time    0.0414
     EDDAV:  cpu time    1.4610: real time    1.4658
       DOS:  cpu time    0.0004: real time    0.0004
    --------------------------------------------
      LOOP:  cpu time    1.5895: real time    1.6112

 eigenvalue-minimisations  :  1152
 total energy-change (2. order) : 0.1251272E+03  (-0.8018877E+03)
 number of electron      16.0000000 magnetization 
 augmentation part       16.0000000 magnetization 

 Free energy of the ion-electron system (eV)
  ---------------------------------------------------
  alpha Z        PSCENC =        12.54445055
  Ewald energy   TEWEN  =      2375.42396804
  -Hartree energ DENC   =     -2837.18054149
  -exchange      EXHF   =         0.00000000
  -V(xc)+E(xc)   XCENC  =        52.80163498
  PAW double counting   =       434.08818552     -436.36580876
  entropy T*S    EENTRO =        -0.00013992
  eigenvalues    EBANDS =       -64.80220635
  atomic energy  EATOM  =       588.61769381
  Solvation  Ediel_sol  =         0.00000000
  ---------------------------------------------------
  free energy    TOTEN  =       125.12723638 eV

  energy without entropy =      125.12737630  energy(sigma->0) =      125.12730634


--------------------------------------------------------------------------------------------------------




--------------------------------------- Iteration      1(   2)  ---------------------------------------


     EDDAV:  cpu time    2.0377: real time    2.0438
       DOS:  cpu time    0.0004: real time    0.0004
    --------------------------------------------
      LOOP:  cpu time    2.0381: real time    2.0442

 eigenvalue-minimisations  :  1860
 total energy-change (2. order) :-0.1504599E+03  (-0.1373133E+03)
 number of electron      16.0000000 magnetization 
 augmentation part       16.0000000 magnetization 

 Free energy of the ion-electron system (eV)
  ---------------------------------------------------
  alpha Z        PSCENC =        12.54445055
  Ewald energy   TEWEN  =      2375.42396804
  -Hartree energ DENC   =     -2837.18054149
  -exchange      EXHF   =         0.00000000
  -V(xc)+E(xc)   XCENC  =        52.80163498
  PAW double counting   =       434.08818552     -436.36580876
  entropy T*S    EENTRO =        -0.00015016
  eigenvalues    EBANDS =      -215.26210082
  atomic energy  EATOM  =       588.61769381
  Solvation  Ediel_sol  =         0.00000000
  ---------------------------------------------------
  free energy    TOTEN  =       -25.33266833 eV

  energy without entropy =      -25.33251817  energy(sigma->0) =      -25.33259325


--------------------------------------------------------------------------------------------------------




--------------------------------------- Iteration      1(   3)  ---------------------------------------


     EDDAV:  cpu time    1.6515: real time    1.6570
       DOS:  cpu time    0.0004: real time    0.0004
    --------------------------------------------
      LOOP:  cpu time    1.6519: real time    1.6574

 eigenvalue-minimisations  :  1424
 total energy-change (2. order) :-0.1387997E+02  (-0.1362815E+02)
 number of electron      16.0000000 magnetization 
 augmentation part       16.0000000 magnetization 

 Free energy of the ion-electron system (eV)
  ---------------------------------------------------
  alpha Z        PSCENC =        12.54445055
  Ewald energy   TEWEN  =      2375.42396804
  -Hartree energ DENC   =     -2837.18054149
  -exchange      EXHF   =         0.00000000
  -V(xc)+E(xc)   XCENC  =        52.80163498
  PAW double counting   =       434.08818552     -436.36580876
  entropy T*S    EENTRO =        -0.00002357
  eigenvalues    EBANDS =      -229.14220080
  atomic energy  EATOM  =       588.61769381
  Solvation  Ediel_sol  =         0.00000000
  ---------------------------------------------------
  free energy    TOTEN  =       -39.21264172 eV

  energy without entropy =      -39.21261815  energy(sigma->0) =      -39.21262993


--------------------------------------------------------------------------------------------------------




--------------------------------------- Iteration      1(   4)  ---------------------------------------


     EDDAV:  cpu time    1.7383: real time    1.7466
       DOS:  cpu time    0.0004: real time    0.0004
    --------------------------------------------
      LOOP:  cpu time    1.7386: real time    1.7469

 eigenvalue-minimisations  :  1492
 total energy-change (2. order) :-0.3053683E+00  (-0.3045979E+00)
 number of electron      16.0000000 magnetization 
 augmentation part       16.0000000 magnetization 

 Free energy of the ion-electron system (eV)
  ---------------------------------------------------
  alpha Z        PSCENC =        12.54445055
  Ewald energy   TEWEN  =      2375.42396804
  -Hartree energ DENC   =     -2837.18054149
  -exchange      EXHF   =         0.00000000
  -V(xc)+E(xc)   XCENC  =        52.80163498
  PAW double counting   =       434.08818552     -436.36580876
  entropy T*S    EENTRO =        -0.00000198
  eigenvalues    EBANDS =      -229.44759067
  atomic energy  EATOM  =       588.61769381
  Solvation  Ediel_sol  =         0.00000000
  ---------------------------------------------------
  free energy    TOTEN  =       -39.51801000 eV

  energy without entropy =      -39.51800802  energy(sigma->0) =      -39.51800901


--------------------------------------------------------------------------------------------------------




--------------------------------------- Iteration      1(   5)  ---------------------------------------


     EDDAV:  cpu time    1.7082: real time    1.7134
       DOS:  cpu time    0.0003: real time    0.0003
    CHARGE:  cpu time    0.1883: real time    0.1888
    MIXING:  cpu time    0.0025: real time    0.0025
    --------------------------------------------
      LOOP:  cpu time    1.8993: real time    1.9050

 eigenvalue-minimisations  :  1444
 total energy-change (2. order) :-0.8390159E-02  (-0.8378571E-02)
 number of electron      16.0000000 magnetization 
 augmentation part        0.4282589 magnetization 

 Broyden mixing:
  rms(total) = 0.90189E+00    rms(broyden)= 0.90188E+00
  rms(prec ) = 0.96443E+00
  weight for this iteration     100.00

 Free energy of the ion-electron system (eV)
  ---------------------------------------------------
  alpha Z        PSCENC =        12.54445055
  Ewald energy   TEWEN  =      2375.42396804
  -Hartree energ DENC   =     -2837.18054149
  -exchange      EXHF   =         0.00000000
  -V(xc)+E(xc)   XCENC  =        52.80163498
  PAW double counting   =       434.08818552     -436.36580876
  entropy T*S    EENTRO =        -0.00000204
  eigenvalues    EBANDS =      -229.45598077
  atomic energy  EATOM  =       588.61769381
  Solvation  Ediel_sol  =         0.00000000
  ---------------------------------------------------
  free energy    TOTEN  =       -39.52640016 eV

  energy without entropy =      -39.52639812  energy(sigma->0) =      -39.52639914


--------------------------------------------------------------------------------------------------------




--------------------------------------- Iteration      1(   6)  ---------------------------------------


    POTLOK:  cpu time    0.0749: real time    0.0752
    SETDIJ:  cpu time    0.0385: real time    0.0386
     EDDAV:  cpu time    1.6567: real time    1.6617
       DOS:  cpu time    0.0003: real time    0.0003
    CHARGE:  cpu time    0.1873: real time    0.1877
    MIXING:  cpu time    0.0027: real time    0.0027
    --------------------------------------------
      LOOP:  cpu time    1.9605: real time    1.9662

 eigenvalue-minimisations  :  1380
 total energy-change (2. order) : 0.1882859E+01  (-0.1731243E+00)
 number of electron      16.0000000 magnetization 
 augmentation part        0.4094431 magnetization 

 Broyden mixing:
  rms(total) = 0.52943E+00    rms(broyden)= 0.52942E+00
  rms(prec ) = 0.56034E+00
  weight for this iteration     100.00

 eigenvalues of (default mixing * dielectric matrix)
  average eigenvalue GAMMA=   2.2050
  2.2050

 Free energy of the ion-electron system (eV)
  ---------------------------------------------------
  alpha Z        PSCENC =        12.54445055
  Ewald energy   TEWEN  =      2375.42396804
  -Hartree energ DENC   =     -2857.82755643
  -exchange      EXHF   =         0.00000000
  -V(xc)+E(xc)   XCENC  =        53.78994869
  PAW double counting   =       803.47627497     -806.05304014
  entropy T*S    EENTRO =        -0.00000010
  eigenvalues    EBANDS =      -207.61528019
  atomic energy  EATOM  =       588.61769381
  Solvation  Ediel_sol  =         0.00000000
  ---------------------------------------------------
  free energy    TOTEN  =       -37.64354081 eV

  energy without entropy =      -37.64354071  energy(sigma->0) =      -37.64354076


--------------------------------------------------------------------------------------------------------




--------------------------------------- Iteration      1(   7)  ---------------------------------------


    POTLOK:  cpu time    0.0737: real time    0.0740
    SETDIJ:  cpu time    0.0380: real time    0.0381
     EDDAV:  cpu time    1.6432: real time    1.6480
       DOS:  cpu time    0.0002: real time    0.0002
    CHARGE:  cpu time    0.1752: real time    0.1757
    MIXING:  cpu time    0.0027: real time    0.0027
    --------------------------------------------
      LOOP:  cpu time    1.9331: real time    1.9387

 eigenvalue-minimisations  :  1408
 total energy-change (2. order) : 0.7029042E+00  (-0.2315463E+00)
 number of electron      16.0000000 magnetization 
 augmentation part        0.3870818 magnetization 

 Broyden mixing:
  rms(total) = 0.13816E+00    rms(broyden)= 0.13816E+00
  rms(prec ) = 0.14299E+00
  weight for this iteration     100.00

 eigenvalues of (default mixing * dielectric matrix)
  average eigenvalue GAMMA=   2.2839
  2.2073  2.3606

 Free energy of the ion-electron system (eV)
  ---------------------------------------------------
  alpha Z        PSCENC =        12.54445055
  Ewald energy   TEWEN  =      2375.42396804
  -Hartree energ DENC   =     -2884.70754790
  -exchange      EXHF   =         0.00000000
  -V(xc)+E(xc)   XCENC  =        55.09577758
  PAW double counting   =      1522.54236574    -1525.38425524
  entropy T*S    EENTRO =        -0.00000000
  eigenvalues    EBANDS =      -181.07308916
  atomic energy  EATOM  =       588.61769381
  Solvation  Ediel_sol  =         0.00000000
  ---------------------------------------------------
  free energy    TOTEN  =       -36.94063659 eV

  energy without entropy =      -36.94063659  energy(sigma->0) =      -36.94063659


--------------------------------------------------------------------------------------------------------




--------------------------------------- Iteration      1(   8)  ---------------------------------------


    POTLOK:  cpu time    0.0707: real time    0.0709
    SETDIJ:  cpu time    0.0340: real time    0.0341
     EDDAV:  cpu time    1.6337: real time    1.6384
       DOS:  cpu time    0.0002: real time    0.0002
    CHARGE:  cpu time    0.1771: real time    0.1776
    MIXING:  cpu time    0.0028: real time    0.0028
    --------------------------------------------
      LOOP:  cpu time    1.9186: real time    1.9241

 eigenvalue-minimisations  :  1416
 total energy-change (2. order) :-0.3833807E-04  (-0.7142685E-02)
 number of electron      16.0000000 magnetization 
 augmentation part        0.3859402 magnetization 

 Broyden mixing:
  rms(total) = 0.13593E-01    rms(broyden)= 0.13592E-01
  rms(prec ) = 0.26814E-01
  weight for this iteration     100.00

 eigenvalues of (default mixing * dielectric matrix)
  average eigenvalue GAMMA=   1.7825
  0.8907  2.2728  2.1841

 Free energy of the ion-electron system (eV)
  ---------------------------------------------------
  alpha Z        PSCENC =        12.54445055
  Ewald energy   TEWEN  =      2375.42396804
  -Hartree energ DENC   =     -2886.58274058
  -exchange      EXHF   =         0.00000000
  -V(xc)+E(xc)   XCENC  =        55.09011676
  PAW double counting   =      1710.28698179    -1713.01150945
  entropy T*S    EENTRO =        -0.00000000
  eigenvalues    EBANDS =      -179.30963584
  atomic energy  EATOM  =       588.61769381
  Solvation  Ediel_sol  =         0.00000000
  ---------------------------------------------------
  free energy    TOTEN  =       -36.94067493 eV

  energy without entropy =      -36.94067493  energy(sigma->0) =      -36.94067493


--------------------------------------------------------------------------------------------------------




--------------------------------------- Iteration      1(   9)  ---------------------------------------


    POTLOK:  cpu time    0.0716: real time    0.0718
    SETDIJ:  cpu time    0.0366: real time    0.0367
     EDDAV:  cpu time    1.6805: real time    1.6858
       DOS:  cpu time    0.0002: real time    0.0002
    CHARGE:  cpu time    0.1758: real time    0.1762
    MIXING:  cpu time    0.0028: real time    0.0028
    --------------------------------------------
      LOOP:  cpu time    1.9676: real time    1.9736

 eigenvalue-minimisations  :  1476
 total energy-change (2. order) : 0.1368698E-02  (-0.2182564E-03)
 number of electron      16.0000000 magnetization 
 augmentation part        0.3855168 magnetization 

 Broyden mixing:
  rms(total) = 0.92243E-02    rms(broyden)= 0.92243E-02
  rms(prec ) = 0.23443E-01
  weight for this iteration     100.00

 eigenvalues of (default mixing * dielectric matrix)
  average eigenvalue GAMMA=   2.1763
  1.0147  1.9509  2.8699  2.8699

 Free energy of the ion-electron system (eV)
  ---------------------------------------------------
  alpha Z        PSCENC =        12.54445055
  Ewald energy   TEWEN  =      2375.42396804
  -Hartree energ DENC   =     -2887.53923726
  -exchange      EXHF   =         0.00000000
  -V(xc)+E(xc)   XCENC  =        55.11373870
  PAW double counting   =      1703.79883026    -1706.52833530
  entropy T*S    EENTRO =        -0.00000000
  eigenvalues    EBANDS =      -178.37041503
  atomic energy  EATOM  =       588.61769381
  Solvation  Ediel_sol  =         0.00000000
  ---------------------------------------------------
  free energy    TOTEN  =       -36.93930623 eV

  energy without entropy =      -36.93930623  energy(sigma->0) =      -36.93930623


--------------------------------------------------------------------------------------------------------




--------------------------------------- Iteration      1(  10)  ---------------------------------------


    POTLOK:  cpu time    0.0713: real time    0.0715
    SETDIJ:  cpu time    0.0351: real time    0.0351
     EDDAV:  cpu time    1.5658: real time    1.5706
       DOS:  cpu time    0.0002: real time    0.0002
    CHARGE:  cpu time    0.1779: real time    0.1783
    MIXING:  cpu time    0.0028: real time    0.0029
    --------------------------------------------
      LOOP:  cpu time    1.8532: real time    1.8587

 eigenvalue-minimisations  :  1324
 total energy-change (2. order) : 0.5571293E-02  (-0.3838656E-03)
 number of electron      16.0000000 magnetization 
 augmentation part        0.3849993 magnetization 

 Broyden mixing:
  rms(total) = 0.92082E-02    rms(broyden)= 0.92082E-02
  rms(prec ) = 0.17777E-01
  weight for this iteration     100.00

 eigenvalues of (default mixing * dielectric matrix)
  average eigenvalue GAMMA=   1.8887
  3.1958  2.5103  1.9896  0.9949  0.7529

 Free energy of the ion-electron system (eV)
  ---------------------------------------------------
  alpha Z        PSCENC =        12.54445055
  Ewald energy   TEWEN  =      2375.42396804
  -Hartree energ DENC   =     -2891.75736510
  -exchange      EXHF   =         0.00000000
  -V(xc)+E(xc)   XCENC  =        55.17649622
  PAW double counting   =      1684.91515781    -1687.63629061
  entropy T*S    EENTRO =        -0.00000000
  eigenvalues    EBANDS =      -174.21784565
  atomic energy  EATOM  =       588.61769381
  Solvation  Ediel_sol  =         0.00000000
  ---------------------------------------------------
  free energy    TOTEN  =       -36.93373494 eV

  energy without entropy =      -36.93373494  energy(sigma->0) =      -36.93373494


--------------------------------------------------------------------------------------------------------




--------------------------------------- Iteration      1(  11)  ---------------------------------------


    POTLOK:  cpu time    0.0716: real time    0.0718
    SETDIJ:  cpu time    0.0358: real time    0.0359
     EDDAV:  cpu time    1.6340: real time    1.6392
       DOS:  cpu time    0.0002: real time    0.0002
    CHARGE:  cpu time    0.1782: real time    0.1786
    MIXING:  cpu time    0.0040: real time    0.0040
    --------------------------------------------
      LOOP:  cpu time    1.9237: real time    1.9297

 eigenvalue-minimisations  :  1392
 total energy-change (2. order) : 0.9962663E-03  (-0.4413870E-04)
 number of electron      16.0000000 magnetization 
 augmentation part        0.3847448 magnetization 

 Broyden mixing:
  rms(total) = 0.56240E-02    rms(broyden)= 0.56240E-02
  rms(prec ) = 0.14575E-01
  weight for this iteration     100.00

 eigenvalues of (default mixing * dielectric matrix)
  average eigenvalue GAMMA=   2.3054
  4.7153  2.8069  2.1785  2.0917  1.0200  1.0200

 Free energy of the ion-electron system (eV)
  ---------------------------------------------------
  alpha Z        PSCENC =        12.54445055
  Ewald energy   TEWEN  =      2375.42396804
  -Hartree energ DENC   =     -2892.83433081
  -exchange      EXHF   =         0.00000000
  -V(xc)+E(xc)   XCENC  =        55.18837852
  PAW double counting   =      1704.29430018    -1707.01614321
  entropy T*S    EENTRO =        -0.00000000
  eigenvalues    EBANDS =      -173.15105575
  atomic energy  EATOM  =       588.61769381
  Solvation  Ediel_sol  =         0.00000000
  ---------------------------------------------------
  free energy    TOTEN  =       -36.93273867 eV

  energy without entropy =      -36.93273867  energy(sigma->0) =      -36.93273867


--------------------------------------------------------------------------------------------------------




--------------------------------------- Iteration      1(  12)  ---------------------------------------


    POTLOK:  cpu time    0.0688: real time    0.0692
    SETDIJ:  cpu time    0.0357: real time    0.0359
     EDDAV:  cpu time    1.4779: real time    1.4830
       DOS:  cpu time    0.0003: real time    0.0003
    CHARGE:  cpu time    0.1827: real time    0.1832
    MIXING:  cpu time    0.0032: real time    0.0032
    --------------------------------------------
      LOOP:  cpu time    1.7686: real time    1.7746

 eigenvalue-minimisations  :  1196
 total energy-change (2. order) : 0.4262358E-02  (-0.2241624E-03)
 number of electron      16.0000000 magnetization 
 augmentation part        0.3847756 magnetization 

 Broyden mixing:
  rms(total) = 0.37716E-02    rms(broyden)= 0.37716E-02
  rms(prec ) = 0.84406E-02
  weight for this iteration     100.00

 eigenvalues of (default mixing * dielectric matrix)
  average eigenvalue GAMMA=   2.2792
  5.1661  2.8795  2.4285  2.0499  1.3926  1.0187  1.0187

 Free energy of the ion-electron system (eV)
  ---------------------------------------------------
  alpha Z        PSCENC =        12.54445055
  Ewald energy   TEWEN  =      2375.42396804
  -Hartree energ DENC   =     -2896.33268550
  -exchange      EXHF   =         0.00000000
  -V(xc)+E(xc)   XCENC  =        55.18272674
  PAW double counting   =      1695.76381838    -1698.48909768
  entropy T*S    EENTRO =        -0.00000000
  eigenvalues    EBANDS =      -169.63935065
  atomic energy  EATOM  =       588.61769381
  Solvation  Ediel_sol  =         0.00000000
  ---------------------------------------------------
  free energy    TOTEN  =       -36.92847631 eV

  energy without entropy =      -36.92847631  energy(sigma->0) =      -36.92847631


--------------------------------------------------------------------------------------------------------




--------------------------------------- Iteration      1(  13)  ---------------------------------------


    POTLOK:  cpu time    0.0673: real time    0.0675
    SETDIJ:  cpu time    0.0355: real time    0.0356
     EDDAV:  cpu time    1.5878: real time    1.5929
       DOS:  cpu time    0.0003: real time    0.0003
    CHARGE:  cpu time    0.1773: real time    0.1778
    MIXING:  cpu time    0.0032: real time    0.0032
    --------------------------------------------
      LOOP:  cpu time    1.8714: real time    1.8773

 eigenvalue-minimisations  :  1344
 total energy-change (2. order) :-0.2518968E-04  (-0.1475306E-04)
 number of electron      16.0000000 magnetization 
 augmentation part        0.3847393 magnetization 

 Broyden mixing:
  rms(total) = 0.43631E-02    rms(broyden)= 0.43631E-02
  rms(prec ) = 0.71583E-02
  weight for this iteration     100.00

 eigenvalues of (default mixing * dielectric matrix)
  average eigenvalue GAMMA=   2.6658
  8.1793  3.3642  2.5660  2.0987  2.0987  1.0799  0.9886  0.9510

 Free energy of the ion-electron system (eV)
  ---------------------------------------------------
  alpha Z        PSCENC =        12.54445055
  Ewald energy   TEWEN  =      2375.42396804
  -Hartree energ DENC   =     -2897.63809400
  -exchange      EXHF   =         0.00000000
  -V(xc)+E(xc)   XCENC  =        55.18566980
  PAW double counting   =      1701.00976100    -1703.73312972
  entropy T*S    EENTRO =        -0.00000000
  eigenvalues    EBANDS =      -168.33882097
  atomic energy  EATOM  =       588.61769381
  Solvation  Ediel_sol  =         0.00000000
  ---------------------------------------------------
  free energy    TOTEN  =       -36.92850150 eV

  energy without entropy =      -36.92850150  energy(sigma->0) =      -36.92850150


--------------------------------------------------------------------------------------------------------




--------------------------------------- Iteration      1(  14)  ---------------------------------------


    POTLOK:  cpu time    0.0661: real time    0.0663
    SETDIJ:  cpu time    0.0355: real time    0.0356
     EDDAV:  cpu time    1.5180: real time    1.5226
       DOS:  cpu time    0.0002: real time    0.0002
    CHARGE:  cpu time    0.1771: real time    0.1775
    MIXING:  cpu time    0.0033: real time    0.0033
    --------------------------------------------
      LOOP:  cpu time    1.8002: real time    1.8055

 eigenvalue-minimisations  :  1260
 total energy-change (2. order) :-0.1081860E-02  (-0.2541347E-04)
 number of electron      16.0000000 magnetization 
 augmentation part        0.3847138 magnetization 

 Broyden mixing:
  rms(total) = 0.19565E-02    rms(broyden)= 0.19565E-02
  rms(prec ) = 0.36542E-02
  weight for this iteration     100.00

 eigenvalues of (default mixing * dielectric matrix)
  average eigenvalue GAMMA=   2.9139
 10.3535  3.9285  2.6977  2.6977  1.9269  1.5243  1.1213  1.0317  0.9438

 Free energy of the ion-electron system (eV)
  ---------------------------------------------------
  alpha Z        PSCENC =        12.54445055
  Ewald energy   TEWEN  =      2375.42396804
  -Hartree energ DENC   =     -2898.90577584
  -exchange      EXHF   =         0.00000000
  -V(xc)+E(xc)   XCENC  =        55.18463511
  PAW double counting   =      1697.39495253    -1700.11794262
  entropy T*S    EENTRO =        -0.00000000
  eigenvalues    EBANDS =      -167.07156494
  atomic energy  EATOM  =       588.61769381
  Solvation  Ediel_sol  =         0.00000000
  ---------------------------------------------------
  free energy    TOTEN  =       -36.92958336 eV

  energy without entropy =      -36.92958336  energy(sigma->0) =      -36.92958336


--------------------------------------------------------------------------------------------------------




--------------------------------------- Iteration      1(  15)  ---------------------------------------


    POTLOK:  cpu time    0.0659: real time    0.0661
    SETDIJ:  cpu time    0.0355: real time    0.0356
     EDDAV:  cpu time    1.5757: real time    1.5805
       DOS:  cpu time    0.0002: real time    0.0002
    CHARGE:  cpu time    0.1767: real time    0.1771
    MIXING:  cpu time    0.0033: real time    0.0033
    --------------------------------------------
      LOOP:  cpu time    1.8573: real time    1.8629

 eigenvalue-minimisations  :  1324
 total energy-change (2. order) :-0.1003551E-02  (-0.1860353E-04)
 number of electron      16.0000000 magnetization 
 augmentation part        0.3847523 magnetization 

 Broyden mixing:
  rms(total) = 0.26450E-02    rms(broyden)= 0.26450E-02
  rms(prec ) = 0.28376E-02
  weight for this iteration     100.00

 eigenvalues of (default mixing * dielectric matrix)
  average eigenvalue GAMMA=   3.4904
 15.6095  5.4280  2.9977  2.3311  2.3311  2.0198  1.2444  1.0091  1.0091  0.9244

 Free energy of the ion-electron system (eV)
  ---------------------------------------------------
  alpha Z        PSCENC =        12.54445055
  Ewald energy   TEWEN  =      2375.42396804
  -Hartree energ DENC   =     -2899.51398426
  -exchange      EXHF   =         0.00000000
  -V(xc)+E(xc)   XCENC  =        55.18250348
  PAW double counting   =      1692.11923179    -1694.84010475
  entropy T*S    EENTRO =        -0.00000000
  eigenvalues    EBANDS =      -166.46434557
  atomic energy  EATOM  =       588.61769381
  Solvation  Ediel_sol  =         0.00000000
  ---------------------------------------------------
  free energy    TOTEN  =       -36.93058691 eV

  energy without entropy =      -36.93058691  energy(sigma->0) =      -36.93058691


--------------------------------------------------------------------------------------------------------




--------------------------------------- Iteration      1(  16)  ---------------------------------------


    POTLOK:  cpu time    0.0658: real time    0.0660
    SETDIJ:  cpu time    0.0351: real time    0.0352
     EDDAV:  cpu time    1.6051: real time    1.6103
       DOS:  cpu time    0.0002: real time    0.0002
    CHARGE:  cpu time    0.1763: real time    0.1767
    MIXING:  cpu time    0.0036: real time    0.0036
    --------------------------------------------
      LOOP:  cpu time    1.8862: real time    1.8922

 eigenvalue-minimisations  :  1364
 total energy-change (2. order) :-0.1727058E-03  (-0.3056979E-05)
 number of electron      16.0000000 magnetization 
 augmentation part        0.3846934 magnetization 

 Broyden mixing:
  rms(total) = 0.47700E-03    rms(broyden)= 0.47700E-03
  rms(prec ) = 0.59087E-03
  weight for this iteration     100.00

 eigenvalues of (default mixing * dielectric matrix)
  average eigenvalue GAMMA=   4.1679
 22.7587  6.8528  3.3337  2.7182  2.4820  1.9819  1.6601  0.9604  0.9604  1.0941
  1.0439

 Free energy of the ion-electron system (eV)
  ---------------------------------------------------
  alpha Z        PSCENC =        12.54445055
  Ewald energy   TEWEN  =      2375.42396804
  -Hartree energ DENC   =     -2899.74936826
  -exchange      EXHF   =         0.00000000
  -V(xc)+E(xc)   XCENC  =        55.18599285
  PAW double counting   =      1696.01570666    -1698.73799943
  entropy T*S    EENTRO =        -0.00000000
  eigenvalues    EBANDS =      -166.23120384
  atomic energy  EATOM  =       588.61769381
  Solvation  Ediel_sol  =         0.00000000
  ---------------------------------------------------
  free energy    TOTEN  =       -36.93075962 eV

  energy without entropy =      -36.93075962  energy(sigma->0) =      -36.93075962


--------------------------------------------------------------------------------------------------------




--------------------------------------- Iteration      1(  17)  ---------------------------------------


    POTLOK:  cpu time    0.0656: real time    0.0658
    SETDIJ:  cpu time    0.0350: real time    0.0351
     EDDAV:  cpu time    1.5528: real time    1.5577
       DOS:  cpu time    0.0002: real time    0.0002
    CHARGE:  cpu time    0.1801: real time    0.1805
    MIXING:  cpu time    0.0036: real time    0.0036
    --------------------------------------------
      LOOP:  cpu time    1.8374: real time    1.8430

 eigenvalue-minimisations  :  1276
 total energy-change (2. order) :-0.8082514E-04  (-0.3224539E-06)
 number of electron      16.0000000 magnetization 
 augmentation part        0.3846830 magnetization 

 Broyden mixing:
  rms(total) = 0.21224E-03    rms(broyden)= 0.21224E-03
  rms(prec ) = 0.23140E-03
  weight for this iteration     100.00

 eigenvalues of (default mixing * dielectric matrix)
  average eigenvalue GAMMA=   4.0589
 23.3745  6.8443  3.3327  2.5370  2.5370  2.4986  1.9554  1.6137  1.0387  1.0387
  0.9682  0.9682

 Free energy of the ion-electron system (eV)
  ---------------------------------------------------
  alpha Z        PSCENC =        12.54445055
  Ewald energy   TEWEN  =      2375.42396804
  -Hartree energ DENC   =     -2899.80445188
  -exchange      EXHF   =         0.00000000
  -V(xc)+E(xc)   XCENC  =        55.18580575
  PAW double counting   =      1695.67462758    -1698.39746324
  entropy T*S    EENTRO =        -0.00000000
  eigenvalues    EBANDS =      -166.17547104
  atomic energy  EATOM  =       588.61769381
  Solvation  Ediel_sol  =         0.00000000
  ---------------------------------------------------
  free energy    TOTEN  =       -36.93084044 eV

  energy without entropy =      -36.93084044  energy(sigma->0) =      -36.93084044


--------------------------------------------------------------------------------------------------------




--------------------------------------- Iteration      1(  18)  ---------------------------------------


    POTLOK:  cpu time    0.0668: real time    0.0671
    SETDIJ:  cpu time    0.0375: real time    0.0376
     EDDAV:  cpu time    1.6640: real time    1.6690
       DOS:  cpu time    0.0002: real time    0.0002
    CHARGE:  cpu time    0.1804: real time    0.1809
    MIXING:  cpu time    0.0038: real time    0.0038
    --------------------------------------------
      LOOP:  cpu time    1.9528: real time    1.9585

 eigenvalue-minimisations  :  1384
 total energy-change (2. order) :-0.9791824E-05  (-0.4118621E-07)
 number of electron      16.0000000 magnetization 
 augmentation part        0.3846863 magnetization 

 Broyden mixing:
  rms(total) = 0.68446E-04    rms(broyden)= 0.68445E-04
  rms(prec ) = 0.81675E-04
  weight for this iteration     100.00

 eigenvalues of (default mixing * dielectric matrix)
  average eigenvalue GAMMA=   3.8967
 23.4669  6.9045  3.4301  3.1600  2.4551  2.4278  2.0377  1.6305  1.1787  1.0090
  1.0090  1.0018  0.9453

 Free energy of the ion-electron system (eV)
  ---------------------------------------------------
  alpha Z        PSCENC =        12.54445055
  Ewald energy   TEWEN  =      2375.42396804
  -Hartree energ DENC   =     -2899.80264252
  -exchange      EXHF   =         0.00000000
  -V(xc)+E(xc)   XCENC  =        55.18556132
  PAW double counting   =      1695.59647910    -1698.31904739
  entropy T*S    EENTRO =        -0.00000000
  eigenvalues    EBANDS =      -166.17731314
  atomic energy  EATOM  =       588.61769381
  Solvation  Ediel_sol  =         0.00000000
  ---------------------------------------------------
  free energy    TOTEN  =       -36.93085024 eV

  energy without entropy =      -36.93085024  energy(sigma->0) =      -36.93085024


--------------------------------------------------------------------------------------------------------




--------------------------------------- Iteration      1(  19)  ---------------------------------------


    POTLOK:  cpu time    0.0683: real time    0.0732
    SETDIJ:  cpu time    0.0377: real time    0.0378
     EDDAV:  cpu time    1.6000: real time    1.6048
       DOS:  cpu time    0.0003: real time    0.0003
    CHARGE:  cpu time    0.1800: real time    0.1805
    MIXING:  cpu time    0.0039: real time    0.0039
    --------------------------------------------
      LOOP:  cpu time    1.8901: real time    1.9004

 eigenvalue-minimisations  :  1308
 total energy-change (2. order) :-0.5001883E-05  (-0.1514123E-07)
 number of electron      16.0000000 magnetization 
 augmentation part        0.3846851 magnetization 

 Broyden mixing:
  rms(total) = 0.31869E-04    rms(broyden)= 0.31866E-04
  rms(prec ) = 0.34356E-04
  weight for this iteration     100.00

 eigenvalues of (default mixing * dielectric matrix)
  average eigenvalue GAMMA=   3.7792
 23.4816  6.9359  3.6307  3.1264  2.5020  2.5020  2.1221  1.9136  1.7043  1.0426
  1.0150  1.0150  0.9685  0.9493

 Free energy of the ion-electron system (eV)
  ---------------------------------------------------
  alpha Z        PSCENC =        12.54445055
  Ewald energy   TEWEN  =      2375.42396804
  -Hartree energ DENC   =     -2899.80593046
  -exchange      EXHF   =         0.00000000
  -V(xc)+E(xc)   XCENC  =        55.18556521
  PAW double counting   =      1695.58805042    -1698.31070177
  entropy T*S    EENTRO =        -0.00000000
  eigenvalues    EBANDS =      -166.17395104
  atomic energy  EATOM  =       588.61769381
  Solvation  Ediel_sol  =         0.00000000
  ---------------------------------------------------
  free energy    TOTEN  =       -36.93085524 eV

  energy without entropy =      -36.93085524  energy(sigma->0) =      -36.93085524


--------------------------------------------------------------------------------------------------------




--------------------------------------- Iteration      1(  20)  ---------------------------------------


    POTLOK:  cpu time    0.0683: real time    0.0712
    SETDIJ:  cpu time    0.0380: real time    0.0381
     EDDAV:  cpu time    1.5151: real time    1.5196
       DOS:  cpu time    0.0002: real time    0.0002
    CHARGE:  cpu time    0.1757: real time    0.1761
    MIXING:  cpu time    0.0040: real time    0.0040
    --------------------------------------------
      LOOP:  cpu time    1.8012: real time    1.8093

 eigenvalue-minimisations  :  1240
 total energy-change (2. order) :-0.9841235E-06  (-0.2049100E-08)
 number of electron      16.0000000 magnetization 
 augmentation part        0.3846849 magnetization 

 Broyden mixing:
  rms(total) = 0.14175E-04    rms(broyden)= 0.14168E-04
  rms(prec ) = 0.14839E-04
  weight for this iteration     100.00

 eigenvalues of (default mixing * dielectric matrix)
  average eigenvalue GAMMA=   3.6877
 23.5022  6.9349  4.0643  3.1788  3.0335  2.4892  2.2533  2.0702  1.6619  1.2139
  1.0155  1.0155  0.9763  0.9763  0.9293

 Free energy of the ion-electron system (eV)
  ---------------------------------------------------
  alpha Z        PSCENC =        12.54445055
  Ewald energy   TEWEN  =      2375.42396804
  -Hartree energ DENC   =     -2899.80496315
  -exchange      EXHF   =         0.00000000
  -V(xc)+E(xc)   XCENC  =        55.18557916
  PAW double counting   =      1695.59786142    -1698.32050138
  entropy T*S    EENTRO =        -0.00000000
  eigenvalues    EBANDS =      -166.17494467
  atomic energy  EATOM  =       588.61769381
  Solvation  Ediel_sol  =         0.00000000
  ---------------------------------------------------
  free energy    TOTEN  =       -36.93085622 eV

  energy without entropy =      -36.93085622  energy(sigma->0) =      -36.93085622


--------------------------------------------------------------------------------------------------------




--------------------------------------- Iteration      1(  21)  ---------------------------------------


    POTLOK:  cpu time    0.0686: real time    0.0688
    SETDIJ:  cpu time    0.0345: real time    0.0346
     EDDAV:  cpu time    1.4016: real time    1.4059
       DOS:  cpu time    0.0002: real time    0.0002
    CHARGE:  cpu time    0.1767: real time    0.1771
    MIXING:  cpu time    0.0049: real time    0.0049
    --------------------------------------------
      LOOP:  cpu time    1.6866: real time    1.6916

 eigenvalue-minimisations  :  1116
 total energy-change (2. order) :-0.2035254E-06  (-0.8429492E-09)
 number of electron      16.0000000 magnetization 
 augmentation part        0.3846851 magnetization 

 Broyden mixing:
  rms(total) = 0.57976E-05    rms(broyden)= 0.57786E-05
  rms(prec ) = 0.61548E-05
  weight for this iteration     100.00

 eigenvalues of (default mixing * dielectric matrix)
  average eigenvalue GAMMA=   3.5706
 23.5104  6.9265  4.1897  3.2870  2.9746  2.5603  2.3499  2.0467  1.6495  1.6495
  1.0097  1.0097  0.9443  0.9961  0.9961  1.0301

 Free energy of the ion-electron system (eV)
  ---------------------------------------------------
  alpha Z        PSCENC =        12.54445055
  Ewald energy   TEWEN  =      2375.42396804
  -Hartree energ DENC   =     -2899.80444593
  -exchange      EXHF   =         0.00000000
  -V(xc)+E(xc)   XCENC  =        55.18556848
  PAW double counting   =      1695.61244347    -1698.33507289
  entropy T*S    EENTRO =        -0.00000000
  eigenvalues    EBANDS =      -166.17546195
  atomic energy  EATOM  =       588.61769381
  Solvation  Ediel_sol  =         0.00000000
  ---------------------------------------------------
  free energy    TOTEN  =       -36.93085643 eV

  energy without entropy =      -36.93085643  energy(sigma->0) =      -36.93085643


--------------------------------------------------------------------------------------------------------




--------------------------------------- Iteration      1(  22)  ---------------------------------------


    POTLOK:  cpu time    0.0701: real time    0.0704
    SETDIJ:  cpu time    0.0346: real time    0.0347
     EDDAV:  cpu time    1.3300: real time    1.3343
       DOS:  cpu time    0.0002: real time    0.0002
    --------------------------------------------
      LOOP:  cpu time    1.4349: real time    1.4396

 eigenvalue-minimisations  :  1020
 total energy-change (2. order) :-0.2913566E-08  (-0.5643906E-10)
 number of electron      16.0000000 magnetization 
 augmentation part        0.3846851 magnetization 

 Free energy of the ion-electron system (eV)
  ---------------------------------------------------
  alpha Z        PSCENC =        12.54445055
  Ewald energy   TEWEN  =      2375.42396804
  -Hartree energ DENC   =     -2899.80458636
  -exchange      EXHF   =         0.00000000
  -V(xc)+E(xc)   XCENC  =        55.18557454
  PAW double counting   =      1695.61190094    -1698.33453836
  entropy T*S    EENTRO =        -0.00000000
  eigenvalues    EBANDS =      -166.17531958
  atomic energy  EATOM  =       588.61769381
  Solvation  Ediel_sol  =         0.00000000
  ---------------------------------------------------
  free energy    TOTEN  =       -36.93085643 eV

  energy without entropy =      -36.93085643  energy(sigma->0) =      -36.93085643


--------------------------------------------------------------------------------------------------------




 average (electrostatic) potential at core
  the test charge radii are     0.6991
  (the norm of the test charge is              1.0000)
       1 -56.6475       2 -56.6476       3 -56.6475       4 -56.6476
 
 
 
 E-fermi :  -1.2205     XC(G=0):  -4.0551     alpha+bet : -3.8262


 k-point     1 :       0.0000    0.0000    0.0000
  band No.  band energies     occupation 
      1     -20.7982      2.00000
      2     -20.7902      2.00000
      3      -8.9588      2.00000
      4      -8.8180      2.00000
      5      -4.2479      2.00000
      6      -4.2478      2.00000
      7      -4.2475      2.00000
      8      -4.2475      2.00000
      9       1.8870      0.00000
     10       2.4740      0.00000
     11       3.0495      0.00000
     12       3.9424      0.00000

 k-point     2 :       0.0476    0.0000    0.0000
  band No.  band energies     occupation 
      1     -20.7444      2.00000
      2     -20.7364      2.00000
      3      -8.8941      2.00000
      4      -8.7538      2.00000
      5      -4.4688      2.00000
      6      -4.4683      2.00000
      7      -4.3647      2.00000
      8      -4.3643      2.00000
      9       1.9590      0.00000
     10       2.5472      0.00000
     11       3.1229      0.00000
     12       4.0152      0.00000

 k-point     3 :       0.0952    0.0000    0.0000
  band No.  band energies     occupation 
      1     -20.5830      2.00000
      2     -20.5751      2.00000
      3      -8.7007      2.00000
      4      -8.5617      2.00000
      5      -5.0887      2.00000
      6      -5.0880      2.00000
      7      -4.6845      2.00000
      8      -4.6841      2.00000
      9       2.1754      0.00000
     10       2.7667      0.00000
     11       3.3428      0.00000
     12       4.2332      0.00000

 k-point     4 :       0.1429    0.0000    0.0000
  band No.  band energies     occupation 
      1     -20.3147      2.00000
      2     -20.3070      2.00000
      3      -8.3803      2.00000
      4      -8.2434      2.00000
      5      -6.0082      2.00000
      6      -6.0073      2.00000
      7      -5.1362      2.00000
      8      -5.1357      2.00000
      9       2.5359      0.00000
     10       3.1323      0.00000
     11       3.7090      0.00000
     12       4.5957      0.00000

 k-point     5 :       0.1905    0.0000    0.0000
  band No.  band energies     occupation 
      1     -19.9404      2.00000
      2     -19.9330      2.00000
      3      -7.9358      2.00000
      4      -7.8022      2.00000
      5      -7.1209      2.00000
      6      -7.1197      2.00000
      7      -5.6449      2.00000
      8      -5.6444      2.00000
      9       3.0402      0.00000
     10       3.6430      0.00000
     11       4.2198      0.00000
     12       5.1001      0.00000

 k-point     6 :       0.2381    0.0000    0.0000
  band No.  band energies     occupation 
      1     -19.4616      2.00000
      2     -19.4545      2.00000
      3      -8.3407      2.00000
      4      -8.3390      2.00000
      5      -7.3727      2.00000
      6      -7.2433      2.00000
      7      -6.1519      2.00000
      8      -6.1513      2.00000
      9       3.6871      0.00000
     10       4.2957      0.00000
     11       4.8677      0.00000
     12       5.7175      0.00000

 k-point     7 :       0.2857    0.0000    0.0000
  band No.  band energies     occupation 
      1     -18.8807      2.00000
      2     -18.8740      2.00000
      3      -9.6049      2.00000
      4      -9.6027      2.00000
      5      -6.6999      2.00000
      6      -6.6162      2.00000
      7      -6.6157      2.00000
      8      -6.5762      2.00000
      9       4.4717      0.00000
     10       4.9609      0.00000
     11       4.9796      0.00000
     12       5.2486      0.00000

 k-point     8 :       0.3333    0.0000    0.0000
  band No.  band energies     occupation 
      1     -18.2011      2.00000
      2     -18.1947      2.00000
      3     -10.8687      2.00000
      4     -10.8660      2.00000
      5      -7.0112      2.00000
      6      -7.0105      2.00000
      7      -5.9338      2.00000
      8      -5.8176      2.00000
      9       3.6702      0.00000
     10       3.7619      0.00000
     11       5.3993      0.00000
     12       6.0466      0.00000

 k-point     9 :       0.3810    0.0000    0.0000
  band No.  band energies     occupation 
      1     -17.4289      2.00000
      2     -17.4230      2.00000
      3     -12.0988      2.00000
      4     -12.0955      2.00000
      5      -7.3193      2.00000
      6      -7.3187      2.00000
      7      -5.1080      2.00000
      8      -5.0016      2.00000
      9       2.3830      0.00000
     10       2.4863      0.00000
     11       6.2971      0.00000
     12       6.3971      0.00000

 k-point    10 :       0.4286    0.0000    0.0000
  band No.  band energies     occupation 
      1     -16.5792      2.00000
      2     -16.5738      2.00000
      3     -13.2623      2.00000
      4     -13.2586      2.00000
      5      -7.5299      2.00000
      6      -7.5293      2.00000
      7      -4.3024      2.00000
      8      -4.2085      2.00000
      9       1.2513      0.00000
     10       1.3698      0.00000
     11       6.2845      0.00000
     12       6.3005      0.00000

 k-point    11 :       0.4762    0.0000    0.0000
  band No.  band energies     occupation 
      1     -15.7342      2.00000
      2     -15.7292      2.00000
      3     -14.2666      2.00000
      4     -14.2625      2.00000
      5      -7.6367      2.00000
      6      -7.6360      2.00000
      7      -3.7232      2.00000
      8      -3.6424      2.00000
      9       0.5042      0.00000
     10       0.6371      0.00000
     11       6.2349      0.00000
     12       6.2475      0.00000

 k-point    12 :       0.0952    0.0476    0.0000
  band No.  band energies     occupation 
      1     -20.6368      2.00000
      2     -20.6289      2.00000
      3      -8.7651      2.00000
      4      -8.6256      2.00000
      5      -4.8738      2.00000
      6      -4.8732      2.00000
      7      -4.5985      2.00000
      8      -4.5981      2.00000
      9       2.1033      0.00000
     10       2.6935      0.00000
     11       3.2695      0.00000
     12       4.1606      0.00000

 k-point    13 :       0.1429    0.0476    0.0000
  band No.  band energies     occupation 
      1     -20.4219      2.00000
      2     -20.4142      2.00000
      3      -8.5082      2.00000
      4      -8.3704      2.00000
      5      -5.6107      2.00000
      6      -5.6099      2.00000
      7      -5.0176      2.00000
      8      -5.0171      2.00000
      9       2.3918      0.00000
     10       2.9861      0.00000
     11       3.5627      0.00000
     12       4.4509      0.00000

 k-point    14 :       0.1905    0.0476    0.0000
  band No.  band energies     occupation 
      1     -20.1006      2.00000
      2     -20.0931      2.00000
      3      -8.1256      2.00000
      4      -7.9905      2.00000
      5      -6.5969      2.00000
      6      -6.5958      2.00000
      7      -5.5286      2.00000
      8      -5.5280      2.00000
      9       2.8244      0.00000
     10       3.4245      0.00000
     11       4.0014      0.00000
     12       4.8850      0.00000

 k-point    15 :       0.2381    0.0476    0.0000
  band No.  band energies     occupation 
      1     -19.6741      2.00000
      2     -19.6668      2.00000
      3      -7.7418      2.00000
      4      -7.7404      2.00000
      5      -7.6214      2.00000
      6      -7.4901      2.00000
      7      -6.0584      2.00000
      8      -6.0578      2.00000
      9       3.4003      0.00000
     10       4.0071      0.00000
     11       4.5831      0.00000
     12       5.4565      0.00000

 k-point    16 :       0.2857    0.0476    0.0000
  band No.  band energies     occupation 
      1     -19.1442      2.00000
      2     -19.1373      2.00000
      3      -8.9700      2.00000
      4      -8.9681      2.00000
      5      -7.0026      2.00000
      6      -6.8763      2.00000
      7      -6.5583      2.00000
      8      -6.5576      2.00000
      9       4.1177      0.00000
     10       4.7243      0.00000
     11       5.2580      0.00000
     12       5.6683      0.00000

 k-point    17 :       0.3333    0.0476    0.0000
  band No.  band energies     occupation 
      1     -18.5139      2.00000
      2     -18.5074      2.00000
      3     -10.2254      2.00000
      4     -10.2230      2.00000
      5      -6.9966      2.00000
      6      -6.9959      2.00000
      7      -6.2810      2.00000
      8      -6.1612      2.00000
      9       4.2969      0.00000
     10       4.3797      0.00000
     11       4.9789      0.00000
     12       5.6265      0.00000

[...]
      7      -6.1669      2.00000
      8      -6.1660      2.00000
      9       3.2572      0.00000
     10       3.8626      0.00000
     11       4.4395      0.00000
     12       5.3180      0.00000

 k-point    24 :       0.2857    0.0952    0.0000
  band No.  band energies     occupation 
      1     -19.3029      2.00000
      2     -19.2959      2.00000
      3      -8.3958      2.00000
      4      -8.3942      2.00000
      5      -7.1856      2.00000
      6      -7.0577      2.00000
      7      -6.7439      2.00000
      8      -6.7430      2.00000
      9       3.9045      0.00000
     10       4.5160      0.00000
     11       5.0885      0.00000
     12       5.9137      0.00000

 k-point    25 :       0.3333    0.0952    0.0000
  band No.  band energies     occupation 
      1     -18.7236      2.00000
      2     -18.7170      2.00000
      3      -9.5838      2.00000
      4      -9.5817      2.00000
      5      -7.2497      2.00000
      6      -7.2487      2.00000
      7      -6.5153      2.00000
      8      -6.3931      2.00000
      9       4.6852      0.00000
     10       4.8245      0.00000
     11       4.8718      0.00000
     12       5.3423      0.00000

 k-point    26 :       0.3810    0.0952    0.0000
  band No.  band energies     occupation 
      1     -18.0462      2.00000
      2     -18.0400      2.00000
      3     -10.7998      2.00000
      4     -10.7972      2.00000
      5      -7.6679      2.00000
      6      -7.6668      2.00000
      7      -5.7516      2.00000
      8      -5.6368      2.00000
      9       3.5460      0.00000
     10       3.6227      0.00000
     11       5.6201      0.00000
     12       6.2638      0.00000

 k-point    27 :       0.4286    0.0952    0.0000
  band No.  band energies     occupation 
      1     -17.2772      2.00000
      2     -17.2714      2.00000
      3     -11.9993      2.00000
      4     -11.9961      2.00000
      5      -7.9887      2.00000
      6      -7.9876      2.00000
      7      -4.9265      2.00000
      8      -4.8213      2.00000
      9       2.3030      0.00000
     10       2.3935      0.00000
     11       6.6691      0.00000
     12       7.2555      0.00000

 k-point    28 :       0.4762    0.0952    0.0000
  band No.  band energies     occupation 
      1     -16.4320      2.00000
      2     -16.4267      2.00000
      3     -13.1428      2.00000
      4     -13.1392      2.00000
      5      -8.2058      2.00000
      6      -8.2047      2.00000
      7      -4.1171      2.00000
      8      -4.0242      2.00000
      9       1.1980      0.00000
     10       1.3043      0.00000
     11       7.2040      0.00000
     12       7.2316      0.00000

 k-point    29 :      -0.4762    0.0952    0.0000
  band No.  band energies     occupation 
      1     -15.5935      2.00000
      2     -15.5886      2.00000
      3     -14.1337      2.00000
      4     -14.1296      2.00000
      5      -8.3153      2.00000
      6      -8.3142      2.00000
      7      -3.5285      2.00000
      8      -3.4483      2.00000
      9       0.4567      0.00000
     10       0.5776      0.00000
     11       7.1624      0.00000
     12       7.1798      0.00000

 k-point    30 :       0.2857    0.1429    0.0000
  band No.  band energies     occupation 
      1     -19.3559      2.00000
      2     -19.3489      2.00000
      3      -8.1111      2.00000
      4      -8.1096      2.00000
      5      -7.2468      2.00000
      6      -7.1183      2.00000
      7      -6.9059      2.00000
      8      -6.9048      2.00000
      9       3.8333      0.00000
     10       4.4453      0.00000
     11       5.0215      0.00000
     12       5.8932      0.00000

 k-point    31 :       0.3333    0.1429    0.0000
  band No.  band energies     occupation 
      1     -18.8288      2.00000
      2     -18.8221      2.00000
      3      -9.0777      2.00000
      4      -9.0758      2.00000
      5      -7.5827      2.00000
      6      -7.5814      2.00000
      7      -6.6333      2.00000
      8      -6.5100      2.00000
      9       4.5510      0.00000
     10       5.1318      0.00000
     11       5.1378      0.00000
     12       5.2141      0.00000

 k-point    32 :       0.3810    0.1429    0.0000
  band No.  band energies     occupation 
      1     -18.2023      2.00000
      2     -18.1960      2.00000
      3     -10.1695      2.00000
      4     -10.1672      2.00000
      5      -8.1256      2.00000
      6      -8.1242      2.00000
      7      -5.9174      2.00000
      8      -5.8005      2.00000
      9       3.9524      0.00000
     10       4.0097      0.00000
     11       5.4089      0.00000
     12       6.0405      0.00000

 k-point    33 :       0.4286    0.1429    0.0000
  band No.  band energies     occupation 
      1     -17.4814      2.00000
      2     -17.4755      2.00000
      3     -11.3151      2.00000
      4     -11.3124      2.00000
      5      -8.5368      2.00000
      6      -8.5353      2.00000
      7      -5.1200      2.00000
      8      -5.0114      2.00000
      9       2.7556      0.00000
     10       2.8261      0.00000
     11       6.4009      0.00000
     12       7.0426      0.00000

 k-point    34 :       0.4762    0.1429    0.0000
  band No.  band energies     occupation 
      1     -16.6759      2.00000
      2     -16.6704      2.00000
      3     -12.4527      2.00000
      4     -12.4494      2.00000
      5      -8.8265      2.00000
      6      -8.8250      2.00000
      7      -4.2870      2.00000
      8      -4.1889      2.00000
      9       1.6146      0.00000
     10       1.6998      0.00000
     11       7.5150      0.00000
     12       8.1418      0.00000

 k-point    35 :      -0.4762    0.1429    0.0000
  band No.  band energies     occupation 
      1     -15.8175      2.00000
      2     -15.8125      2.00000
      3     -13.5204      2.00000
      4     -13.5166      2.00000
      5      -8.9995      2.00000
      6      -8.9979      2.00000
      7      -3.5390      2.00000
      8      -3.4538      2.00000
      9       0.6723      0.00000
     10       0.7731      0.00000
     11       8.1950      0.00000
     12       8.2309      0.00000

 k-point    36 :      -0.4286    0.1429    0.0000
  band No.  band energies     occupation 
      1     -15.2098      2.00000
      2     -15.2051      2.00000
      3     -14.1993      2.00000
      4     -14.1953      2.00000
      5      -9.0571      2.00000
      6      -9.0555      2.00000
      7      -3.1920      2.00000
      8      -3.1150      2.00000
      9       0.2588      0.00000
     10       0.3688      0.00000
     11       8.1786      0.00000
     12       8.2052      0.00000

 k-point    37 :       0.3810    0.1905    0.0000
  band No.  band energies     occupation 
      1     -18.2545      2.00000
      2     -18.2481      2.00000
      3      -9.8400      2.00000
      4      -9.8379      2.00000
      5      -8.4050      2.00000
      6      -8.4033      2.00000
      7      -5.9731      2.00000
      8      -5.8555      2.00000
      9       4.1062      0.00000
     10       4.1540      0.00000
     11       5.3377      0.00000
     12       5.9634      0.00000

 k-point    38 :       0.4286    0.1905    0.0000
  band No.  band energies     occupation 
      1     -17.5841      2.00000
      2     -17.5782      2.00000
      3     -10.7499      2.00000
      4     -10.7475      2.00000
      5      -9.0531      2.00000
      6      -9.0512      2.00000
      7      -5.2189      2.00000
      8      -5.1087      2.00000
      9       3.0254      0.00000
     10       3.0806      0.00000
     11       6.2602      0.00000
     12       6.8911      0.00000

 k-point    39 :       0.4762    0.1905    0.0000
  band No.  band energies     occupation 
      1     -16.8251      2.00000
      2     -16.8195      2.00000
      3     -11.7759      2.00000
      4     -11.7730      2.00000
      5      -9.4929      2.00000
      6      -9.4910      2.00000
      7      -4.3985      2.00000
      8      -4.2972      2.00000
      9       1.9380      0.00000
     10       2.0038      0.00000
     11       7.3111      0.00000
     12       7.9423      0.00000

 k-point    40 :      -0.4762    0.1905    0.0000
  band No.  band energies     occupation 
      1     -15.9941      2.00000
      2     -15.9890      2.00000
      3     -12.8244      2.00000
      4     -12.8210      2.00000
      5      -9.7642      2.00000
      6      -9.7622      2.00000
      7      -3.5771      2.00000
      8      -3.4871      2.00000
      9       0.9265      0.00000
     10       1.0052      0.00000
     11       8.4698      0.00000
     12       9.0802      0.00000

 k-point    41 :      -0.4286    0.1905    0.0000
  band No.  band energies     occupation 
      1     -15.1740      2.00000
      2     -15.1693      2.00000
      3     -13.7634      2.00000
      4     -13.7596      2.00000
      5      -9.8947      2.00000
      6      -9.8927      2.00000
      7      -2.9509      2.00000
      8      -2.8725      2.00000
      9       0.2009      0.00000
     10       0.2925      0.00000
     11       9.3958      0.00000
     12       9.4613      0.00000

 k-point    42 :       0.4762    0.2381    0.0000
  band No.  band energies     occupation 
      1     -16.8752      2.00000
      2     -16.8696      2.00000
      3     -11.4050      2.00000
      4     -11.4023      2.00000
      5      -9.8657      2.00000
      6      -9.8635      2.00000
      7      -4.4372      2.00000
      8      -4.3348      2.00000
      9       2.0619      0.00000
     10       2.1194      0.00000
     11       7.2402      0.00000
     12       7.8634      0.00000

 k-point    43 :      -0.4762    0.2381    0.0000
  band No.  band energies     occupation 
      1     -16.0869      2.00000
      2     -16.0818      2.00000
      3     -12.2194      2.00000
      4     -12.2163      2.00000
      5     -10.4135      2.00000
      6     -10.4112      2.00000
      7      -3.6060      2.00000
      8      -3.5132      2.00000
      9       1.0972      0.00000
     10       1.1608      0.00000
     11       8.3266      0.00000
     12       8.9133      0.00000

 k-point    44 :      -0.4286    0.2381    0.0000
  band No.  band energies     occupation 
      1     -15.2518      2.00000
      2     -15.2471      2.00000
      3     -13.1254      2.00000
      4     -13.1219      2.00000
      5     -10.6987      2.00000
      6     -10.6963      2.00000
      7      -2.8183      2.00000
      8      -2.7363      2.00000
      9       0.2266      0.00000
     10       0.2995      0.00000
     11       9.2832      0.00000
     12       9.6884      0.00000

 k-point    45 :      -0.3810    0.2381    0.0000
  band No.  band energies     occupation 
      1     -14.6584      2.00000
      2     -14.6540      2.00000
      3     -13.7522      2.00000
      4     -13.7483      2.00000
      5     -10.7860      2.00000
      6     -10.7835      2.00000
      7      -2.4110      2.00000
      8      -2.3365      2.00000
      9      -0.2090      0.00000
     10      -0.1289      0.00000
     11       9.4341      0.00000
     12      10.1593      0.00000

 k-point    46 :      -0.4286    0.2857    0.0000
  band No.  band energies     occupation 
      1     -15.2864      2.00000
      2     -15.2817      2.00000
      3     -12.7460      2.00000
      4     -12.7427      2.00000
      5     -11.1288      2.00000
      6     -11.1261      2.00000
      7      -2.7780      2.00000
      8      -2.6941      2.00000
      9       0.2494      0.00000
     10       0.3144      0.00000
     11       9.1402      0.00000
     12       9.6024      0.00000

 k-point    47 :      -0.3810    0.2857    0.0000
  band No.  band energies     occupation 
      1     -14.4947      2.00000
      2     -14.4904      2.00000
      3     -13.4101      2.00000
      4     -13.4064      2.00000
      5     -11.4837      2.00000
      6     -11.4808      2.00000
      7      -2.0357      2.00000
      8      -1.9607      2.00000
      9      -0.4989      0.00000
     10      -0.4291      0.00000
     11       9.1579      0.00000
     12       9.8935      0.00000

 k-point    48 :      -0.3333    0.3333    0.0000
  band No.  band energies     occupation 
      1     -13.8349      2.00000
      2     -13.8349      2.00000
      3     -13.8311      2.00000
      4     -13.8310      2.00000
      5     -11.8254      2.00000
      6     -11.8224      2.00000
      7      -1.2558      2.00000
      8      -1.2558      2.00000
      9      -1.1852      0.00000
     10      -1.1852      0.00000
     11       9.0528      0.00000
     12       9.7960      0.00000


--------------------------------------------------------------------------------------------------------


 soft charge-density along one line, spin component           1
         0         1         2         3         4         5         6         7         8         9
 total charge-density along one line
 
 pseudopotential strength for first ion, spin component:           1
 10.124  13.461  -0.000  -0.000   0.000   0.000   0.000  -0.000
 13.461  17.898  -0.000  -0.000   0.000   0.000   0.000  -0.000
 -0.000  -0.000  -4.266  -0.000  -0.000   8.344   0.000   0.000
 -0.000  -0.000  -0.000  -4.258  -0.000   0.000   8.334   0.000
  0.000   0.000  -0.000  -0.000  -4.266   0.000   0.000   8.344
  0.000   0.000   8.344   0.000   0.000 -18.452  -0.000  -0.000
  0.000   0.000   0.000   8.334   0.000  -0.000 -18.443  -0.000
 -0.000  -0.000   0.000   0.000   8.344  -0.000  -0.000 -18.452
 total augmentation occupancy for first ion, spin component:           1
  8.116  -3.602  -0.000  -0.000   0.000  -0.000  -0.000   0.000
 -3.602   1.656   0.000   0.000  -0.000   0.000   0.000   0.000
  0.000   0.000   1.837  -0.000   0.000   0.173  -0.000   0.000
 -0.000   0.000  -0.000   1.199  -0.000   0.000   0.073   0.000
 -0.000  -0.000   0.000  -0.000   1.837   0.000   0.000   0.173
  0.000  -0.000   0.173  -0.000   0.000   0.018   0.000   0.000
 -0.000   0.000  -0.000   0.073  -0.000   0.000   0.005  -0.000
  0.000   0.000   0.000   0.000   0.173   0.000   0.000   0.018


------------------------ aborting loop because EDIFF is reached ----------------------------------------


    CHARGE:  cpu time    0.1838: real time    0.1843
    FORLOC:  cpu time    0.0050: real time    0.0050
    FORNL :  cpu time    0.3507: real time    0.3516
    STRESS:  cpu time    1.3349: real time    1.3381
    FORCOR:  cpu time    0.0714: real time    0.0716
    FORHAR:  cpu time    0.0188: real time    0.0188
    MIXING:  cpu time    0.0044: real time    0.0044
    OFIELD:  cpu time    0.0000: real time    0.0000

  FORCE on cell =-STRESS in cart. coord.  units (eV):
  Direction    XX          YY          ZZ          XY          YZ          ZX
  --------------------------------------------------------------------------------------
  Alpha Z    12.54445    12.54445    12.54445
  Ewald    2914.58318  2914.58194 -3453.74151     0.00000     0.00000     0.00000
  Hartree  2877.27403  2877.27402 -2854.74341    -0.00000    -0.00000    -0.00000
  E(xc)     -59.51949   -59.51949   -61.75167    -0.00000     0.00000     0.00000
  Local   -5969.16265 -5969.16204  6096.77431    -0.00000    -0.00000     0.00000
  n-local   -14.82530   -13.75056   -13.00611     0.71033    -0.00000     0.00000
  augment    -1.57104    -1.57105    -1.44410    -0.00000     0.00000     0.00000
  Kinetic   245.07314   236.87128   275.31633    -6.59855     0.00000    -0.00000
  Fock        0.00000     0.00000     0.00000     0.00000     0.00000     0.00000
  -------------------------------------------------------------------------------------
  Total       0.83244     0.83244    -0.05170     0.00000    -0.00000    -0.00000
  in kB      12.72932    12.72931    -0.79063     0.00000    -0.00000    -0.00000
  external pressure =        8.22 kB  Pullay stress =        0.00 kB


 VOLUME and BASIS-vectors are now :
 -----------------------------------------------------------------------------
  energy-cutoff  :      800.00
  volume of cell :      104.78
      direct lattice vectors                 reciprocal lattice vectors
     2.130000000 -1.229756000  0.000000000     0.234741784 -0.406584721  0.000000000
     2.130000000  1.229756000  0.000000000     0.234741784  0.406584721  0.000000000
     0.000000000  0.000000000 20.000000000     0.000000000  0.000000000  0.050000000

  length of vectors
     2.459512110  2.459512110 20.000000000     0.469483589  0.469483589  0.050000000


 FORCES acting on ions
    electron-ion (+dipol)            ewald-force                    non-local-force                 convergence-correction
 -----------------------------------------------------------------------------------------------
   -.879E-05 0.247E-12 0.298E+03   -.241E-03 0.665E-14 -.298E+03   -.510E-16 -.401E-16 -.605E-03   -.350E-10 -.172E-15 -.582E-05
   0.262E-03 0.515E-12 0.298E+03   0.241E-03 -.433E-14 -.298E+03   -.292E-16 -.258E-16 -.605E-03   0.616E-10 0.123E-15 -.582E-05
   -.879E-05 0.132E-11 -.298E+03   -.241E-03 0.661E-14 0.298E+03   0.259E-16 0.311E-16 0.605E-03   -.343E-10 -.458E-15 0.582E-05
   0.262E-03 -.105E-11 -.298E+03   0.241E-03 -.437E-14 0.298E+03   -.614E-17 -.392E-16 0.605E-03   0.612E-10 0.346E-15 0.582E-05
 -----------------------------------------------------------------------------------------------
   0.506E-03 0.103E-11 -.130E-03   0.858E-14 0.456E-14 0.000E+00   -.605E-16 -.740E-16 0.000E+00   0.535E-10 -.160E-15 -.495E-09
 
 
 POSITION                                       TOTAL-FORCE (eV/Angst)
 -----------------------------------------------------------------------------------
      0.00000      0.00000      0.00000        -0.000000      0.000000      0.000783
      1.42000      0.00000      0.00000         0.000000      0.000000      0.000783
      0.00000      0.00000      4.60000        -0.000000      0.000000     -0.000783
      1.42000      0.00000      4.60000         0.000000     -0.000000     -0.000783
 -----------------------------------------------------------------------------------
    total drift:                                0.000506      0.000000     -0.000130


--------------------------------------------------------------------------------------------------------



  FREE ENERGIE OF THE ION-ELECTRON SYSTEM (eV)
  ---------------------------------------------------
  free  energy   TOTEN  =       -36.93085643 eV

  energy  without entropy=      -36.93085643  energy(sigma->0) =      -36.93085643
 


--------------------------------------------------------------------------------------------------------


    POTLOK:  cpu time    0.1031: real time    0.1034


--------------------------------------------------------------------------------------------------------


     LOOP+:  cpu time   42.9206: real time   43.2470
    4ORBIT:  cpu time    0.0000: real time    0.0000

 total amount of memory used by VASP MPI-rank0   107376. kBytes
=======================================================================

   base      :      30000. kBytes
   nonl-proj :      16997. kBytes
   fftplans  :      32720. kBytes
   grid      :      15086. kBytes
   one-center:         12. kBytes
   wavefun   :      12561. kBytes
 
  
  
 General timing and accounting informations for this job:
 ========================================================
  
                  Total CPU time used (sec):       44.905
                            User time (sec):       44.111
                          System time (sec):        0.793
                         Elapsed time (sec):       45.625
  
                   Maximum memory used (kb):      170888.
                   Average memory used (kb):           0.
  
                          Minor page faults:       188599
                          Major page faults:            0
                 Voluntary context switches:         3282
