   2   2   0   0
  0.5238761E+02  0.2459512E-09  0.2459512E-09  0.2000000E-08  0.5000000E-15
  1.000000000000000E-004
  CAR 
 C-2                                     
     14.30179212    -24.03982060 6001     -2.72176290      1.00000000
    -24.040  0.0000E+00  0.0000E+00
    -24.033  0.0000E+00  0.0000E+00
    -24.027  0.0000E+00  0.0000E+00
    -24.021  0.0000E+00  0.0000E+00
    -24.014  0.0000E+00  0.0000E+00
    -24.008  0.0000E+00  0.0000E+00
    -24.001  0.0000E+00  0.0000E+00
    -23.995  0.0000E+00  0.0000E+00
    -23.989  0.0000E+00  0.0000E+00
    -23.982  0.0000E+00  0.0000E+00
    -23.976  0.0000E+00  0.0000E+00
    -23.970  0.0000E+00  0.0000E+00
    -23.963  0.0000E+00  0.0000E+00
    -23.957  0.0000E+00  0.0000E+00
    -23.950  0.0000E+00  0.0000E+00
    -23.944  0.0000E+00  0.0000E+00
    -23.938  0.0000E+00  0.0000E+00
    -23.931  0.0000E+00  0.0000E+00
    -23.925  0.0000E+00  0.0000E+00
    -23.918  0.0000E+00  0.0000E+00
    -23.912  0.0000E+00  0.0000E+00
    -23.906  0.0000E+00  0.0000E+00
    -23.899  0.0000E+00  0.0000E+00
    -23.893  0.0000E+00  0.0000E+00
    -23.886  0.0000E+00  0.0000E+00
    -23.880  0.0000E+00  0.0000E+00
    -23.874  0.0000E+00  0.0000E+00
    -23.867  0.0000E+00  0.0000E+00
    -23.861  0.0000E+00  0.0000E+00
    -23.855  0.0000E+00  0.0000E+00
    -23.848  0.0000E+00  0.0000E+00
    -23.842  0.0000E+00  0.0000E+00
    -23.835  0.0000E+00  0.0000E+00
    -23.829  0.0000E+00  0.0000E+00
    -23.823  0.0000E+00  0.0000E+00
    -23.816  0.0000E+00  0.0000E+00
    -23.810  0.0000E+00  0.0000E+00
    -23.803  0.0000E+00  0.0000E+00
    -23.797  0.0000E+00  0.0000E+00
    -23.791  0.0000E+00  0.0000E+00
    -23.784  0.0000E+00  0.0000E+00
    -23.778  0.0000E+00  0.0000E+00
    -23.771  0.0000E+00  0.0000E+00
    -23.765  0.0000E+00  0.0000E+00
    -23.759  0.0000E+00  0.0000E+00
    -23.752  0.0000E+00  0.0000E+00
    -23.746  0.0000E+00  0.0000E+00
    -23.739  0.0000E+00  0.0000E+00
    -23.733  0.0000E+00  0.0000E+00
    -23.727  0.0000E+00  0.0000E+00
    -23.720  0.0000E+00  0.0000E+00
    -23.714  0.0000E+00  0.0000E+00
    -23.708  0.0000E+00  0.0000E+00
    -23.701  0.0000E+00  0.0000E+00
    -23.695  0.0000E+00  0.0000E+00
    -23.688  0.0000E+00  0.0000E+00
    -23.682  0.0000E+00  0.0000E+00
    -23.676  0.0000E+00  0.0000E+00
    -23.669  0.0000E+00  0.0000E+00
    -23.663  0.0000E+00  0.0000E+00
    -23.656  0.0000E+00  0.0000E+00
    -23.650  0.0000E+00  0.0000E+00
    -23.644  0.0000E+00  0.0000E+00
    -23.637  0.0000E+00  0.0000E+00
    -23.631  0.0000E+00  0.0000E+00
    -23.624  0.0000E+00  0.0000E+00
    -23.618  0.0000E+00  0.0000E+00
    -23.612  0.0000E+00  0.0000E+00
    -23.605  0.0000E+00  0.0000E+00
    -23.599  0.0000E+00  0.0000E+00
    -23.593  0.0000E+00  0.0000E+00
    -23.586  0.0000E+00  0.0000E+00
    -23.580  0.0000E+00  0.0000E+00
    -23.573  0.0000E+00  0.0000E+00
    -23.567  0.0000E+00  0.0000E+00
    -23.561  0.0000E+00  0.0000E+00
    -23.554  0.0000E+00  0.0000E+00
    -23.548  0.0000E+00  0.0000E+00
    -23.541  0.0000E+00  0.0000E+00
    -23.535  0.0000E+00  0.0000E+00
    -23.529  0.0000E+00  0.0000E+00
    -23.522  0.0000E+00  0.0000E+00
    -23.516  0.0000E+00  0.0000E+00
    -23.509  0.0000E+00  0.0000E+00
    -23.503  0.0000E+00  0.0000E+00
    -23.497  0.0000E+00  0.0000E+00
    -23.490  0.0000E+00  0.0000E+00
    -23.484  0.0000E+00  0.0000E+00
    -23.477  0.0000E+00  0.0000E+00
    -23.471  0.0000E+00  0.0000E+00
    -23.465  0.0000E+00  0.0000E+00
    -23.458  0.0000E+00  0.0000E+00
    -23.452  0.0000E+00  0.0000E+00
    -23.446  0.0000E+00  0.0000E+00
    -23.439  0.0000E+00  0.0000E+00
    -23.433  0.0000E+00  0.0000E+00
    -23.426  0.0000E+00  0.0000E+00
    -23.420  0.0000E+00  0.0000E+00
    -23.414  0.0000E+00  0.0000E+00
    -23.407  0.0000E+00  0.0000E+00
    -23.401  0.0000E+00  0.0000E+00
    -23.394  0.0000E+00  0.0000E+00
    -23.388  0.0000E+00  0.0000E+00
    -23.382  0.0000E+00  0.0000E+00
    -23.375  0.0000E+00  0.0000E+00
    -23.369  0.0000E+00  0.0000E+00
    -23.362  0.0000E+00  0.0000E+00
    -23.356  0.0000E+00  0.0000E+00
    -23.350  0.0000E+00  0.0000E+00
    -23.343  0.0000E+00  0.0000E+00
    -23.337  0.0000E+00  0.0000E+00
    -23.331  0.0000E+00  0.0000E+00
    -23.324  0.0000E+00  0.0000E+00
    -23.318  0.0000E+00  0.0000E+00
    -23.311  0.0000E+00  0.0000E+00
    -23.305  0.0000E+00  0.0000E+00
    -23.299  0.0000E+00  0.0000E+00
    -23.292  0.0000E+00  0.0000E+00
    -23.286  0.0000E+00  0.0000E+00
    -23.279  0.0000E+00  0.0000E+00
    -23.273  0.0000E+00  0.0000E+00
    -23.267  0.0000E+00  0.0000E+00
    -23.260  0.0000E+00  0.0000E+00
    -23.254  0.0000E+00  0.0000E+00
    -23.247  0.0000E+00  0.0000E+00
    -23.241  0.0000E+00  0.0000E+00
    -23.235  0.0000E+00  0.0000E+00
    -23.228  0.0000E+00  0.0000E+00
    -23.222  0.0000E+00  0.0000E+00
    -23.215  0.0000E+00  0.0000E+00
    -23.209  0.0000E+00  0.0000E+00
    -23.203  0.0000E+00  0.0000E+00
    -23.196  0.0000E+00  0.0000E+00
    -23.190  0.0000E+00  0.0000E+00
    -23.184  0.0000E+00  0.0000E+00
    -23.177  0.0000E+00  0.0000E+00
    -23.171  0.0000E+00  0.0000E+00
    -23.164  0.0000E+00  0.0000E+00
    -23.158  0.0000E+00  0.0000E+00
    -23.152  0.0000E+00  0.0000E+00
    -23.145  0.0000E+00  0.0000E+00
    -23.139  0.0000E+00  0.0000E+00
    -23.132  0.0000E+00  0.0000E+00
    -23.126  0.0000E+00  0.0000E+00
    -23.120  0.0000E+00  0.0000E+00
    -23.113  0.0000E+00  0.0000E+00
    -23.107  0.0000E+00  0.0000E+00
    -23.100  0.0000E+00  0.0000E+00
    -23.094  0.0000E+00  0.0000E+00
    -23.088  0.0000E+00  0.0000E+00
    -23.081  0.0000E+00  0.0000E+00
    -23.075  0.0000E+00  0.0000E+00
    -23.068  0.0000E+00  0.0000E+00
    -23.062  0.0000E+00  0.0000E+00
    -23.056  0.0000E+00  0.0000E+00
    -23.049  0.0000E+00  0.0000E+00
    -23.043  0.0000E+00  0.0000E+00
    -23.037  0.0000E+00  0.0000E+00
    -23.030  0.0000E+00  0.0000E+00
    -23.024  0.0000E+00  0.0000E+00
    -23.017  0.0000E+00  0.0000E+00
    -23.011  0.0000E+00  0.0000E+00
    -23.005  0.0000E+00  0.0000E+00
    -22.998  0.0000E+00  0.0000E+00
    -22.992  0.0000E+00  0.0000E+00
    -22.985  0.0000E+00  0.0000E+00
    -22.979  0.0000E+00  0.0000E+00
    -22.973  0.0000E+00  0.0000E+00
    -22.966  0.0000E+00  0.0000E+00
    -22.960  0.0000E+00  0.0000E+00
    -22.953  0.0000E+00  0.0000E+00
    -22.947  0.0000E+00  0.0000E+00
    -22.941  0.0000E+00  0.0000E+00
    -22.934  0.0000E+00  0.0000E+00
    -22.928  0.0000E+00  0.0000E+00
    -22.922  0.0000E+00  0.0000E+00
    -22.915  0.0000E+00  0.0000E+00
    -22.909  0.0000E+00  0.0000E+00
    -22.902  0.0000E+00  0.0000E+00
    -22.896  0.0000E+00  0.0000E+00
    -22.890  0.0000E+00  0.0000E+00
    -22.883  0.9849E-17  0.6294E-19
    -22.877  0.9849E-17  0.1259E-18
    -22.870  0.8864E-16  0.6923E-18
    -22.864  0.1083E-15  0.1385E-17
    -22.858  0.2167E-15  0.2769E-17
    -22.851  0.5023E-15  0.5979E-17
    -22.845  0.1083E-14  0.1290E-16
    -22.838  0.2029E-14  0.2587E-16
    -22.832  0.4255E-14  0.5306E-16
    -22.826  0.8470E-14  0.1072E-15
    -22.819  0.1669E-13  0.2139E-15
    -22.813  0.3311E-13  0.4255E-15
    -22.806  0.6471E-13  0.8390E-15
    -22.800  0.1255E-12  0.1641E-14
    -22.794  0.2417E-12  0.3186E-14
    -22.787  0.4613E-12  0.6133E-14
    -22.781  0.8740E-12  0.1172E-13
    -22.775  0.1642E-11  0.2221E-13
    -22.768  0.3060E-11  0.4177E-13
    -22.762  0.5659E-11  0.7793E-13
    -22.755  0.1038E-10  0.1443E-12
    -22.749  0.1889E-10  0.2650E-12
    -22.743  0.3411E-10  0.4830E-12
    -22.736  0.6109E-10  0.8734E-12
    -22.730  0.1085E-09  0.1567E-11
    -22.723  0.1913E-09  0.2790E-11
    -22.717  0.3346E-09  0.4928E-11
    -22.711  0.5804E-09  0.8636E-11
    -22.704  0.9989E-09  0.1502E-10
    -22.698  0.1706E-08  0.2592E-10
    -22.691  0.2889E-08  0.4438E-10
    -22.685  0.4855E-08  0.7540E-10
    -22.679  0.8094E-08  0.1271E-09
    -22.672  0.1339E-07  0.2127E-09
    -22.666  0.2197E-07  0.3531E-09
    -22.660  0.3577E-07  0.5816E-09
    -22.653  0.5777E-07  0.9508E-09
    -22.647  0.9258E-07  0.1542E-08
    -22.640  0.1472E-06  0.2483E-08
    -22.634  0.2322E-06  0.3967E-08
    -22.628  0.3634E-06  0.6289E-08
    -22.621  0.5643E-06  0.9895E-08
    -22.615  0.8693E-06  0.1545E-07
    -22.608  0.1329E-05  0.2394E-07
    -22.602  0.2015E-05  0.3682E-07
    -22.596  0.3033E-05  0.5620E-07
    -22.589  0.4528E-05  0.8514E-07
    -22.583  0.6709E-05  0.1280E-06
    -22.576  0.9861E-05  0.1910E-06
    -22.570  0.1438E-04  0.2829E-06
    -22.564  0.2082E-04  0.4160E-06
    -22.557  0.2990E-04  0.6070E-06
    -22.551  0.4261E-04  0.8793E-06
    -22.544  0.6025E-04  0.1264E-05
    -22.538  0.8455E-04  0.1805E-05
    -22.532  0.1177E-03  0.2557E-05
    -22.525  0.1627E-03  0.3597E-05
    -22.519  0.2231E-03  0.5022E-05
    -22.513  0.3036E-03  0.6963E-05
    -22.506  0.4101E-03  0.9583E-05
    -22.500  0.5497E-03  0.1310E-04
    -22.493  0.7312E-03  0.1777E-04
    -22.487  0.9654E-03  0.2394E-04
    -22.481  0.1265E-02  0.3202E-04
    -22.474  0.1646E-02  0.4254E-04
    -22.468  0.2124E-02  0.5611E-04
    -22.461  0.2722E-02  0.7351E-04
    -22.455  0.3463E-02  0.9564E-04
    -22.449  0.4373E-02  0.1236E-03
    -22.442  0.5481E-02  0.1586E-03
    -22.436  0.6821E-02  0.2022E-03
    -22.429  0.8427E-02  0.2560E-03
    -22.423  0.1034E-01  0.3221E-03
    -22.417  0.1259E-01  0.4025E-03
    -22.410  0.1522E-01  0.4998E-03
    -22.404  0.1828E-01  0.6166E-03
    -22.398  0.2180E-01  0.7559E-03
    -22.391  0.2581E-01  0.9209E-03
    -22.385  0.3036E-01  0.1115E-02
    -22.378  0.3547E-01  0.1342E-02
    -22.372  0.4116E-01  0.1605E-02
    -22.366  0.4744E-01  0.1908E-02
    -22.359  0.5433E-01  0.2255E-02
    -22.353  0.6182E-01  0.2650E-02
    -22.346  0.6989E-01  0.3097E-02
    -22.340  0.7852E-01  0.3598E-02
    -22.334  0.8768E-01  0.4159E-02
    -22.327  0.9731E-01  0.4780E-02
    -22.321  0.1074E+00  0.5467E-02
    -22.314  0.1178E+00  0.6219E-02
    -22.308  0.1285E+00  0.7040E-02
    -22.302  0.1393E+00  0.7931E-02
    -22.295  0.1503E+00  0.8891E-02
    -22.289  0.1614E+00  0.9922E-02
    -22.282  0.1723E+00  0.1102E-01
    -22.276  0.1831E+00  0.1219E-01
    -22.270  0.1936E+00  0.1343E-01
    -22.263  0.2039E+00  0.1473E-01
    -22.257  0.2137E+00  0.1610E-01
    -22.251  0.2231E+00  0.1752E-01
    -22.244  0.2320E+00  0.1901E-01
    -22.238  0.2403E+00  0.2054E-01
    -22.231  0.2481E+00  0.2213E-01
    -22.225  0.2553E+00  0.2376E-01
    -22.219  0.2618E+00  0.2543E-01
    -22.212  0.2678E+00  0.2714E-01
    -22.206  0.2732E+00  0.2889E-01
    -22.199  0.2780E+00  0.3067E-01
    -22.193  0.2823E+00  0.3247E-01
    -22.187  0.2860E+00  0.3430E-01
    -22.180  0.2893E+00  0.3615E-01
    -22.174  0.2922E+00  0.3801E-01
    -22.167  0.2946E+00  0.3990E-01
    -22.161  0.2967E+00  0.4179E-01
    -22.155  0.2984E+00  0.4370E-01
    -22.148  0.2999E+00  0.4562E-01
    -22.142  0.3011E+00  0.4754E-01
    -22.136  0.3021E+00  0.4947E-01
    -22.129  0.3030E+00  0.5141E-01
    -22.123  0.3037E+00  0.5335E-01
    -22.116  0.3042E+00  0.5529E-01
    -22.110  0.3047E+00  0.5724E-01
    -22.104  0.3051E+00  0.5919E-01
    -22.097  0.3054E+00  0.6114E-01
    -22.091  0.3056E+00  0.6309E-01
    -22.084  0.3058E+00  0.6505E-01
    -22.078  0.3059E+00  0.6700E-01
    -22.072  0.3061E+00  0.6896E-01
    -22.065  0.3061E+00  0.7091E-01
    -22.059  0.3062E+00  0.7287E-01
    -22.052  0.3062E+00  0.7483E-01
    -22.046  0.3062E+00  0.7678E-01
    -22.040  0.3062E+00  0.7874E-01
    -22.033  0.3062E+00  0.8070E-01
    -22.027  0.3062E+00  0.8265E-01
    -22.020  0.3062E+00  0.8461E-01
    -22.014  0.3062E+00  0.8657E-01
    -22.008  0.3062E+00  0.8852E-01
    -22.001  0.3062E+00  0.9048E-01
    -21.995  0.3063E+00  0.9244E-01
    -21.989  0.3064E+00  0.9440E-01
    -21.982  0.3065E+00  0.9636E-01
    -21.976  0.3066E+00  0.9831E-01
    -21.969  0.3068E+00  0.1003E+00
    -21.963  0.3069E+00  0.1022E+00
    -21.957  0.3070E+00  0.1042E+00
    -21.950  0.3071E+00  0.1062E+00
    -21.944  0.3072E+00  0.1081E+00
    -21.937  0.3072E+00  0.1101E+00
    -21.931  0.3072E+00  0.1121E+00
    -21.925  0.3071E+00  0.1140E+00
    -21.918  0.3070E+00  0.1160E+00
    -21.912  0.3068E+00  0.1179E+00
    -21.905  0.3066E+00  0.1199E+00
    -21.899  0.3064E+00  0.1219E+00
    -21.893  0.3062E+00  0.1238E+00
    -21.886  0.3060E+00  0.1258E+00
    -21.880  0.3059E+00  0.1277E+00
    -21.874  0.3058E+00  0.1297E+00
    -21.867  0.3058E+00  0.1316E+00
    -21.861  0.3059E+00  0.1336E+00
    -21.854  0.3061E+00  0.1355E+00
    -21.848  0.3064E+00  0.1375E+00
    -21.842  0.3068E+00  0.1395E+00
    -21.835  0.3072E+00  0.1414E+00
    -21.829  0.3076E+00  0.1434E+00
    -21.822  0.3081E+00  0.1454E+00
    -21.816  0.3085E+00  0.1473E+00
    -21.810  0.3088E+00  0.1493E+00
    -21.803  0.3091E+00  0.1513E+00
    -21.797  0.3092E+00  0.1533E+00
    -21.790  0.3092E+00  0.1552E+00
    -21.784  0.3090E+00  0.1572E+00
    -21.778  0.3087E+00  0.1592E+00
    -21.771  0.3083E+00  0.1611E+00
    -21.765  0.3077E+00  0.1631E+00
    -21.758  0.3070E+00  0.1651E+00
    -21.752  0.3064E+00  0.1670E+00
    -21.746  0.3057E+00  0.1690E+00
    -21.739  0.3051E+00  0.1709E+00
    -21.733  0.3046E+00  0.1729E+00
    -21.727  0.3042E+00  0.1748E+00
    -21.720  0.3041E+00  0.1768E+00
    -21.714  0.3041E+00  0.1787E+00
    -21.707  0.3044E+00  0.1807E+00
    -21.701  0.3049E+00  0.1826E+00
    -21.695  0.3056E+00  0.1846E+00
    -21.688  0.3064E+00  0.1865E+00
    -21.682  0.3074E+00  0.1885E+00
    -21.675  0.3085E+00  0.1904E+00
    -21.669  0.3096E+00  0.1924E+00
    -21.663  0.3106E+00  0.1944E+00
    -21.656  0.3115E+00  0.1964E+00
    -21.650  0.3123E+00  0.1984E+00
    -21.643  0.3128E+00  0.2004E+00
    -21.637  0.3130E+00  0.2024E+00
    -21.631  0.3129E+00  0.2044E+00
    -21.624  0.3125E+00  0.2064E+00
    -21.618  0.3118E+00  0.2084E+00
    -21.612  0.3109E+00  0.2104E+00
    -21.605  0.3097E+00  0.2124E+00
    -21.599  0.3083E+00  0.2143E+00
    -21.592  0.3069E+00  0.2163E+00
    -21.586  0.3054E+00  0.2182E+00
    -21.580  0.3040E+00  0.2202E+00
    -21.573  0.3027E+00  0.2221E+00
    -21.567  0.3017E+00  0.2240E+00
    -21.560  0.3010E+00  0.2260E+00
    -21.554  0.3006E+00  0.2279E+00
    -21.548  0.3006E+00  0.2298E+00
    -21.541  0.3010E+00  0.2317E+00
    -21.535  0.3017E+00  0.2337E+00
    -21.528  0.3029E+00  0.2356E+00
    -21.522  0.3043E+00  0.2375E+00
    -21.516  0.3061E+00  0.2395E+00
    -21.509  0.3080E+00  0.2415E+00
    -21.503  0.3099E+00  0.2434E+00
    -21.496  0.3119E+00  0.2454E+00
    -21.490  0.3138E+00  0.2474E+00
    -21.484  0.3155E+00  0.2495E+00
    -21.477  0.3169E+00  0.2515E+00
    -21.471  0.3179E+00  0.2535E+00
    -21.465  0.3185E+00  0.2555E+00
    -21.458  0.3187E+00  0.2576E+00
    -21.452  0.3183E+00  0.2596E+00
    -21.445  0.3175E+00  0.2616E+00
    -21.439  0.3162E+00  0.2637E+00
    -21.433  0.3145E+00  0.2657E+00
    -21.426  0.3124E+00  0.2677E+00
    -21.420  0.3101E+00  0.2697E+00
    -21.413  0.3077E+00  0.2716E+00
    -21.407  0.3052E+00  0.2736E+00
    -21.401  0.3028E+00  0.2755E+00
    -21.394  0.3006E+00  0.2774E+00
    -21.388  0.2986E+00  0.2793E+00
    -21.381  0.2971E+00  0.2812E+00
    -21.375  0.2960E+00  0.2831E+00
    -21.369  0.2955E+00  0.2850E+00
    -21.362  0.2955E+00  0.2869E+00
    -21.356  0.2961E+00  0.2888E+00
    -21.350  0.2973E+00  0.2907E+00
    -21.343  0.2989E+00  0.2926E+00
    -21.337  0.3011E+00  0.2945E+00
    -21.330  0.3036E+00  0.2965E+00
    -21.324  0.3064E+00  0.2984E+00
    -21.318  0.3094E+00  0.3004E+00
    -21.311  0.3124E+00  0.3024E+00
    -21.305  0.3154E+00  0.3044E+00
    -21.298  0.3182E+00  0.3065E+00
    -21.292  0.3206E+00  0.3085E+00
    -21.286  0.3227E+00  0.3106E+00
    -21.279  0.3243E+00  0.3126E+00
    -21.273  0.3253E+00  0.3147E+00
    -21.266  0.3256E+00  0.3168E+00
    -21.260  0.3254E+00  0.3189E+00
    -21.254  0.3245E+00  0.3209E+00
    -21.247  0.3230E+00  0.3230E+00
    -21.241  0.3210E+00  0.3251E+00
    -21.234  0.3185E+00  0.3271E+00
    -21.228  0.3155E+00  0.3291E+00
    -21.222  0.3123E+00  0.3311E+00
    -21.215  0.3088E+00  0.3331E+00
    -21.209  0.3054E+00  0.3350E+00
    -21.203  0.3019E+00  0.3370E+00
    -21.196  0.2987E+00  0.3389E+00
    -21.190  0.2958E+00  0.3408E+00
    -21.183  0.2933E+00  0.3426E+00
    -21.177  0.2914E+00  0.3445E+00
    -21.171  0.2900E+00  0.3464E+00
    -21.164  0.2894E+00  0.3482E+00
    -21.158  0.2894E+00  0.3501E+00
    -21.151  0.2902E+00  0.3519E+00
    -21.145  0.2918E+00  0.3538E+00
    -21.139  0.2939E+00  0.3556E+00
    -21.132  0.2967E+00  0.3575E+00
    -21.126  0.3001E+00  0.3595E+00
    -21.119  0.3038E+00  0.3614E+00
    -21.113  0.3078E+00  0.3634E+00
    -21.107  0.3120E+00  0.3654E+00
    -21.100  0.3161E+00  0.3674E+00
    -21.094  0.3201E+00  0.3694E+00
    -21.088  0.3238E+00  0.3715E+00
    -21.081  0.3271E+00  0.3736E+00
    -21.075  0.3298E+00  0.3757E+00
    -21.068  0.3318E+00  0.3778E+00
    -21.062  0.3332E+00  0.3799E+00
    -21.056  0.3338E+00  0.3821E+00
    -21.049  0.3336E+00  0.3842E+00
    -21.043  0.3326E+00  0.3863E+00
    -21.036  0.3309E+00  0.3885E+00
    -21.030  0.3285E+00  0.3905E+00
    -21.024  0.3254E+00  0.3926E+00
    -21.017  0.3219E+00  0.3947E+00
    -21.011  0.3180E+00  0.3967E+00
    -21.004  0.3138E+00  0.3987E+00
    -20.998  0.3094E+00  0.4007E+00
    -20.992  0.3051E+00  0.4026E+00
    -20.985  0.3008E+00  0.4046E+00
    -20.979  0.2968E+00  0.4065E+00
    -20.972  0.2932E+00  0.4083E+00
    -20.966  0.2900E+00  0.4102E+00
    -20.960  0.2874E+00  0.4120E+00
    -20.953  0.2855E+00  0.4139E+00
    -20.947  0.2842E+00  0.4157E+00
    -20.941  0.2837E+00  0.4175E+00
    -20.934  0.2839E+00  0.4193E+00
    -20.928  0.2850E+00  0.4211E+00
    -20.921  0.2868E+00  0.4230E+00
    -20.915  0.2893E+00  0.4248E+00
    -20.909  0.2924E+00  0.4267E+00
    -20.902  0.2962E+00  0.4286E+00
    -20.896  0.3004E+00  0.4305E+00
    -20.889  0.3051E+00  0.4324E+00
    -20.883  0.3099E+00  0.4344E+00
    -20.877  0.3150E+00  0.4364E+00
    -20.870  0.3199E+00  0.4385E+00
    -20.864  0.3247E+00  0.4405E+00
    -20.857  0.3292E+00  0.4427E+00
    -20.851  0.3333E+00  0.4448E+00
    -20.845  0.3367E+00  0.4469E+00
    -20.838  0.3394E+00  0.4491E+00
    -20.832  0.3414E+00  0.4513E+00
    -20.826  0.3425E+00  0.4535E+00
    -20.819  0.3427E+00  0.4557E+00
    -20.813  0.3419E+00  0.4578E+00
    -20.806  0.3403E+00  0.4600E+00
    -20.800  0.3377E+00  0.4622E+00
    -20.794  0.3344E+00  0.4643E+00
    -20.787  0.3304E+00  0.4664E+00
    -20.781  0.3259E+00  0.4685E+00
    -20.774  0.3208E+00  0.4706E+00
    -20.768  0.3155E+00  0.4726E+00
    -20.762  0.3100E+00  0.4746E+00
    -20.755  0.3046E+00  0.4765E+00
    -20.749  0.2993E+00  0.4784E+00
    -20.742  0.2943E+00  0.4803E+00
    -20.736  0.2898E+00  0.4821E+00
    -20.730  0.2858E+00  0.4840E+00
    -20.723  0.2825E+00  0.4858E+00
    -20.717  0.2800E+00  0.4876E+00
    -20.710  0.2783E+00  0.4893E+00
    -20.704  0.2775E+00  0.4911E+00
    -20.698  0.2775E+00  0.4929E+00
    -20.691  0.2784E+00  0.4947E+00
    -20.685  0.2801E+00  0.4965E+00
    -20.679  0.2826E+00  0.4983E+00
    -20.672  0.2859E+00  0.5001E+00
    -20.666  0.2897E+00  0.5019E+00
    -20.659  0.2942E+00  0.5038E+00
    -20.653  0.2990E+00  0.5057E+00
    -20.647  0.3042E+00  0.5077E+00
    -20.640  0.3095E+00  0.5097E+00
    -20.634  0.3150E+00  0.5117E+00
    -20.627  0.3204E+00  0.5137E+00
    -20.621  0.3256E+00  0.5158E+00
    -20.615  0.3306E+00  0.5179E+00
    -20.608  0.3351E+00  0.5201E+00
    -20.602  0.3392E+00  0.5222E+00
    -20.595  0.3426E+00  0.5244E+00
    -20.589  0.3454E+00  0.5266E+00
    -20.583  0.3475E+00  0.5288E+00
    -20.576  0.3488E+00  0.5311E+00
    -20.570  0.3492E+00  0.5333E+00
    -20.564  0.3488E+00  0.5355E+00
    -20.557  0.3475E+00  0.5378E+00
    -20.551  0.3455E+00  0.5400E+00
    -20.544  0.3426E+00  0.5421E+00
    -20.538  0.3390E+00  0.5443E+00
    -20.532  0.3347E+00  0.5465E+00
    -20.525  0.3298E+00  0.5486E+00
    -20.519  0.3244E+00  0.5506E+00
    -20.512  0.3187E+00  0.5527E+00
    -20.506  0.3127E+00  0.5547E+00
    -20.500  0.3066E+00  0.5566E+00
    -20.493  0.3006E+00  0.5585E+00
    -20.487  0.2947E+00  0.5604E+00
    -20.480  0.2892E+00  0.5623E+00
    -20.474  0.2841E+00  0.5641E+00
    -20.468  0.2797E+00  0.5659E+00
    -20.461  0.2759E+00  0.5676E+00
    -20.455  0.2730E+00  0.5694E+00
    -20.448  0.2710E+00  0.5711E+00
    -20.442  0.2700E+00  0.5728E+00
    -20.436  0.2700E+00  0.5746E+00
    -20.429  0.2710E+00  0.5763E+00
    -20.423  0.2730E+00  0.5780E+00
    -20.417  0.2761E+00  0.5798E+00
    -20.410  0.2800E+00  0.5816E+00
    -20.404  0.2847E+00  0.5834E+00
    -20.397  0.2902E+00  0.5853E+00
    -20.391  0.2962E+00  0.5872E+00
    -20.385  0.3026E+00  0.5891E+00
    -20.378  0.3093E+00  0.5911E+00
    -20.372  0.3160E+00  0.5931E+00
    -20.365  0.3227E+00  0.5952E+00
    -20.359  0.3291E+00  0.5973E+00
    -20.353  0.3351E+00  0.5994E+00
    -20.346  0.3405E+00  0.6016E+00
    -20.340  0.3453E+00  0.6038E+00
    -20.333  0.3493E+00  0.6060E+00
    -20.327  0.3525E+00  0.6083E+00
    -20.321  0.3548E+00  0.6105E+00
    -20.314  0.3562E+00  0.6128E+00
    -20.308  0.3567E+00  0.6151E+00
    -20.302  0.3562E+00  0.6174E+00
    -20.295  0.3550E+00  0.6196E+00
    -20.289  0.3529E+00  0.6219E+00
    -20.282  0.3501E+00  0.6241E+00
    -20.276  0.3467E+00  0.6263E+00
    -20.270  0.3427E+00  0.6285E+00
    -20.263  0.3382E+00  0.6307E+00
    -20.257  0.3334E+00  0.6328E+00
    -20.250  0.3283E+00  0.6349E+00
    -20.244  0.3229E+00  0.6370E+00
    -20.238  0.3174E+00  0.6390E+00
    -20.231  0.3118E+00  0.6410E+00
    -20.225  0.3063E+00  0.6430E+00
    -20.218  0.3008E+00  0.6449E+00
    -20.212  0.2955E+00  0.6468E+00
    -20.206  0.2904E+00  0.6486E+00
    -20.199  0.2857E+00  0.6505E+00
    -20.193  0.2813E+00  0.6523E+00
    -20.186  0.2774E+00  0.6540E+00
    -20.180  0.2740E+00  0.6558E+00
    -20.174  0.2712E+00  0.6575E+00
    -20.167  0.2692E+00  0.6592E+00
    -20.161  0.2680E+00  0.6609E+00
    -20.155  0.2675E+00  0.6627E+00
    -20.148  0.2680E+00  0.6644E+00
    -20.142  0.2694E+00  0.6661E+00
    -20.135  0.2718E+00  0.6678E+00
    -20.129  0.2751E+00  0.6696E+00
    -20.123  0.2793E+00  0.6714E+00
    -20.116  0.2844E+00  0.6732E+00
    -20.110  0.2903E+00  0.6750E+00
    -20.103  0.2968E+00  0.6769E+00
    -20.097  0.3039E+00  0.6789E+00
    -20.091  0.3113E+00  0.6809E+00
    -20.084  0.3190E+00  0.6829E+00
    -20.078  0.3268E+00  0.6850E+00
    -20.071  0.3344E+00  0.6871E+00
    -20.065  0.3416E+00  0.6893E+00
    -20.059  0.3483E+00  0.6915E+00
    -20.052  0.3544E+00  0.6938E+00
    -20.046  0.3595E+00  0.6961E+00
    -20.040  0.3637E+00  0.6984E+00
    -20.033  0.3668E+00  0.7008E+00
    -20.027  0.3688E+00  0.7031E+00
    -20.020  0.3695E+00  0.7055E+00
    -20.014  0.3691E+00  0.7078E+00
    -20.008  0.3675E+00  0.7102E+00
    -20.001  0.3648E+00  0.7125E+00
    -19.995  0.3610E+00  0.7148E+00
    -19.988  0.3564E+00  0.7171E+00
    -19.982  0.3510E+00  0.7194E+00
    -19.976  0.3451E+00  0.7216E+00
    -19.969  0.3387E+00  0.7237E+00
    -19.963  0.3320E+00  0.7258E+00
    -19.956  0.3251E+00  0.7279E+00
    -19.950  0.3183E+00  0.7300E+00
    -19.944  0.3117E+00  0.7320E+00
    -19.937  0.3053E+00  0.7339E+00
    -19.931  0.2992E+00  0.7358E+00
    -19.924  0.2936E+00  0.7377E+00
    -19.918  0.2885E+00  0.7395E+00
    -19.912  0.2840E+00  0.7413E+00
    -19.905  0.2800E+00  0.7431E+00
    -19.899  0.2766E+00  0.7449E+00
    -19.893  0.2738E+00  0.7467E+00
    -19.886  0.2717E+00  0.7484E+00
    -19.880  0.2701E+00  0.7501E+00
    -19.873  0.2691E+00  0.7518E+00
    -19.867  0.2688E+00  0.7536E+00
    -19.861  0.2690E+00  0.7553E+00
    -19.854  0.2699E+00  0.7570E+00
    -19.848  0.2714E+00  0.7587E+00
    -19.841  0.2735E+00  0.7605E+00
    -19.835  0.2762E+00  0.7622E+00
    -19.829  0.2796E+00  0.7640E+00
    -19.822  0.2835E+00  0.7658E+00
    -19.816  0.2881E+00  0.7677E+00
    -19.809  0.2931E+00  0.7696E+00
    -19.803  0.2987E+00  0.7715E+00
    -19.797  0.3047E+00  0.7734E+00
    -19.790  0.3111E+00  0.7754E+00
    -19.784  0.3177E+00  0.7774E+00
    -19.778  0.3245E+00  0.7795E+00
    -19.771  0.3314E+00  0.7816E+00
    -19.765  0.3382E+00  0.7838E+00
    -19.758  0.3447E+00  0.7860E+00
    -19.752  0.3510E+00  0.7882E+00
    -19.746  0.3568E+00  0.7905E+00
    -19.739  0.3620E+00  0.7928E+00
    -19.733  0.3665E+00  0.7952E+00
    -19.726  0.3702E+00  0.7975E+00
    -19.720  0.3729E+00  0.7999E+00
    -19.714  0.3747E+00  0.8023E+00
    -19.707  0.3755E+00  0.8047E+00
    -19.701  0.3752E+00  0.8071E+00
    -19.694  0.3738E+00  0.8095E+00
    -19.688  0.3713E+00  0.8119E+00
    -19.682  0.3678E+00  0.8142E+00
    -19.675  0.3633E+00  0.8165E+00
    -19.669  0.3579E+00  0.8188E+00
    -19.662  0.3518E+00  0.8211E+00
    -19.656  0.3449E+00  0.8233E+00
    -19.650  0.3376E+00  0.8254E+00
    -19.643  0.3298E+00  0.8275E+00
    -19.637  0.3218E+00  0.8296E+00
    -19.631  0.3138E+00  0.8316E+00
    -19.624  0.3058E+00  0.8336E+00
    -19.618  0.2981E+00  0.8355E+00
    -19.611  0.2907E+00  0.8373E+00
    -19.605  0.2839E+00  0.8391E+00
    -19.599  0.2778E+00  0.8409E+00
    -19.592  0.2723E+00  0.8427E+00
    -19.586  0.2678E+00  0.8444E+00
    -19.579  0.2641E+00  0.8460E+00
    -19.573  0.2613E+00  0.8477E+00
    -19.567  0.2595E+00  0.8494E+00
    -19.560  0.2587E+00  0.8510E+00
    -19.554  0.2589E+00  0.8527E+00
    -19.547  0.2600E+00  0.8543E+00
    -19.541  0.2620E+00  0.8560E+00
    -19.535  0.2648E+00  0.8577E+00
    -19.528  0.2685E+00  0.8594E+00
    -19.522  0.2728E+00  0.8612E+00
    -19.516  0.2778E+00  0.8629E+00
    -19.509  0.2833E+00  0.8648E+00
    -19.503  0.2893E+00  0.8666E+00
    -19.496  0.2957E+00  0.8685E+00
    -19.490  0.3024E+00  0.8704E+00
    -19.484  0.3092E+00  0.8724E+00
    -19.477  0.3162E+00  0.8744E+00
    -19.471  0.3231E+00  0.8765E+00
    -19.464  0.3298E+00  0.8786E+00
    -19.458  0.3364E+00  0.8807E+00
    -19.452  0.3426E+00  0.8829E+00
    -19.445  0.3485E+00  0.8852E+00
    -19.439  0.3538E+00  0.8874E+00
    -19.432  0.3586E+00  0.8897E+00
    -19.426  0.3628E+00  0.8920E+00
    -19.420  0.3663E+00  0.8944E+00
    -19.413  0.3691E+00  0.8967E+00
    -19.407  0.3712E+00  0.8991E+00
    -19.400  0.3726E+00  0.9015E+00
    -19.394  0.3732E+00  0.9039E+00
    -19.388  0.3732E+00  0.9063E+00
    -19.381  0.3725E+00  0.9086E+00
    -19.375  0.3712E+00  0.9110E+00
    -19.369  0.3692E+00  0.9134E+00
    -19.362  0.3668E+00  0.9157E+00
    -19.356  0.3637E+00  0.9180E+00
    -19.349  0.3602E+00  0.9203E+00
    -19.343  0.3563E+00  0.9226E+00
    -19.337  0.3519E+00  0.9249E+00
    -19.330  0.3471E+00  0.9271E+00
    -19.324  0.3419E+00  0.9293E+00
    -19.317  0.3364E+00  0.9314E+00
    -19.311  0.3306E+00  0.9335E+00
    -19.305  0.3245E+00  0.9356E+00
    -19.298  0.3181E+00  0.9376E+00
    -19.292  0.3116E+00  0.9396E+00
    -19.285  0.3049E+00  0.9416E+00
    -19.279  0.2982E+00  0.9435E+00
    -19.273  0.2915E+00  0.9453E+00
    -19.266  0.2850E+00  0.9472E+00
    -19.260  0.2788E+00  0.9489E+00
    -19.254  0.2729E+00  0.9507E+00
    -19.247  0.2676E+00  0.9524E+00
    -19.241  0.2628E+00  0.9541E+00
    -19.234  0.2589E+00  0.9557E+00
    -19.228  0.2558E+00  0.9574E+00
    -19.222  0.2537E+00  0.9590E+00
    -19.215  0.2526E+00  0.9606E+00
    -19.209  0.2527E+00  0.9622E+00
    -19.202  0.2539E+00  0.9638E+00
    -19.196  0.2563E+00  0.9655E+00
    -19.190  0.2599E+00  0.9671E+00
    -19.183  0.2646E+00  0.9688E+00
    -19.177  0.2703E+00  0.9706E+00
    -19.170  0.2770E+00  0.9723E+00
    -19.164  0.2846E+00  0.9741E+00
    -19.158  0.2929E+00  0.9760E+00
    -19.151  0.3017E+00  0.9779E+00
    -19.145  0.3109E+00  0.9799E+00
    -19.138  0.3203E+00  0.9820E+00
    -19.132  0.3298E+00  0.9841E+00
    -19.126  0.3390E+00  0.9863E+00
    -19.119  0.3479E+00  0.9885E+00
    -19.113  0.3563E+00  0.9908E+00
    -19.107  0.3641E+00  0.9931E+00
    -19.100  0.3710E+00  0.9955E+00
    -19.094  0.3769E+00  0.9979E+00
    -19.087  0.3818E+00  0.1000E+01
    -19.081  0.3856E+00  0.1003E+01
    -19.075  0.3882E+00  0.1005E+01
    -19.068  0.3896E+00  0.1008E+01
    -19.062  0.3899E+00  0.1010E+01
    -19.055  0.3890E+00  0.1013E+01
    -19.049  0.3870E+00  0.1015E+01
    -19.043  0.3841E+00  0.1018E+01
    -19.036  0.3803E+00  0.1020E+01
    -19.030  0.3758E+00  0.1022E+01
    -19.023  0.3706E+00  0.1025E+01
    -19.017  0.3650E+00  0.1027E+01
    -19.011  0.3590E+00  0.1029E+01
    -19.004  0.3529E+00  0.1032E+01
    -18.998  0.3467E+00  0.1034E+01
    -18.992  0.3406E+00  0.1036E+01
    -18.985  0.3347E+00  0.1038E+01
    -18.979  0.3290E+00  0.1040E+01
    -18.972  0.3235E+00  0.1042E+01
    -18.966  0.3184E+00  0.1044E+01
    -18.960  0.3136E+00  0.1046E+01
    -18.953  0.3092E+00  0.1048E+01
    -18.947  0.3051E+00  0.1050E+01
    -18.940  0.3012E+00  0.1052E+01
    -18.934  0.2975E+00  0.1054E+01
    -18.928  0.2940E+00  0.1056E+01
    -18.921  0.2907E+00  0.1058E+01
    -18.915  0.2874E+00  0.1060E+01
    -18.908  0.2842E+00  0.1062E+01
    -18.902  0.2811E+00  0.1063E+01
    -18.896  0.2780E+00  0.1065E+01
    -18.889  0.2750E+00  0.1067E+01
    -18.883  0.2722E+00  0.1069E+01
    -18.876  0.2696E+00  0.1070E+01
    -18.870  0.2673E+00  0.1072E+01
    -18.864  0.2655E+00  0.1074E+01
    -18.857  0.2642E+00  0.1075E+01
    -18.851  0.2636E+00  0.1077E+01
    -18.845  0.2637E+00  0.1079E+01
    -18.838  0.2647E+00  0.1081E+01
    -18.832  0.2667E+00  0.1082E+01
    -18.825  0.2697E+00  0.1084E+01
    -18.819  0.2738E+00  0.1086E+01
    -18.813  0.2789E+00  0.1088E+01
    -18.806  0.2851E+00  0.1089E+01
    -18.800  0.2922E+00  0.1091E+01
    -18.793  0.3002E+00  0.1093E+01
    -18.787  0.3089E+00  0.1095E+01
    -18.781  0.3183E+00  0.1097E+01
    -18.774  0.3280E+00  0.1099E+01
    -18.768  0.3379E+00  0.1101E+01