nqpoint: 153    
npath: 3      
segment_nqpoint:
- 51
- 51
- 51
reciprocal_lattice:
- [   0.23474178,  -0.40658472,   0.00000000 ] # a*
- [   0.23474178,   0.40658472,   0.00000000 ] # b*
- [   0.00000000,   0.00000000,   0.05000000 ] # c*
natom: 2      
lattice:
- [     2.130000000000000,    -1.229756000000000,     0.000000000000000 ] # a
- [     2.130000000000000,     1.229756000000000,     0.000000000000000 ] # b
- [     0.000000000000000,     0.000000000000000,    20.000000000000000 ] # c
points:
- symbol: C  # 1
  coordinates: [  0.000000000000000,  0.000000000000000,  0.000000000000000 ]
  mass: 12.010700
- symbol: C  # 2
  coordinates: [  0.333333000000000,  0.333333000000000,  0.000000000000000 ]
  mass: 12.010700
supercell_matrix:
- [    9,    0,    0 ]
- [    0,    9,    0 ]
- [    0,    0,    1 ]

phonon:
- q-position: [    0.0000000,    0.0000000,    0.0000000 ]
  distance:    0.0000000
  band:
  - # 1
    frequency:   -0.0085107058
  - # 2
    frequency:   -0.0085107054
  - # 3
    frequency:    0.0046571623
  - # 4
    frequency:   25.8653860311
  - # 5
    frequency:   45.4082390012
  - # 6
    frequency:   45.4082413475

- q-position: [    0.0100000,    0.0100000,    0.0000000 ]
  distance:    0.0046948
  band:
  - # 1
    frequency:   -0.0729602730
  - # 2
    frequency:    0.6818740551
  - # 3
    frequency:    1.0778370469
  - # 4
    frequency:   25.8646287933
  - # 5
    frequency:   45.4099137100
  - # 6
    frequency:   45.4163199186

- q-position: [    0.0200000,    0.0200000,    0.0000000 ]
  distance:    0.0093897
  band:
  - # 1
    frequency:   -0.1424016742
  - # 2
    frequency:    1.3627492344
  - # 3
    frequency:    2.1546692185
  - # 4
    frequency:   25.8623284572
  - # 5
    frequency:   45.4148599586
  - # 6
    frequency:   45.4404448352

- q-position: [    0.0300000,    0.0300000,    0.0000000 ]
  distance:    0.0140845
  band:
  - # 1
    frequency:   -0.2039971843
  - # 2
    frequency:    2.0414549589
  - # 3
    frequency:    3.2293849152
  - # 4
    frequency:   25.8583995332
  - # 5
    frequency:   45.4228673293
  - # 6
    frequency:   45.4802637734

- q-position: [    0.0400000,    0.0400000,    0.0000000 ]
  distance:    0.0187793
  band:
  - # 1
    frequency:   -0.2529553610
  - # 2
    frequency:    2.7169418647
  - # 3
    frequency:    4.3009530284
  - # 4
    frequency:   25.8527007909
  - # 5
    frequency:   45.4335858626
  - # 6
    frequency:   45.5351996346

- q-position: [    0.0500000,    0.0500000,    0.0000000 ]
  distance:    0.0234742
  band:
  - # 1
    frequency:   -0.2828058197
  - # 2
    frequency:    3.3881659067
  - # 3
    frequency:    5.3683514451
  - # 4
    frequency:   25.8450371087
  - # 5
    frequency:   45.4465347087
  - # 6
    frequency:   45.6044578340

- q-position: [    0.0600000,    0.0600000,    0.0000000 ]
  distance:    0.0281690
  band:
  - # 1
    frequency:   -0.2831646002
  - # 2
    frequency:    4.0541025992
  - # 3
    frequency:    6.4305778095
  - # 4
    frequency:   25.8351620075
  - # 5
    frequency:   45.4611109488
  - # 6
    frequency:   45.6870391587

- q-position: [    0.0700000,    0.0700000,    0.0000000 ]
  distance:    0.0328638
  band:
  - # 1
    frequency:   -0.2308162296
  - # 2
    frequency:    4.7137537164
  - # 3
    frequency:    7.4866554121
  - # 4
    frequency:   25.8227808153
  - # 5
    frequency:   45.4766005647
  - # 6
    frequency:   45.7817556235

- q-position: [    0.0800000,    0.0800000,    0.0000000 ]
  distance:    0.0375587
  band:
  - # 1
    frequency:    0.1177361508
  - # 2
    frequency:    5.3661530769
  - # 3
    frequency:    8.5356383759
  - # 4
    frequency:   25.8075543993
  - # 5
    frequency:   45.4921913009
  - # 6
    frequency:   45.8872488686

- q-position: [    0.0900000,    0.0900000,    0.0000000 ]
  distance:    0.0422535
  band:
  - # 1
    frequency:    0.3688315159
  - # 2
    frequency:    6.0103721240
  - # 3
    frequency:    9.5766165724
  - # 4
    frequency:   25.7891033928
  - # 5
    frequency:   45.5069871290
  - # 6
    frequency:   46.0020105963

- q-position: [    0.1000000,    0.1000000,    0.0000000 ]
  distance:    0.0469484
  band:
  - # 1
    frequency:    0.5741086758
  - # 2
    frequency:    6.6455254050
  - # 3
    frequency:   10.6087203191
  - # 4
    frequency:   25.7670128401
  - # 5
    frequency:   45.5200240090
  - # 6
    frequency:   46.1244045151

- q-position: [    0.1100000,    0.1100000,    0.0000000 ]
  distance:    0.0516432
  band:
  - # 1
    frequency:    0.7824995699
  - # 2
    frequency:    7.2707759328
  - # 3
    frequency:   11.6311248385
  - # 4
    frequency:   25.7408371794
  - # 5
    frequency:   45.5302866287
  - # 6
    frequency:   46.2526892620

- q-position: [    0.1200000,    0.1200000,    0.0000000 ]
  distance:    0.0563380
  band:
  - # 1
    frequency:    1.0015701070
  - # 2
    frequency:    7.8853403671
  - # 3
    frequency:   12.6430544348
  - # 4
    frequency:   25.7101054843
  - # 5
    frequency:   45.5367258061
  - # 6
    frequency:   46.3850417879

- q-position: [    0.1300000,    0.1300000,    0.0000000 ]
  distance:    0.0610329
  band:
  - # 1
    frequency:    1.2337643488
  - # 2
    frequency:    8.4884939327
  - # 3
    frequency:   13.6437863360
  - # 4
    frequency:   25.6743268861
  - # 5
    frequency:   45.5382762542
  - # 6
    frequency:   46.5195807298

- q-position: [    0.1400000,    0.1400000,    0.0000000 ]
  distance:    0.0657277
  band:
  - # 1
    frequency:    1.4799851611
  - # 2
    frequency:    9.0795749746
  - # 3
    frequency:   14.6326541443
  - # 4
    frequency:   25.6329961069
  - # 5
    frequency:   45.5338744241
  - # 6
    frequency:   46.6543893410

- q-position: [    0.1500000,    0.1500000,    0.0000000 ]
  distance:    0.0704225
  band:
  - # 1
    frequency:    1.7405026637
  - # 2
    frequency:    9.6579890344
  - # 3
    frequency:   15.6090508345
  - # 4
    frequency:   25.5855990368
  - # 5
    frequency:   45.5224761729
  - # 6
    frequency:   46.7875376081

- q-position: [    0.1600000,    0.1600000,    0.0000000 ]
  distance:    0.0751174
  band:
  - # 1
    frequency:    2.0152744075
  - # 2
    frequency:   10.2232123273
  - # 3
    frequency:   16.5724312419
  - # 4
    frequency:   25.5316182999
  - # 5
    frequency:   45.5030740317
  - # 6
    frequency:   46.9171032462

- q-position: [    0.1700000,    0.1700000,    0.0000000 ]
  distance:    0.0798122
  band:
  - # 1
    frequency:    2.3040815112
  - # 2
    frequency:   10.7747944849
  - # 3
    frequency:   17.5223139801
  - # 4
    frequency:   25.4705387593
  - # 5
    frequency:   45.4747138830
  - # 6
    frequency:   47.0411913270

- q-position: [    0.1800000,    0.1800000,    0.0000000 ]
  distance:    0.0845070
  band:
  - # 1
    frequency:    2.6065942090
  - # 2
    frequency:   11.3123604315
  - # 3
    frequency:   18.4582827348
  - # 4
    frequency:   25.4018529263
  - # 5
    frequency:   45.4365108911
  - # 6
    frequency:   47.1579523546

- q-position: [    0.1900000,    0.1900000,    0.0000000 ]
  distance:    0.0892019
  band:
  - # 1
    frequency:    2.9224063227
  - # 2
    frequency:   11.8356112521
  - # 3
    frequency:   19.3799868825
  - # 4
    frequency:   25.3250662436
  - # 5
    frequency:   45.3876645630
  - # 6
    frequency:   47.2655986635

- q-position: [    0.2000000,    0.2000000,    0.0000000 ]
  distance:    0.0938967
  band:
  - # 1
    frequency:    3.2510545791
  - # 2
    frequency:   12.3443239182
  - # 3
    frequency:   20.2871413914
  - # 4
    frequency:   25.2397022289
  - # 5
    frequency:   45.3274728471
  - # 6
    frequency:   47.3624190597

- q-position: [    0.2100000,    0.2100000,    0.0000000 ]
  distance:    0.0985915
  band:
  - # 1
    frequency:    3.5920299122
  - # 2
    frequency:   12.8383497375
  - # 3
    frequency:   21.1795259661
  - # 4
    frequency:   25.1453074728
  - # 5
    frequency:   45.2553452073
  - # 6
    frequency:   47.4467916753

- q-position: [    0.2200000,    0.2200000,    0.0000000 ]
  distance:    0.1032864
  band:
  - # 1
    frequency:    3.9447842144
  - # 2
    frequency:   13.3176114063
  - # 3
    frequency:   22.0569834103
  - # 4
    frequency:   25.0414565000
  - # 5
    frequency:   45.1708146314
  - # 6
    frequency:   47.5171950402

- q-position: [    0.2300000,    0.2300000,    0.0000000 ]
  distance:    0.1079812
  band:
  - # 1
    frequency:    4.3087343287
  - # 2
    frequency:   13.7820985531
  - # 3
    frequency:   22.9194171874
  - # 4
    frequency:   24.9277565148
  - # 5
    frequency:   45.0735485554
  - # 6
    frequency:   47.5722174087

- q-position: [    0.2400000,    0.2400000,    0.0000000 ]
  distance:    0.1126761
  band:
  - # 1
    frequency:    4.6832642448
  - # 2
    frequency:   14.2318616831
  - # 3
    frequency:   23.7667881690
  - # 4
    frequency:   24.8038520667
  - # 5
    frequency:   44.9633586977
  - # 6
    frequency:   47.6105643995

- q-position: [    0.2500000,    0.2500000,    0.0000000 ]
  distance:    0.1173709
  band:
  - # 1
    frequency:    5.0677260273
  - # 2
    frequency:   14.6670044576
  - # 3
    frequency:   24.5991105736
  - # 4
    frequency:   24.6694296918
  - # 5
    frequency:   44.8402098079
  - # 6
    frequency:   47.6310650317

- q-position: [    0.2600000,    0.2600000,    0.0000000 ]
  distance:    0.1220657
  band:
  - # 1
    frequency:    5.4614397543
  - # 2
    frequency:   15.0876742715
  - # 3
    frequency:   24.5242226050
  - # 4
    frequency:   25.4164471014
  - # 5
    frequency:   44.7042273373
  - # 6
    frequency:   47.6326762529

- q-position: [    0.2700000,    0.2700000,    0.0000000 ]
  distance:    0.1267606
  band:
  - # 1
    frequency:    5.8636925914
  - # 2
    frequency:   15.4940511331
  - # 3
    frequency:   24.3680155446
  - # 4
    frequency:   26.2189032838
  - # 5
    frequency:   44.5557040351
  - # 6
    frequency:   47.6144860676

- q-position: [    0.2800000,    0.2800000,    0.0000000 ]
  distance:    0.1314554
  band:
  - # 1
    frequency:    6.2737370149
  - # 2
    frequency:   15.8863348984
  - # 3
    frequency:   24.2006499085
  - # 4
    frequency:   27.0066210660
  - # 5
    frequency:   44.3951054633
  - # 6
    frequency:   47.5757153903

- q-position: [    0.2900000,    0.2900000,    0.0000000 ]
  distance:    0.1361502
  band:
  - # 1
    frequency:    6.6907881077
  - # 2
    frequency:   16.2647309678
  - # 3
    frequency:   24.0220293624
  - # 4
    frequency:   27.7797716468
  - # 5
    frequency:   44.2230744061
  - # 6
    frequency:   47.5157187576

- q-position: [    0.3000000,    0.3000000,    0.0000000 ]
  distance:    0.1408451
  band:
  - # 1
    frequency:    7.1140197608
  - # 2
    frequency:   16.6294346233
  - # 3
    frequency:   23.8321261670
  - # 4
    frequency:   28.5385475903
  - # 5
    frequency:   44.0404341174
  - # 6
    frequency:   47.4339840534

- q-position: [    0.3100000,    0.3100000,    0.0000000 ]
  distance:    0.1455399
  band:
  - # 1
    frequency:    7.5425595094
  - # 2
    frequency:   16.9806142636
  - # 3
    frequency:   23.6309885512
  - # 4
    frequency:   29.2831542135
  - # 5
    frequency:   43.8481903148
  - # 6
    frequency:   47.3301314234

- q-position: [    0.3200000,    0.3200000,    0.0000000 ]
  distance:    0.1502347
  band:
  - # 1
    frequency:    7.9754816030
  - # 2
    frequency:   17.3183938873
  - # 3
    frequency:   23.4187495773
  - # 4
    frequency:   30.0138002247
  - # 5
    frequency:   43.6475317728
  - # 6
    frequency:   47.2039115930

- q-position: [    0.3300000,    0.3300000,    0.0000000 ]
  distance:    0.1549296
  band:
  - # 1
    frequency:    8.4117977381
  - # 2
    frequency:   17.6428352774
  - # 3
    frequency:   23.1956381099
  - # 4
    frequency:   30.7306875408
  - # 5
    frequency:   43.4398293050
  - # 6
    frequency:   47.0552038544

- q-position: [    0.3400000,    0.3400000,    0.0000000 ]
  distance:    0.1596244
  band:
  - # 1
    frequency:    8.8504446386
  - # 2
    frequency:   17.9539204603
  - # 3
    frequency:   22.9619927298
  - # 4
    frequency:   31.4340001278
  - # 5
    frequency:   43.2266328430
  - # 6
    frequency:   46.8840140793

- q-position: [    0.3500000,    0.3500000,    0.0000000 ]
  distance:    0.1643192
  band:
  - # 1
    frequency:    9.2902673362
  - # 2
    frequency:   18.2515351324
  - # 3
    frequency:   22.7182797676
  - # 4
    frequency:   32.1238915795
  - # 5
    frequency:   43.0096662275
  - # 6
    frequency:   46.6904732445

- q-position: [    0.3600000,    0.3600000,    0.0000000 ]
  distance:    0.1690141
  band:
  - # 1
    frequency:    9.7299965213
  - # 2
    frequency:   18.5354538834
  - # 3
    frequency:   22.4651171092
  - # 4
    frequency:   32.8004709237
  - # 5
    frequency:   42.7908192220
  - # 6
    frequency:   46.4748371859

- q-position: [    0.3700000,    0.3700000,    0.0000000 ]
  distance:    0.1737089
  band:
  - # 1
    frequency:   10.1682176473
  - # 2
    frequency:   18.8053281669
  - # 3
    frequency:   22.2033061066
  - # 4
    frequency:   33.4637857803
  - # 5
    frequency:   42.5721361512
  - # 6
    frequency:   46.2374886609

- q-position: [    0.3800000,    0.3800000,    0.0000000 ]
  distance:    0.1784038
  band:
  - # 1
    frequency:   10.6033284928
  - # 2
    frequency:   19.0606780829
  - # 3
    frequency:   21.9338749078
  - # 4
    frequency:   34.1138013598
  - # 5
    frequency:   42.3558004659
  - # 6
    frequency:   45.9789434325

- q-position: [    0.3900000,    0.3900000,    0.0000000 ]
  distance:    0.1830986
  band:
  - # 1
    frequency:   11.0334805011
  - # 2
    frequency:   19.3008891074
  - # 3
    frequency:   21.6581378985
  - # 4
    frequency:   34.7503726796
  - # 5
    frequency:   42.1441144609
  - # 6
    frequency:   45.6998631952

- q-position: [    0.4000000,    0.4000000,    0.0000000 ]
  distance:    0.1877934
  band:
  - # 1
    frequency:   11.4564973356
  - # 2
    frequency:   19.5252149182
  - # 3
    frequency:   21.3777778301
  - # 4
    frequency:   35.3732053443
  - # 5
    frequency:   41.9394733544
  - # 6
    frequency:   45.4010801894

- q-position: [    0.4100000,    0.4100000,    0.0000000 ]
  distance:    0.1924883
  band:
  - # 1
    frequency:   11.8697617007
  - # 2
    frequency:   19.7327873779
  - # 3
    frequency:   21.0949595948
  - # 4
    frequency:   35.9817963879
  - # 5
    frequency:   41.7443329990
  - # 6
    frequency:   45.0836421897

- q-position: [    0.4200000,    0.4200000,    0.0000000 ]
  distance:    0.1971831
  band:
  - # 1
    frequency:   12.2700589527
  - # 2
    frequency:   19.9226345163
  - # 3
    frequency:   20.8124871317
  - # 4
    frequency:   36.5753390301
  - # 5
    frequency:   41.5611706938
  - # 6
    frequency:   44.7488941897

- q-position: [    0.4300000,    0.4300000,    0.0000000 ]
  distance:    0.2018779
  band:
  - # 1
    frequency:   12.6533647952
  - # 2
    frequency:   20.0937069614
  - # 3
    frequency:   20.5340161787
  - # 4
    frequency:   37.1525592318
  - # 5
    frequency:   41.3924389190
  - # 6
    frequency:   44.3986290629

- q-position: [    0.4400000,    0.4400000,    0.0000000 ]
  distance:    0.2065728
  band:
  - # 1
    frequency:   13.0145685228
  - # 2
    frequency:   20.2449126813
  - # 3
    frequency:   20.2643314122
  - # 4
    frequency:   37.7114166622
  - # 5
    frequency:   41.2405123686
  - # 6
    frequency:   44.0353747367

- q-position: [    0.4500000,    0.4500000,    0.0000000 ]
  distance:    0.2112676
  band:
  - # 1
    frequency:   13.3471427686
  - # 2
    frequency:   20.0096770243
  - # 3
    frequency:   20.3751591248
  - # 4
    frequency:   38.2485200691
  - # 5
    frequency:   41.1076293877
  - # 6
    frequency:   43.6629680273

- q-position: [    0.4600000,    0.4600000,    0.0000000 ]
  distance:    0.2159624
  band:
  - # 1
    frequency:   13.6428254259
  - # 2
    frequency:   19.7780750744
  - # 3
    frequency:   20.4834009330
  - # 4
    frequency:   38.7579028819
  - # 5
    frequency:   40.9958297990
  - # 6
    frequency:   43.2877694277

- q-position: [    0.4700000,    0.4700000,    0.0000000 ]
  distance:    0.2206573
  band:
  - # 1
    frequency:   13.8914968999
  - # 2
    frequency:   19.5794484612
  - # 3
    frequency:   20.5686904419
  - # 4
    frequency:   39.2282899444
  - # 5
    frequency:   40.9068920162
  - # 6
    frequency:   42.9213880602

- q-position: [    0.4800000,    0.4800000,    0.0000000 ]
  distance:    0.2253521
  band:
  - # 1
    frequency:   14.0816155642
  - # 2
    frequency:   19.4251856450
  - # 3
    frequency:   20.6302273734
  - # 4
    frequency:   39.6368424615
  - # 5
    frequency:   40.8422731349
  - # 6
    frequency:   42.5869298014

- q-position: [    0.4900000,    0.4900000,    0.0000000 ]
  distance:    0.2300469
  band:
  - # 1
    frequency:   14.2016780199
  - # 2
    frequency:   19.3266805247
  - # 3
    frequency:   20.6674035954
  - # 4
    frequency:   39.9369020411
  - # 5
    frequency:   40.8030561781
  - # 6
    frequency:   42.3312477717

- q-position: [    0.5000000,    0.5000000,    0.0000000 ]
  distance:    0.2347418
  band:
  - # 1
    frequency:   14.2428249822
  - # 2
    frequency:   19.2927266471
  - # 3
    frequency:   20.6798388100
  - # 4
    frequency:   40.0527248021
  - # 5
    frequency:   40.7899086760
  - # 6
    frequency:   42.2302042799

- q-position: [    0.5000000,    0.5000000,    0.0000000 ]
  distance:    0.2347418
  band:
  - # 1
    frequency:   14.2428249822
  - # 2
    frequency:   19.2927266471
  - # 3
    frequency:   20.6798388100
  - # 4
    frequency:   40.0527248021
  - # 5
    frequency:   40.7899086760
  - # 6
    frequency:   42.2302042799

- q-position: [    0.5033333,    0.4966667,    0.0000000 ]
  distance:    0.2374524
  band:
  - # 1
    frequency:   14.2427648363
  - # 2
    frequency:   19.2918097118
  - # 3
    frequency:   20.6871411675
  - # 4
    frequency:   40.0444772563
  - # 5
    frequency:   40.7919513310
  - # 6
    frequency:   42.2264954056

- q-position: [    0.5066667,    0.4933333,    0.0000000 ]
  distance:    0.2401629
  band:
  - # 1
    frequency:   14.2425910623
  - # 2
    frequency:   19.2890572227
  - # 3
    frequency:   20.7090316217
  - # 4
    frequency:   40.0201835668
  - # 5
    frequency:   40.7976475400
  - # 6
    frequency:   42.2153732728

- q-position: [    0.5100000,    0.4900000,    0.0000000 ]
  distance:    0.2428735
  band:
  - # 1
    frequency:   14.2423236240
  - # 2
    frequency:   19.2844641370
  - # 3
    frequency:   20.7454604389
  - # 4
    frequency:   39.9810327716
  - # 5
    frequency:   40.8058598063
  - # 6
    frequency:   42.1968513586

- q-position: [    0.5133334,    0.4866666,    0.0000000 ]
  distance:    0.2455841
  band:
  - # 1
    frequency:   14.2419957020
  - # 2
    frequency:   19.2780220727
  - # 3
    frequency:   20.7963451334
  - # 4
    frequency:   39.9285977688
  - # 5
    frequency:   40.8151010198
  - # 6
    frequency:   42.1709521440

- q-position: [    0.5166667,    0.4833333,    0.0000000 ]
  distance:    0.2482946
  band:
  - # 1
    frequency:   14.2416535557
  - # 2
    frequency:   19.2697193424
  - # 3
    frequency:   20.8615710599
  - # 4
    frequency:   39.8644977470
  - # 5
    frequency:   40.8238718552
  - # 6
    frequency:   42.1377071446

- q-position: [    0.5200000,    0.4800000,    0.0000000 ]
  distance:    0.2510052
  band:
  - # 1
    frequency:   14.2413563286
  - # 2
    frequency:   19.2595410008
  - # 3
    frequency:   20.9409922204
  - # 4
    frequency:   39.7901986555
  - # 5
    frequency:   40.8308600600
  - # 6
    frequency:   42.0971569546

- q-position: [    0.5233334,    0.4766666,    0.0000000 ]
  distance:    0.2537158
  band:
  - # 1
    frequency:   14.2411757966
  - # 2
    frequency:   19.2474689048
  - # 3
    frequency:   21.0344322599
  - # 4
    frequency:   39.7069450807
  - # 5
    frequency:   40.8350082657
  - # 6
    frequency:   42.0493513066

- q-position: [    0.5266667,    0.4733333,    0.0000000 ]
  distance:    0.2564263
  band:
  - # 1
    frequency:   14.2411960591
  - # 2
    frequency:   19.2334817866
  - # 3
    frequency:   21.1416856253
  - # 4
    frequency:   39.6157684635
  - # 5
    frequency:   40.8355053844
  - # 6
    frequency:   41.9943491498

- q-position: [    0.5300001,    0.4699999,    0.0000000 ]
  distance:    0.2591369
  band:
  - # 1
    frequency:   14.2415131710
  - # 2
    frequency:   19.2175553395
  - # 3
    frequency:   21.2625188544
  - # 4
    frequency:   39.5175250451
  - # 5
    frequency:   40.8317482037
  - # 6
    frequency:   41.9322187492

- q-position: [    0.5333334,    0.4666666,    0.0000000 ]
  distance:    0.2618475
  band:
  - # 1
    frequency:   14.2422347155
  - # 2
    frequency:   19.1996623155
  - # 3
    frequency:   21.3966719591
  - # 4
    frequency:   39.4129382561
  - # 5
    frequency:   40.8232984596
  - # 6
    frequency:   41.8630378101

- q-position: [    0.5366667,    0.4633333,    0.0000000 ]
  distance:    0.2645581
  band:
  - # 1
    frequency:   14.2434793154
  - # 2
    frequency:   19.1797726348
  - # 3
    frequency:   21.5438598670
  - # 4
    frequency:   39.3026355352
  - # 5
    frequency:   40.8098454022
  - # 6
    frequency:   41.7868936337

- q-position: [    0.5400001,    0.4599999,    0.0000000 ]
  distance:    0.2672686
  band:
  - # 1
    frequency:   14.2453760842
  - # 2
    frequency:   19.1578535061
  - # 3
    frequency:   21.7037738820
  - # 4
    frequency:   39.1871772143
  - # 5
    frequency:   40.7911762116
  - # 6
    frequency:   41.7038833078

- q-position: [    0.5433334,    0.4566666,    0.0000000 ]
  distance:    0.2699792
  band:
  - # 1
    frequency:   14.2480640134
  - # 2
    frequency:   19.1338695579
  - # 3
    frequency:   21.8760831247
  - # 4
    frequency:   39.0670781072
  - # 5
    frequency:   40.7671536257
  - # 6
    frequency:   41.6141139418

- q-position: [    0.5466668,    0.4533332,    0.0000000 ]
  distance:    0.2726898
  band:
  - # 1
    frequency:   14.2516912981
  - # 2
    frequency:   19.1077829793
  - # 3
    frequency:   22.0604359150
  - # 4
    frequency:   38.9428232557
  - # 5
    frequency:   40.7376993206
  - # 6
    frequency:   41.5177029551

- q-position: [    0.5500001,    0.4499999,    0.0000000 ]
  distance:    0.2754003
  band:
  - # 1
    frequency:   14.2564145996
  - # 2
    frequency:   19.0795536708
  - # 3
    frequency:   22.2564610586
  - # 4
    frequency:   38.8148792671
  - # 5
    frequency:   40.7027816096
  - # 6
    frequency:   41.4147784281

- q-position: [    0.5533334,    0.4466666,    0.0000000 ]
  distance:    0.2781109
  band:
  - # 1
    frequency:   14.2623982451
  - # 2
    frequency:   19.0491394030
  - # 3
    frequency:   22.4637689997
  - # 4
    frequency:   38.6837024063
  - # 5
    frequency:   40.6624062902
  - # 6
    frequency:   41.3054795315

- q-position: [    0.5566668,    0.4433332,    0.0000000 ]
  distance:    0.2808215
  band:
  - # 1
    frequency:   14.2698133659
  - # 2
    frequency:   19.0164959845
  - # 3
    frequency:   22.6819528039
  - # 4
    frequency:   38.5497443189
  - # 5
    frequency:   40.6166097621
  - # 6
    frequency:   41.1899570486

- q-position: [    0.5600001,    0.4399999,    0.0000000 ]
  distance:    0.2835320
  band:
  - # 1
    frequency:   14.2788369762
  - # 2
    frequency:   18.9815774360
  - # 3
    frequency:   22.9105889336
  - # 4
    frequency:   38.4134560184
  - # 5
    frequency:   40.5654537768
  - # 6
    frequency:   41.0683740121

- q-position: [    0.5633335,    0.4366665,    0.0000000 ]
  distance:    0.2862426
  band:
  - # 1
    frequency:   14.2896509931
  - # 2
    frequency:   18.9443361720
  - # 3
    frequency:   23.1492377799
  - # 4
    frequency:   38.2752905907
  - # 5
    frequency:   40.5090213652
  - # 6
    frequency:   40.9409064788

- q-position: [    0.5666668,    0.4333332,    0.0000000 ]
  distance:    0.2889532
  band:
  - # 1
    frequency:   14.3024412026
  - # 2
    frequency:   18.9047231875
  - # 3
    frequency:   23.3974439088
  - # 4
    frequency:   38.1357049333
  - # 5
    frequency:   40.4474136189
  - # 6
    frequency:   40.8077444737

- q-position: [    0.5700001,    0.4299999,    0.0000000 ]
  distance:    0.2916638
  band:
  - # 1
    frequency:   14.3173961749
  - # 2
    frequency:   18.8626882506
  - # 3
    frequency:   23.6547359816
  - # 4
    frequency:   37.9951607583
  - # 5
    frequency:   40.3807470959
  - # 6
    frequency:   40.6690931411

- q-position: [    0.5733335,    0.4266665,    0.0000000 ]
  distance:    0.2943743
  band:
  - # 1
    frequency:   14.3347061341
  - # 2
    frequency:   18.8181800993
  - # 3
    frequency:   23.9206262959
  - # 4
    frequency:   37.8541250155
  - # 5
    frequency:   40.3091516903
  - # 6
    frequency:   40.5251741483

- q-position: [    0.5766668,    0.4233332,    0.0000000 ]
  distance:    0.2970849
  band:
  - # 1
    frequency:   14.3545617879
  - # 2
    frequency:   18.7711466417
  - # 3
    frequency:   24.1946098929
  - # 4
    frequency:   37.7130698515
  - # 5
    frequency:   40.2327688479
  - # 6
    frequency:   40.3762274013

- q-position: [    0.5800002,    0.4199998,    0.0000000 ]
  distance:    0.2997955
  band:
  - # 1
    frequency:   14.3771531258
  - # 2
    frequency:   18.7215351598
  - # 3
    frequency:   24.4761631583
  - # 4
    frequency:   37.5724721840
  - # 5
    frequency:   40.1517500478
  - # 6
    frequency:   40.2225131452

- q-position: [    0.5833335,    0.4166665,    0.0000000 ]
  distance:    0.3025060
  band:
  - # 1
    frequency:   14.4026681917
  - # 2
    frequency:   18.6692925147
  - # 3
    frequency:   24.7647418307
  - # 4
    frequency:   37.4328129497
  - # 5
    frequency:   40.0643145381
  - # 6
    frequency:   40.0662554907

- q-position: [    0.5866668,    0.4133332,    0.0000000 ]
  distance:    0.3052166
  band:
  - # 1
    frequency:   14.4312918417
  - # 2
    frequency:   18.6143653539
  - # 3
    frequency:   25.0597783093
  - # 4
    frequency:   37.2945760642
  - # 5
    frequency:   39.9019408172
  - # 6
    frequency:   39.9764529541

- q-position: [    0.5900002,    0.4099998,    0.0000000 ]
  distance:    0.3079272
  band:
  - # 1
    frequency:   14.4632044966
  - # 2
    frequency:   18.5567003195
  - # 3
    frequency:   25.3606781238
  - # 4
    frequency:   37.1582471262
  - # 5
    frequency:   39.7357311946
  - # 6
    frequency:   39.8825167896

- q-position: [    0.5933335,    0.4066665,    0.0000000 ]
  distance:    0.3106378
  band:
  - # 1
    frequency:   14.4985808989
  - # 2
    frequency:   18.4962442556
  - # 3
    frequency:   25.6668153924
  - # 4
    frequency:   37.0243118803
  - # 5
    frequency:   39.5660596723
  - # 6
    frequency:   39.7846270403

- q-position: [    0.5966669,    0.4033331,    0.0000000 ]
  distance:    0.3133483
  band:
  - # 1
    frequency:   14.5375888871
  - # 2
    frequency:   18.4329444167
  - # 3
    frequency:   25.9775270471
  - # 4
    frequency:   36.8932544561
  - # 5
    frequency:   39.3933409989
  - # 6
    frequency:   39.6829686772

- q-position: [    0.6000002,    0.3999998,    0.0000000 ]
  distance:    0.3160589
  band:
  - # 1
    frequency:   14.5803881980
  - # 2
    frequency:   18.3667486732
  - # 3
    frequency:   26.2921055462
  - # 4
    frequency:   36.7655553845
  - # 5
    frequency:   39.2180380618
  - # 6
    frequency:   39.5777309506

- q-position: [    0.6033335,    0.3966665,    0.0000000 ]
  distance:    0.3187695
  band:
  - # 1
    frequency:   14.6271293092
  - # 2
    frequency:   18.2976057166
  - # 3
    frequency:   26.6097897183
  - # 4
    frequency:   36.6416893958
  - # 5
    frequency:   39.0406710758
  - # 6
    frequency:   39.4691068641

- q-position: [    0.6066669,    0.3933331,    0.0000000 ]
  distance:    0.3214800
  band:
  - # 1
    frequency:   14.6779523349
  - # 2
    frequency:   18.2254652616
  - # 3
    frequency:   26.9297532940
  - # 4
    frequency:   36.5221229915
  - # 5
    frequency:   38.8618290228
  - # 6
    frequency:   39.3572927888

- q-position: [    0.6100002,    0.3899998,    0.0000000 ]
  distance:    0.3241906
  band:
  - # 1
    frequency:   14.7329859847
  - # 2
    frequency:   18.1502782449
  - # 3
    frequency:   27.2510905750
  - # 4
    frequency:   36.4073117771
  - # 5
    frequency:   38.6821839014
  - # 6
    frequency:   39.2424882407

- q-position: [    0.6133336,    0.3866664,    0.0000000 ]
  distance:    0.3269012
  band:
  - # 1
    frequency:   14.7923465992
  - # 2
    frequency:   18.0719970218
  - # 3
    frequency:   27.5727985721
  - # 4
    frequency:   36.2976975351
  - # 5
    frequency:   38.5025084608
  - # 6
    frequency:   39.1248958587

- q-position: [    0.6166669,    0.3833331,    0.0000000 ]
  distance:    0.3296117
  band:
  - # 1
    frequency:   14.8561372709
  - # 2
    frequency:   17.9905755575
  - # 3
    frequency:   27.8937548351
  - # 4
    frequency:   36.1937049995
  - # 5
    frequency:   38.3236982054
  - # 6
    frequency:   39.0047216349

- q-position: [    0.6200002,    0.3799998,    0.0000000 ]
  distance:    0.3323223
  band:
  - # 1
    frequency:   14.9244470614
  - # 2
    frequency:   17.9059696150
  - # 3
    frequency:   28.2126901200
  - # 4
    frequency:   36.0957382810
  - # 5
    frequency:   38.1467985322
  - # 6
    frequency:   38.8821754696

- q-position: [    0.6233336,    0.3766664,    0.0000000 ]
  distance:    0.3350329
  band:
  - # 1
    frequency:   14.9973503222
  - # 2
    frequency:   17.8181369374
  - # 3
    frequency:   28.5281550697
  - # 4
    frequency:   36.0041768610
  - # 5
    frequency:   37.9730378294
  - # 6
    frequency:   38.7574721514

- q-position: [    0.6266669,    0.3733331,    0.0000000 ]