  18  18   0   0
  0.5238761E+02  0.7378536E-09  0.7378536E-09  0.2000000E-08  0.5000000E-15
  1.000000000000000E-004
  CAR 
 C:graphene-relax-phonon                 
      5.01697276    -24.86670660  301     -2.74634071      1.00000000
    -24.867  0.0000E+00  0.0000E+00
    -24.767  0.0000E+00  0.0000E+00
    -24.667  0.0000E+00  0.0000E+00
    -24.568  0.0000E+00  0.0000E+00
    -24.468  0.0000E+00  0.0000E+00
    -24.369  0.0000E+00  0.0000E+00
    -24.269  0.0000E+00  0.0000E+00
    -24.169  0.0000E+00  0.0000E+00
    -24.070  0.0000E+00  0.0000E+00
    -23.970  0.0000E+00  0.0000E+00
    -23.871  0.0000E+00  0.0000E+00
    -23.771  0.0000E+00  0.0000E+00
    -23.671  0.0000E+00  0.0000E+00
    -23.572  0.0000E+00  0.0000E+00
    -23.472  0.9231E+00  0.9195E-01
    -23.373  0.2299E+01  0.3697E+00
    -23.273  0.2318E+01  0.6164E+00
    -23.173  0.2133E+01  0.8972E+00
    -23.074  0.2449E+01  0.1147E+01
    -22.974  0.2668E+01  0.1413E+01
    -22.874  0.2463E+01  0.1665E+01
    -22.775  0.2242E+01  0.1942E+01
    -22.675  0.2576E+01  0.2220E+01
    -22.576  0.2143E+01  0.2476E+01
    -22.476  0.1630E+01  0.2697E+01
    -22.376  0.2863E+01  0.2984E+01
    -22.277  0.2168E+01  0.3268E+01
    -22.177  0.1453E+01  0.3487E+01
    -22.078  0.3381E+01  0.3825E+01
    -21.978  0.2082E+01  0.4049E+01
    -21.878  0.1908E+01  0.4331E+01
    -21.779  0.2816E+01  0.4612E+01
    -21.679  0.1904E+01  0.4847E+01
    -21.580  0.2988E+01  0.5146E+01
    -21.480  0.1625E+01  0.5364E+01
    -21.380  0.2865E+01  0.5678E+01
    -21.281  0.1205E+01  0.5839E+01
    -21.181  0.2913E+01  0.6209E+01
    -21.081  0.1639E+01  0.6426E+01
    -20.982  0.3267E+01  0.6752E+01
    -20.882  0.1175E+01  0.6952E+01
    -20.783  0.2545E+01  0.7306E+01
    -20.683  0.1574E+01  0.7535E+01
    -20.583  0.3006E+01  0.7841E+01
    -20.484  0.2448E+01  0.8112E+01
    -20.384  0.2104E+01  0.8323E+01
    -20.285  0.1851E+01  0.8651E+01
    -20.185  0.1796E+01  0.8864E+01
    -20.085  0.3044E+01  0.9233E+01
    -19.986  0.1196E+01  0.9430E+01
    -19.886  0.2745E+01  0.9775E+01
    -19.786  0.2708E+01  0.1007E+02
    -19.687  0.1870E+01  0.1026E+02
    -19.587  0.3010E+01  0.1062E+02
    -19.488  0.2323E+01  0.1088E+02
    -19.388  0.2200E+01  0.1114E+02
    -19.288  0.2184E+01  0.1146E+02
    -19.189  0.2621E+01  0.1172E+02
    -19.089  0.3032E+01  0.1203E+02
    -18.990  0.2185E+01  0.1230E+02
    -18.890  0.2697E+01  0.1257E+02
    -18.790  0.3321E+01  0.1291E+02
    -18.691  0.1642E+01  0.1317E+02
    -18.591  0.2624E+01  0.1347E+02
    -18.492  0.2775E+01  0.1383E+02
    -18.392  0.1646E+01  0.1407E+02
    -18.292  0.3287E+01  0.1445E+02
    -18.193  0.3289E+01  0.1481E+02
    -18.093  0.2653E+01  0.1515E+02
    -17.993  0.4584E+01  0.1567E+02
    -17.894  0.2446E+01  0.1603E+02
    -17.794  0.2428E+01  0.1627E+02
    -17.695  0.2488E+01  0.1652E+02
    -17.595  0.2185E+01  0.1677E+02
    -17.495  0.2878E+00  0.1680E+02
    -17.396  0.3278E+01  0.1717E+02
    -17.296  0.2733E+00  0.1720E+02
    -17.197  0.1883E+01  0.1739E+02
    -17.097  0.2732E+00  0.1753E+02
    -16.997  0.5463E+00  0.1758E+02
    -16.898  0.1639E+01  0.1775E+02
    -16.798  0.4352E+00  0.1779E+02
    -16.699  0.2555E+01  0.1806E+02
    -16.599  0.2017E+01  0.1836E+02
    -16.499  0.2721E+01  0.1866E+02
    -16.400  0.2857E+01  0.1896E+02
    -16.300  0.1369E+01  0.1913E+02
    -16.200  0.3730E+01  0.1953E+02
    -16.101  0.2663E+01  0.1980E+02
    -16.001  0.3412E+01  0.2020E+02
    -15.902  0.4084E+01  0.2068E+02
    -15.802  0.2793E+01  0.2104E+02
    -15.702  0.3326E+01  0.2144E+02
    -15.603  0.1817E+01  0.2165E+02
    -15.503  0.3326E+01  0.2204E+02
    -15.404  0.2599E+01  0.2232E+02
    -15.304  0.3273E+01  0.2266E+02
    -15.204  0.2357E+01  0.2292E+02
    -15.105  0.3450E+01  0.2328E+02
    -15.005  0.1285E+01  0.2344E+02
    -14.905  0.2014E+01  0.2371E+02
    -14.806  0.1611E+01  0.2402E+02
    -14.706  0.2544E+01  0.2428E+02
    -14.607  0.1366E+01  0.2451E+02
    -14.507  0.2734E+01  0.2478E+02
    -14.407  0.1898E+01  0.2502E+02
    -14.308  0.2078E+01  0.2526E+02
    -14.208  0.1705E+01  0.2547E+02
    -14.109  0.1929E+01  0.2571E+02
    -14.009  0.2019E+01  0.2597E+02
    -13.909  0.1822E+01  0.2616E+02
    -13.810  0.2732E+01  0.2645E+02
    -13.710  0.2852E+01  0.2674E+02
    -13.611  0.2313E+01  0.2704E+02
    -13.511  0.1898E+01  0.2732E+02
    -13.411  0.2651E+01  0.2767E+02
    -13.312  0.3207E+01  0.2802E+02
    -13.212  0.2199E+01  0.2825E+02
    -13.112  0.3690E+01  0.2868E+02
    -13.013  0.1931E+01  0.2888E+02
    -12.913  0.1912E+01  0.2920E+02
    -12.814  0.3606E+01  0.2956E+02
    -12.714  0.2832E+01  0.2992E+02
    -12.614  0.1276E+01  0.3009E+02
    -12.515  0.3906E+01  0.3062E+02
    -12.415  0.1195E+01  0.3074E+02
    -12.316  0.3311E+01  0.3122E+02
    -12.216  0.1570E+01  0.3145E+02
    -12.116  0.4629E+01  0.3195E+02
    -12.017  0.1817E+01  0.3213E+02
    -11.917  0.4945E+01  0.3263E+02
    -11.817  0.2403E+01  0.3290E+02
    -11.718  0.3937E+01  0.3332E+02
    -11.618  0.2754E+01  0.3361E+02
    -11.519  0.3183E+01  0.3395E+02
    -11.419  0.1303E+01  0.3426E+02
    -11.319  0.3175E+01  0.3466E+02
    -11.220  0.2488E+01  0.3504E+02
    -11.120  0.1831E+01  0.3532E+02
    -11.021  0.4916E+01  0.3587E+02
    -10.921  0.2781E+01  0.3615E+02
    -10.821  0.5546E+01  0.3672E+02
    -10.722  0.4909E+01  0.3729E+02
    -10.622  0.5640E+01  0.3793E+02
    -10.523  0.5818E+01  0.3859E+02
    -10.423  0.5608E+01  0.3923E+02
    -10.323  0.5212E+01  0.3989E+02
    -10.224  0.5908E+01  0.4060E+02
    -10.124  0.5557E+01  0.4129E+02
    -10.024  0.5125E+01  0.4196E+02
     -9.925  0.6881E+01  0.4276E+02
     -9.825  0.6193E+01  0.4351E+02
     -9.726  0.6833E+01  0.4441E+02
     -9.626  0.8109E+01  0.4538E+02
     -9.526  0.8190E+01  0.4643E+02
     -9.427  0.4358E+01  0.4716E+02
     -9.327  0.7698E+01  0.4804E+02
     -9.228  0.5942E+01  0.4871E+02
     -9.128  0.5224E+01  0.4937E+02
     -9.028  0.6738E+01  0.5011E+02
     -8.929  0.6622E+01  0.5085E+02
     -8.829  0.4707E+01  0.5134E+02
     -8.730  0.4178E+01  0.5190E+02
     -8.630  0.4545E+01  0.5256E+02
     -8.530  0.4925E+01  0.5317E+02
     -8.431  0.3901E+01  0.5366E+02
     -8.331  0.6666E+01  0.5444E+02
     -8.231  0.2615E+01  0.5474E+02
     -8.132  0.5929E+01  0.5543E+02
     -8.032  0.4008E+01  0.5592E+02
     -7.933  0.4003E+01  0.5646E+02
     -7.833  0.4046E+01  0.5697E+02
     -7.733  0.2919E+01  0.5745E+02
     -7.634  0.6030E+01  0.5813E+02
     -7.534  0.2159E+01  0.5846E+02
     -7.435  0.6287E+01  0.5912E+02
     -7.335  0.3235E+01  0.5949E+02
     -7.235  0.4780E+01  0.6003E+02
     -7.136  0.4086E+01  0.6047E+02
     -7.036  0.4570E+01  0.6099E+02
     -6.936  0.2952E+01  0.6139E+02
     -6.837  0.3133E+01  0.6187E+02
     -6.737  0.3410E+01  0.6242E+02
     -6.638  0.3918E+01  0.6288E+02
     -6.538  0.2175E+01  0.6333E+02
     -6.438  0.3195E+01  0.6378E+02
     -6.339  0.4294E+01  0.6427E+02
     -6.239  0.2856E+01  0.6477E+02
     -6.140  0.2866E+01  0.6516E+02
     -6.040  0.4081E+01  0.6557E+02
     -5.940  0.2305E+01  0.6585E+02
     -5.841  0.1420E+01  0.6601E+02
     -5.741  0.3612E+01  0.6645E+02
     -5.642  0.2370E+01  0.6672E+02
     -5.542  0.1839E+01  0.6699E+02
     -5.442  0.3774E+01  0.6748E+02
     -5.343  0.2321E+01  0.6787E+02
     -5.243  0.3900E+01  0.6832E+02
     -5.143  0.5825E+01  0.6904E+02
     -5.044  0.6514E+00  0.6914E+02
     -4.944  0.3207E+01  0.6951E+02
     -4.845  0.8552E+00  0.6982E+02
     -4.745  0.1214E+01  0.6996E+02
     -4.645  0.3571E+01  0.7033E+02
     -4.546  0.1047E+01  0.7046E+02
     -4.446  0.9832E+00  0.7059E+02
     -4.347  0.2093E+01  0.7087E+02
     -4.247  0.7364E+00  0.7098E+02
     -4.147  0.9584E+00  0.7108E+02
     -4.048  0.1368E+01  0.7126E+02
     -3.948  0.4560E+00  0.7134E+02
     -3.849  0.7078E+00  0.7143E+02
     -3.749  0.1366E+01  0.7158E+02
     -3.649  0.5462E+00  0.7164E+02
     -3.550  0.8192E+00  0.7172E+02
     -3.450  0.5473E+00  0.7177E+02
     -3.350  0.3639E+00  0.7183E+02
     -3.251  0.6108E+00  0.7189E+02
     -3.151  0.2732E+00  0.7194E+02
     -3.052  0.6100E-05  0.7194E+02
     -2.952  0.5463E+00  0.7199E+02
     -2.852  0.0000E+00  0.7199E+02
     -2.753  0.3946E-01  0.7199E+02
     -2.653  0.0000E+00  0.7201E+02
     -2.554  0.0000E+00  0.7201E+02
     -2.454  0.5450E+00  0.7206E+02
     -2.354  0.9540E-12  0.7206E+02
     -2.255  0.3804E+00  0.7210E+02
     -2.155  0.5463E+00  0.7217E+02
     -2.055  0.5463E+00  0.7223E+02
     -1.956  0.5588E+00  0.7228E+02
     -1.856  0.6697E+00  0.7240E+02
     -1.757  0.1969E+00  0.7244E+02
     -1.657  0.1366E+01  0.7261E+02
     -1.557  0.1333E+01  0.7274E+02
     -1.458  0.5473E+00  0.7280E+02
     -1.358  0.2838E+01  0.7310E+02
     -1.259  0.5466E+00  0.7321E+02
     -1.159  0.3448E+01  0.7355E+02
     -1.059  0.1406E+01  0.7384E+02
     -0.960  0.4594E+01  0.7437E+02
     -0.860  0.4661E+01  0.7498E+02
     -0.761  0.2597E+01  0.7545E+02
     -0.661  0.3123E+01  0.7578E+02
     -0.561  0.2619E+01  0.7608E+02
     -0.462  0.1926E+01  0.7639E+02
     -0.362  0.2464E+01  0.7669E+02
     -0.262  0.2218E+01  0.7696E+02
     -0.163  0.2604E+01  0.7728E+02
     -0.063  0.2267E+01  0.7751E+02
      0.036  0.1047E+01  0.7769E+02
      0.136  0.3549E+01  0.7805E+02
      0.236  0.1235E+01  0.7817E+02
      0.335  0.2456E+01  0.7846E+02
      0.435  0.1772E+01  0.7863E+02
      0.534  0.1639E+01  0.7889E+02
      0.634  0.1343E+01  0.7903E+02
      0.734  0.2789E+01  0.7934E+02
      0.833  0.2953E+01  0.7965E+02
      0.933  0.3401E+01  0.8005E+02
      1.032  0.2440E+01  0.8037E+02
      1.132  0.4298E+01  0.8089E+02
      1.232  0.2351E+01  0.8120E+02
      1.331  0.2524E+01  0.8154E+02
      1.431  0.3603E+01  0.8200E+02
      1.531  0.3588E+01  0.8238E+02
      1.630  0.3665E+01  0.8285E+02
      1.730  0.5241E+01  0.8340E+02
      1.829  0.7158E+01  0.8422E+02
      1.929  0.5773E+01  0.8487E+02
      2.029  0.6349E+01  0.8563E+02
      2.128  0.5827E+01  0.8639E+02
      2.228  0.7934E+01  0.8721E+02
      2.327  0.6756E+01  0.8796E+02
      2.427  0.6495E+01  0.8870E+02
      2.527  0.6191E+01  0.8937E+02
      2.626  0.6211E+01  0.9020E+02
      2.726  0.5612E+01  0.9092E+02
      2.826  0.7683E+01  0.9181E+02
      2.925  0.6221E+01  0.9262E+02
      3.025  0.7619E+01  0.9349E+02
      3.124  0.5544E+01  0.9410E+02
      3.224  0.6057E+01  0.9481E+02
      3.324  0.5012E+01  0.9552E+02
      3.423  0.2288E+01  0.9580E+02
      3.523  0.1418E+01  0.9597E+02
      3.622  0.6396E-03  0.9597E+02
      3.722  0.1821E+00  0.9600E+02
      3.822  0.0000E+00  0.9600E+02
      3.921  0.0000E+00  0.9600E+02
      4.021  0.0000E+00  0.9600E+02
      4.120  0.0000E+00  0.9600E+02
      4.220  0.0000E+00  0.9600E+02
      4.320  0.0000E+00  0.9600E+02
      4.419  0.0000E+00  0.9600E+02
      4.519  0.0000E+00  0.9600E+02
      4.619  0.0000E+00  0.9600E+02
      4.718  0.0000E+00  0.9600E+02
      4.818  0.0000E+00  0.9600E+02
      4.917  0.0000E+00  0.9600E+02
      5.017  0.0000E+00  0.9600E+02
