 running on   36 total cores
 distrk:  each k-point on   36 cores,    1 groups
 distr:  one band on    6 cores,    6 groups
 using from now: INCAR     
 vasp.5.4.4.18Apr17-6-g9f103f2a35 (build May 31 2018 21:15:54) complex          
  
 POSCAR found type information on POSCAR  C 
 POSCAR found :  1 types and      18 ions
 scaLAPACK will be used

 ----------------------------------------------------------------------------- 
|                                                                             |
|  ADVICE TO THIS USER RUNNING 'VASP/VAMP'   (HEAR YOUR MASTER'S VOICE ...):  |
|                                                                             |
|      You have switched on vdW-DFT.                                          |
|      This routine was written and supplied by Jiri Klimes.                  |
|      We recommed that you carefully read and cite the following             |
|      publication                                                            |
|      J. Klimes, D.R. Bowler, A. Michelides                                  |
|        J. Phys.: Cond Matt. 22 022201 (2010)                                |
|      J. Klimes, D.R. Bowler, A. Michelides                                  |
|        Phys. Rev. B. 83, 195131 (2011)                                      |
|      and references therein.                                                |
|                                                                             |
 ----------------------------------------------------------------------------- 


 ----------------------------------------------------------------------------- 
|                                                                             |
|  ADVICE TO THIS USER RUNNING 'VASP/VAMP'   (HEAR YOUR MASTER'S VOICE ...):  |
|                                                                             |
|      You have a (more or less) 'large supercell' and for larger cells       |
|      it might be more efficient to use real space projection opertators     |
|      So try LREAL= Auto  in the INCAR   file.                               |
|      Mind:          For very  accurate calculation you might also keep the  |
|      reciprocal projection scheme          (i.e. LREAL=.FALSE.)             |
|                                                                             |
 ----------------------------------------------------------------------------- 

 LDA part: xc-table for Pade appr. of Perdew
 POSCAR, INCAR and KPOINTS ok, starting setup
 FFT: planning ...
 WAVECAR not read
 entering main loop
       N       E                     dE             d eps       ncg     rms          rms(c)
Total rVV10 correction in eV:      1.4541308    72.8332558
DAV:   1     0.775676030910E+03    0.77568E+03   -0.30701E+04 21456   0.153E+03
DAV:   2    -0.583050646053E+02   -0.83398E+03   -0.79282E+03 35760   0.290E+02
DAV:   3    -0.202970895286E+03   -0.14467E+03   -0.14397E+03 25236   0.130E+02
DAV:   4    -0.207868761745E+03   -0.48979E+01   -0.48821E+01 25524   0.311E+01
DAV:   5    -0.208015567399E+03   -0.14681E+00   -0.14661E+00 29424   0.506E+00    0.181E+01
Total rVV10 correction in eV:      1.4729991    72.8334804
DAV:   6    -0.181976601346E+03    0.26039E+02   -0.63600E+00 25656   0.135E+01    0.123E+01
Total rVV10 correction in eV:      1.5171311    72.8332557
DAV:   7    -0.179977928065E+03    0.19987E+01   -0.10652E+01 25764   0.140E+01    0.310E+00
Total rVV10 correction in eV:      1.5233915    72.8332557
DAV:   8    -0.180015288932E+03   -0.37361E-01   -0.24717E-01 26616   0.285E+00    0.167E+00
Total rVV10 correction in eV:      1.5373593    72.8332557
DAV:   9    -0.180004252555E+03    0.11036E-01   -0.84077E-02 23592   0.186E+00    0.286E-01
Total rVV10 correction in eV:      1.5418636    72.8332557
DAV:  10    -0.179996104740E+03    0.81478E-02   -0.12045E-02 23784   0.568E-01    0.248E-01
Total rVV10 correction in eV:      1.5543712    72.8491553
DAV:  11    -0.179952712501E+03    0.43392E-01   -0.35676E-02 23940   0.748E-01    0.120E-01
Total rVV10 correction in eV:      1.5550672    72.8734725
DAV:  12    -0.179960220870E+03   -0.75084E-02   -0.92206E-03 23544   0.396E-01    0.759E-02
Total rVV10 correction in eV:      1.5538083    72.8688321
DAV:  13    -0.179974171110E+03   -0.13950E-01   -0.13783E-02 22560   0.475E-01    0.769E-02
Total rVV10 correction in eV:      1.5551322    72.8676865
DAV:  14    -0.179973303716E+03    0.86739E-03   -0.25558E-03 23880   0.318E-01    0.542E-02
Total rVV10 correction in eV:      1.5553812    72.8579895
DAV:  15    -0.179975030152E+03   -0.17264E-02   -0.27306E-04 22440   0.992E-02    0.455E-02
Total rVV10 correction in eV:      1.5557248    72.8465682
DAV:  16    -0.179977031575E+03   -0.20014E-02   -0.38449E-04 21420   0.959E-02    0.186E-02
Total rVV10 correction in eV:      1.5556689    72.8403050
DAV:  17    -0.179978839336E+03   -0.18078E-02   -0.18683E-04 21456   0.149E-01    0.200E-02
Total rVV10 correction in eV:      1.5561065    72.8363298
DAV:  18    -0.179979926561E+03   -0.10872E-02   -0.64771E-05 21600   0.667E-02    0.478E-03
Total rVV10 correction in eV:      1.5564823    72.8340487
DAV:  19    -0.179980479989E+03   -0.55343E-03   -0.21106E-05 21360   0.301E-02    0.271E-03
Total rVV10 correction in eV:      1.5565838    72.8335831
DAV:  20    -0.179980528417E+03   -0.48427E-04   -0.20556E-05 22716   0.210E-02    0.871E-04
Total rVV10 correction in eV:      1.5566391    72.8333961
DAV:  21    -0.179980563996E+03   -0.35579E-04   -0.40942E-06 21672   0.991E-03    0.509E-04
Total rVV10 correction in eV:      1.5566590    72.8333096
DAV:  22    -0.179980576474E+03   -0.12478E-04   -0.21024E-06 22608   0.643E-03    0.123E-04
Total rVV10 correction in eV:      1.5566667    72.8332739
DAV:  23    -0.179980583639E+03   -0.71652E-05   -0.40410E-07 21792   0.313E-03    0.642E-05
Total rVV10 correction in eV:      1.5566673    72.8332603
DAV:  24    -0.179980585908E+03   -0.22693E-05   -0.76898E-08 22380   0.195E-03    0.274E-05
Total rVV10 correction in eV:      1.5566671    72.8332577
DAV:  25    -0.179980586113E+03   -0.20461E-06   -0.21389E-08 22128   0.132E-03    0.102E-05
Total rVV10 correction in eV:      1.5566671    72.8332565
DAV:  26    -0.179980586192E+03   -0.79490E-07   -0.22291E-08 20544   0.139E-03    0.472E-06
Total rVV10 correction in eV:      1.5566671    72.8332563
DAV:  27    -0.179980586201E+03   -0.83510E-08   -0.12345E-08 22116   0.104E-03
Total rVV10 correction in eV:      1.5566670    72.8332562
Total rVV10 correction in eV:      1.5566671    72.8332562
   1 F= -.17998059E+03 E0= -.17998056E+03  d E =-.439368E-04
