mesh: [    21,    21,     1 ]
nqpoint: 48     
reciprocal_lattice:
- [   0.23474178,  -0.40658472,   0.00000000 ] # a*
- [   0.23474178,   0.40658472,   0.00000000 ] # b*
- [   0.00000000,   0.00000000,   0.05000000 ] # c*
natom:   2      
lattice:
- [     2.130000000000000,    -1.229756000000000,     0.000000000000000 ] # a
- [     2.130000000000000,     1.229756000000000,     0.000000000000000 ] # b
- [     0.000000000000000,     0.000000000000000,    20.000000000000000 ] # c
points:
- symbol: C  # 1
  coordinates: [  0.000000000000000,  0.000000000000000,  0.000000000000000 ]
  mass: 12.010700
- symbol: C  # 2
  coordinates: [  0.333333000000000,  0.333333000000000,  0.000000000000000 ]
  mass: 12.010700

phonon:
- q-position: [    0.0000000,    0.0000000,    0.0000000 ]
  distance_from_gamma:  0.000000000
  weight: 1    
  band:
  - # 1
    frequency:    -0.0085107058
  - # 2
    frequency:    -0.0085107054
  - # 3
    frequency:     0.0046571623
  - # 4
    frequency:    25.8653860311
  - # 5
    frequency:    45.4082390012
  - # 6
    frequency:    45.4082413475

- q-position: [    0.0476190,    0.0000000,    0.0000000 ]
  distance_from_gamma:  0.022356361
  weight: 6    
  band:
  - # 1
    frequency:    -0.2778831652
  - # 2
    frequency:     3.2287921315
  - # 3
    frequency:     5.1146411762
  - # 4
    frequency:    25.8470523307
  - # 5
    frequency:    45.4432775185
  - # 6
    frequency:    45.5867207373

- q-position: [    0.0952381,    0.0000000,    0.0000000 ]
  distance_from_gamma:  0.044712723
  weight: 6    
  band:
  - # 1
    frequency:     0.4768965759
  - # 2
    frequency:     6.3442560456
  - # 3
    frequency:    10.1184029367
  - # 4
    frequency:    25.7780136333
  - # 5
    frequency:    45.5140966264
  - # 6
    frequency:    46.0652800280

- q-position: [    0.1428571,    0.0000000,    0.0000000 ]
  distance_from_gamma:  0.067069084
  weight: 6    
  band:
  - # 1
    frequency:     1.5529574569
  - # 2
    frequency:     9.2461525272
  - # 3
    frequency:    14.9129228768
  - # 4
    frequency:    25.6200957082
  - # 5
    frequency:    45.5313745552
  - # 6
    frequency:    46.6926875990

- q-position: [    0.1904762,    0.0000000,    0.0000000 ]
  distance_from_gamma:  0.089425446
  weight: 6    
  band:
  - # 1
    frequency:     2.9377690381
  - # 2
    frequency:    11.8601662586
  - # 3
    frequency:    19.4235175019
  - # 4
    frequency:    25.3211994752
  - # 5
    frequency:    45.3850586519
  - # 6
    frequency:    47.2704699664

- q-position: [    0.2380952,    0.0000000,    0.0000000 ]
  distance_from_gamma:  0.111781807
  weight: 6    
  band:
  - # 1
    frequency:     4.6111392281
  - # 2
    frequency:    14.1473229140
  - # 3
    frequency:    23.6065465744
  - # 4
    frequency:    24.8282548470
  - # 5
    frequency:    44.9853454402
  - # 6
    frequency:    47.6046041727

- q-position: [    0.2857143,    0.0000000,    0.0000000 ]
  distance_from_gamma:  0.134138168
  weight: 6    
  band:
  - # 1
    frequency:     6.5112459550
  - # 2
    frequency:    16.1042480872
  - # 3
    frequency:    24.0999626086
  - # 4
    frequency:    27.4501944056
  - # 5
    frequency:    44.2981512763
  - # 6
    frequency:    47.5440687166

- q-position: [    0.3333333,    0.0000000,    0.0000000 ]
  distance_from_gamma:  0.156494530
  weight: 6    
  band:
  - # 1
    frequency:     8.5578093583
  - # 2
    frequency:    17.7480170783
  - # 3
    frequency:    23.1189065512
  - # 4
    frequency:    30.9666264215
  - # 5
    frequency:    43.3692907075
  - # 6
    frequency:    47.0006368002

- q-position: [    0.3809524,    0.0000000,    0.0000000 ]
  distance_from_gamma:  0.178850891
  weight: 6    
  band:
  - # 1
    frequency:    10.6445404733
  - # 2
    frequency:    19.0842174834
  - # 3
    frequency:    21.9078625122
  - # 4
    frequency:    34.1750113239
  - # 5
    frequency:    42.3354006034
  - # 6
    frequency:    45.9532394365

- q-position: [    0.4285714,    0.0000000,    0.0000000 ]
  distance_from_gamma:  0.201207252
  weight: 6    
  band:
  - # 1
    frequency:    12.5998270779
  - # 2
    frequency:    20.0704577868
  - # 3
    frequency:    20.5733856027
  - # 4
    frequency:    37.0711665242
  - # 5
    frequency:    41.4155669058
  - # 6
    frequency:    44.4495337382

- q-position: [    0.4761905,    0.0000000,    0.0000000 ]
  distance_from_gamma:  0.223563614
  weight: 6    
  band:
  - # 1
    frequency:    14.0168520544
  - # 2
    frequency:    19.4779707938
  - # 3
    frequency:    20.6096279499
  - # 4
    frequency:    39.4907624379
  - # 5
    frequency:    40.8639428128
  - # 6
    frequency:    42.7083000576

- q-position: [    0.0952381,    0.0476190,    0.0000000 ]
  distance_from_gamma:  0.038722353
  weight: 6    
  band:
  - # 1
    frequency:     0.1906894926
  - # 2
    frequency:     5.5915805774
  - # 3
    frequency:     8.7522453445
  - # 4
    frequency:    25.8032932427
  - # 5
    frequency:    45.4945761208
  - # 6
    frequency:    45.9159893800

- q-position: [    0.1428571,    0.0476190,    0.0000000 ]
  distance_from_gamma:  0.059149371
  weight: 12   
  band:
  - # 1
    frequency:     1.1308102814
  - # 2
    frequency:     8.4047873337
  - # 3
    frequency:    13.1388884132
  - # 4
    frequency:    25.6893030088
  - # 5
    frequency:    45.5322518856
  - # 6
    frequency:    46.4690029099

- q-position: [    0.1904762,    0.0476190,    0.0000000 ]
  distance_from_gamma:  0.080607006
  weight: 12   
  band:
  - # 1
    frequency:     2.3386617195
  - # 2
    frequency:    11.0972357104
  - # 3
    frequency:    17.5222146059
  - # 4
    frequency:    25.4594889788
  - # 5
    frequency:    45.4540245192
  - # 6
    frequency:    47.0671097440

- q-position: [    0.2380952,    0.0476190,    0.0000000 ]
  distance_from_gamma:  0.102449717
  weight: 12   
  band:
  - # 1
    frequency:     3.8553622937
  - # 2
    frequency:    13.5161448604
  - # 3
    frequency:    21.6972027841
  - # 4
    frequency:    25.0610046632
  - # 5
    frequency:    45.1576646083
  - # 6
    frequency:    47.5112928691

- q-position: [    0.2857143,    0.0476190,    0.0000000 ]
  distance_from_gamma:  0.124474951
  weight: 12   
  band:
  - # 1
    frequency:     5.6294127780
  - # 2
    frequency:    15.6133557069
  - # 3
    frequency:    24.4466282940
  - # 4
    frequency:    25.5907787500
  - # 5
    frequency:    44.5802035666
  - # 6
    frequency:    47.6279510740

- q-position: [    0.3333333,    0.0476190,    0.0000000 ]
  distance_from_gamma:  0.146600464
  weight: 12   
  band:
  - # 1
    frequency:     7.5906041244
  - # 2
    frequency:    17.3896247165
  - # 3
    frequency:    23.5867919439
  - # 4
    frequency:    29.1859719545
  - # 5
    frequency:    43.7280341757
  - # 6
    frequency:    47.2980462612

- q-position: [    0.3809524,    0.0476190,    0.0000000 ]
  distance_from_gamma:  0.168786826
  weight: 12   
  band:
  - # 1
    frequency:     9.6492776710
  - # 2
    frequency:    18.8597524421
  - # 3
    frequency:    22.4823886798
  - # 4
    frequency:    32.4912476412
  - # 5
    frequency:    42.6950695225
  - # 6
    frequency:    46.4686159904

- q-position: [    0.4285714,    0.0476190,    0.0000000 ]
  distance_from_gamma:  0.191012834
  weight: 12   
  band:
  - # 1
    frequency:    11.6775206890
  - # 2
    frequency:    20.0116701247
  - # 3
    frequency:    21.1890198775
  - # 4
    frequency:    35.5110100746
  - # 5
    frequency:    41.6675740098
  - # 6
    frequency:    45.1530213845

- q-position: [    0.4761905,    0.0476190,    0.0000000 ]
  distance_from_gamma:  0.213266094
  weight: 12   
  band:
  - # 1
    frequency:    13.4267830455
  - # 2
    frequency:    19.9022105195
  - # 3
    frequency:    20.7761933733
  - # 4
    frequency:    38.1790718944
  - # 5
    frequency:    40.9162957036
  - # 6
    frequency:    43.4466526502

- q-position: [    0.5238095,    0.0476190,    0.0000000 ]
  distance_from_gamma:  0.235538882
  weight: 6    
  band:
  - # 1
    frequency:    14.2411642859
  - # 2
    frequency:    19.2455887158
  - # 3
    frequency:    21.0489112012
  - # 4
    frequency:    39.6943857567
  - # 5
    frequency:    40.8353176475
  - # 6
    frequency:    42.0419355965

- q-position: [    0.1904762,    0.0952381,    0.0000000 ]
  distance_from_gamma:  0.077444705
  weight: 6    
  band:
  - # 1
    frequency:     2.1261036089
  - # 2
    frequency:    10.9771557817
  - # 3
    frequency:    16.7107050417
  - # 4
    frequency:    25.5022871213
  - # 5
    frequency:    45.4621130457
  - # 6
    frequency:    46.9906653521

- q-position: [    0.2380952,    0.0952381,    0.0000000 ]
  distance_from_gamma:  0.097449118
  weight: 12   
  band:
  - # 1
    frequency:     3.4429825088
  - # 2
    frequency:    13.5082896231
  - # 3
    frequency:    20.3874805649
  - # 4
    frequency:    25.1697570922
  - # 5
    frequency:    45.2039834046
  - # 6
    frequency:    47.4431783707

- q-position: [    0.2857143,    0.0952381,    0.0000000 ]
  distance_from_gamma:  0.118298743
  weight: 12   
  band:
  - # 1
    frequency:     5.0363882399
  - # 2
    frequency:    15.7740316298
  - # 3
    frequency:    23.9798062791
  - # 4
    frequency:    24.6443505040
  - # 5
    frequency:    44.6791785253
  - # 6
    frequency:    47.6427731004

- q-position: [    0.3333333,    0.0952381,    0.0000000 ]
  distance_from_gamma:  0.139615430
  weight: 12   
  band:
  - # 1
    frequency:     6.8462284281
  - # 2
    frequency:    17.7068452613
  - # 3
    frequency:    23.8904200149
  - # 4
    frequency:    27.4055568575
  - # 5
    frequency:    43.8643622337
  - # 6
    frequency:    47.4466457145

- q-position: [    0.3809524,    0.0952381,    0.0000000 ]
  distance_from_gamma:  0.161214012
  weight: 12   
  band:
  - # 1
    frequency:     8.7977037741
  - # 2
    frequency:    19.3085893531
  - # 3
    frequency:    22.8952380788
  - # 4
    frequency:    30.6354027353
  - # 5
    frequency:    42.8160995554
  - # 6
    frequency:    46.7731027552

- q-position: [    0.4285714,    0.0952381,    0.0000000 ]
  distance_from_gamma:  0.182994702
  weight: 12   
  band:
  - # 1
    frequency:    10.7919834417
  - # 2
    frequency:    20.5926903434
  - # 3
    frequency:    21.6842340286
  - # 4
    frequency:    33.6566470889
  - # 5
    frequency:    41.6849815361
  - # 6
    frequency:    45.6067941547

- q-position: [    0.4761905,    0.0952381,    0.0000000 ]
  distance_from_gamma:  0.204899434
  weight: 12   
  band:
  - # 1
    frequency:    12.6675129473
  - # 2
    frequency:    20.3625935946
  - # 3
    frequency:    21.5337393360
  - # 4
    frequency:    36.4217649003
  - # 5
    frequency:    40.7261972227
  - # 6
    frequency:    43.9985810760

- q-position: [    0.5238095,    0.0952381,    0.0000000 ]
  distance_from_gamma:  0.226892285
  weight: 12   
  band:
  - # 1
    frequency:    14.0340246054
  - # 2
    frequency:    19.2825757921
  - # 3
    frequency:    22.0481745017
  - # 4
    frequency:    38.5674435821
  - # 5
    frequency:    40.4421412238
  - # 6
    frequency:    42.1224073324

- q-position: [    0.2857143,    0.1428571,    0.0000000 ]
  distance_from_gamma:  0.116167058
  weight: 6    
  band:
  - # 1
    frequency:     4.8246630671
  - # 2
    frequency:    15.9857539228
  - # 3
    frequency:    23.2853346671
  - # 4
    frequency:    24.7082781828
  - # 5
    frequency:    44.6980113813
  - # 6
    frequency:    47.6421003199

- q-position: [    0.3333333,    0.1428571,    0.0000000 ]
  distance_from_gamma:  0.135988434
  weight: 12   
  band:
  - # 1
    frequency:     6.4344096703
  - # 2
    frequency:    18.2321660835
  - # 3
    frequency:    24.0388549977
  - # 4
    frequency:    26.1531236860
  - # 5
    frequency:    43.8939329516
  - # 6
    frequency:    47.5058726776

- q-position: [    0.3809524,    0.1428571,    0.0000000 ]
  distance_from_gamma:  0.156494526
  weight: 12   
  band:
  - # 1
    frequency:     8.2124554585
  - # 2
    frequency:    20.1186951907
  - # 3
    frequency:    23.1419967212
  - # 4
    frequency:    28.9833704286
  - # 5
    frequency:    42.8177736083
  - # 6
    frequency:    46.9279715821

- q-position: [    0.4285714,    0.1428571,    0.0000000 ]
  distance_from_gamma:  0.177448114
  weight: 12   
  band:
  - # 1
    frequency:    10.0836568688
  - # 2
    frequency:    21.6251037497
  - # 3
    frequency:    22.0256914878
  - # 4
    frequency:    31.7665844229
  - # 5
    frequency:    41.5834272081
  - # 6
    frequency:    45.8664648483

- q-position: [    0.4761905,    0.1428571,    0.0000000 ]
  distance_from_gamma:  0.198707683
  weight: 12   
  band:
  - # 1
    frequency:    11.9390280987
  - # 2
    frequency:    20.7464967870
  - # 3
    frequency:    22.7631622555
  - # 4
    frequency:    34.4566281564
  - # 5
    frequency:    40.4089020986
  - # 6
    frequency:    44.3453607351

- q-position: [    0.5238095,    0.1428571,    0.0000000 ]
  distance_from_gamma:  0.220184621
  weight: 12   
  band:
  - # 1
    frequency:    13.5581477136
  - # 2
    frequency:    19.4877399317
  - # 3
    frequency:    23.5042222570
  - # 4
    frequency:    36.8569645905
  - # 5
    frequency:    39.6887453049
  - # 6
    frequency:    42.4596545252

- q-position: [    0.5714286,    0.1428571,    0.0000000 ]
  distance_from_gamma:  0.241821019
  weight: 6    
  band:
  - # 1
    frequency:    14.3245145069
  - # 2
    frequency:    18.8439210916
  - # 3
    frequency:    23.7676527406
  - # 4
    frequency:    37.9347564450
  - # 5
    frequency:    40.3506611374
  - # 6
    frequency:    40.6080529923

- q-position: [    0.3809524,    0.1904762,    0.0000000 ]
  distance_from_gamma:  0.154889411
  weight: 6    
  band:
  - # 1
    frequency:     8.0022688718
  - # 2
    frequency:    20.5726753360
  - # 3
    frequency:    23.2238755608
  - # 4
    frequency:    28.2519300240
  - # 5
    frequency:    42.8047216102
  - # 6
    frequency:    46.9746155039

- q-position: [    0.4285714,    0.1904762,    0.0000000 ]
  distance_from_gamma:  0.174608760
  weight: 12   
  band:
  - # 1
    frequency:     9.6860397387
  - # 2
    frequency:    22.1988649826
  - # 3
    frequency:    22.5758058570
  - # 4
    frequency:    30.3898604121
  - # 5
    frequency:    41.4919385431
  - # 6
    frequency:    45.9814283650

- q-position: [    0.4761905,    0.1904762,    0.0000000 ]
  distance_from_gamma:  0.194898235
  weight: 12   
  band:
  - # 1
    frequency:    11.4149323268
  - # 2
    frequency:    20.9943946985
  - # 3
    frequency:    24.1281762923
  - # 4
    frequency:    32.6482642981
  - # 5
    frequency:    40.1297192971
  - # 6
    frequency:    44.5257590144

- q-position: [    0.5238095,    0.1904762,    0.0000000 ]
  distance_from_gamma:  0.215596937
  weight: 12   
  band:
  - # 1
    frequency:    13.0671220469
  - # 2
    frequency:    19.7051623659
  - # 3
    frequency:    25.2029713991
  - # 4
    frequency:    34.9537175667
  - # 5
    frequency:    39.0199540396
  - # 6
    frequency:    42.6756280884

- q-position: [    0.5714286,    0.1904762,    0.0000000 ]
  distance_from_gamma:  0.236597485
  weight: 12   
  band:
  - # 1
    frequency:    14.3132431603
  - # 2
    frequency:    18.6442749513
  - # 3
    frequency:    25.7704767814
  - # 4
    frequency:    36.7237464650
  - # 5
    frequency:    38.8841952502
  - # 6
    frequency:    40.5980371720

- q-position: [    0.4761905,    0.2380952,    0.0000000 ]
  distance_from_gamma:  0.193611763
  weight: 6    
  band:
  - # 1
    frequency:    11.2238278287
  - # 2
    frequency:    21.0795315021
  - # 3
    frequency:    24.8246084310
  - # 4
    frequency:    31.8044311490
  - # 5
    frequency:    40.0200265488
  - # 6
    frequency:    44.5804240316

- q-position: [    0.5238095,    0.2380952,    0.0000000 ]
  distance_from_gamma:  0.213266089
  weight: 12   
  band:
  - # 1
    frequency:    12.7657233438
  - # 2
    frequency:    19.8348892084
  - # 3
    frequency:    26.6065262095
  - # 4
    frequency:    33.4418148519
  - # 5
    frequency:    38.6307211017
  - # 6
    frequency:    42.7700891390

- q-position: [    0.5714286,    0.2380952,    0.0000000 ]
  distance_from_gamma:  0.233407260
  weight: 12   
  band:
  - # 1
    frequency:    14.1730918927
  - # 2
    frequency:    18.6036647664
  - # 3
    frequency:    27.7339582349
  - # 4
    frequency:    35.2548628569
  - # 5
    frequency:    37.7360967107
  - # 6
    frequency:    40.6818398689

- q-position: [    0.6190476,    0.2380952,    0.0000000 ]
  distance_from_gamma:  0.253919449
  weight: 6    
  band:
  - # 1
    frequency:    14.9044592776
  - # 2
    frequency:    17.9304762834
  - # 3
    frequency:    28.1218288465
  - # 4
    frequency:    36.1230988031
  - # 5
    frequency:    38.1970926703
  - # 6
    frequency:    38.9174263737

- q-position: [    0.5714286,    0.2857143,    0.0000000 ]
  distance_from_gamma:  0.232334116
  weight: 6    
  band:
  - # 1
    frequency:    14.1002646772
  - # 2
    frequency:    18.6056458237
  - # 3
    frequency:    28.7407846654
  - # 4
    frequency:    34.3890474265
  - # 5
    frequency:    37.3500592245
  - # 6
    frequency:    40.7065844933

- q-position: [    0.6190476,    0.2857143,    0.0000000 ]
  distance_from_gamma:  0.251943391
  weight: 12   
  band:
  - # 1
    frequency:    15.2680645757
  - # 2
    frequency:    17.4824088542
  - # 3
    frequency:    30.0259130356
  - # 4
    frequency:    35.4517718436
  - # 5
    frequency:    36.8659981079
  - # 6
    frequency:    38.6120213582

- q-position: [   -0.3333333,   -0.6666667,    0.0000000 ]
  distance_from_gamma:  0.271056468
  weight: 2    
  band:
  - # 1
    frequency:    16.3680927182
  - # 2
    frequency:    16.3680927182
  - # 3
    frequency:    31.1395865712
  - # 4
    frequency:    35.4768932687
  - # 5
    frequency:    37.0767448503
  - # 6
    frequency:    37.0767448503
