    2    2   40    1
  0.5238761E+02  0.2459512E-09  0.2459512E-09  0.2000000E-08  0.5000000E-15
  1.000000000000000E-004
  CAR 
 bilayer_graphene_AA                     
      8    150      8
 
  0.0000000E+00  0.0000000E+00  0.0000000E+00  0.6666667E-02
    1      -22.178419   1.000000
    2      -10.297048   1.000000
    3       -5.594994   1.000000
    4       -5.594935   1.000000
    5        0.530229   0.000000
    6        1.324333   0.000000
    7        1.684853   0.000000
    8        2.596460   0.000000
 
  0.1020408E-01  0.1020408E-01  0.0000000E+00  0.6666667E-02
    1      -22.175943   1.000000
    2      -10.294084   1.000000
    3       -5.605354   1.000000
    4       -5.600453   1.000000
    5        0.533586   0.000000
    6        1.327735   0.000000
    7        1.688294   0.000000
    8        2.599872   0.000000
 
  0.2040816E-01  0.2040816E-01  0.0000000E+00  0.6666667E-02
    1      -22.168515   1.000000
    2      -10.285194   1.000000
    3       -5.636324   1.000000
    4       -5.616922   1.000000
    5        0.543657   0.000000
    6        1.337942   0.000000
    7        1.698618   0.000000
    8        2.610108   0.000000
 
  0.3061224E-01  0.3061224E-01  0.0000000E+00  0.6666667E-02
    1      -22.156135   1.000000
    2      -10.270382   1.000000
    3       -5.687617   1.000000
    4       -5.644148   1.000000
    5        0.560442   0.000000
    6        1.354951   0.000000
    7        1.715824   0.000000
    8        2.627168   0.000000
 
  0.4081633E-01  0.4081633E-01  0.0000000E+00  0.6666667E-02
    1      -22.138805   1.000000
    2      -10.249653   1.000000
    3       -5.758713   1.000000
    4       -5.681754   1.000000
    5        0.583943   0.000000
    6        1.378762   0.000000
    7        1.739914   0.000000
    8        2.651050   0.000000
 
  0.5102041E-01  0.5102041E-01  0.0000000E+00  0.6666667E-02
    1      -22.116529   1.000000
    2      -10.223010   1.000000
    3       -5.848965   1.000000
    4       -5.729246   1.000000
    5        0.614160   0.000000
    6        1.409375   0.000000
    7        1.770886   0.000000
    8        2.681754   0.000000
 
  0.6122449E-01  0.6122449E-01  0.0000000E+00  0.6666667E-02
    1      -22.089310   1.000000
    2      -10.190453   1.000000
    3       -5.957529   1.000000
    4       -5.786054   1.000000
    5        0.651094   0.000000
    6        1.446786   0.000000
    7        1.808741   0.000000
    8        2.719278   0.000000
 
  0.7142857E-01  0.7142857E-01  0.0000000E+00  0.6666667E-02
    1      -22.057149   1.000000
    2      -10.152020   1.000000
    3       -6.083478   1.000000
    4       -5.851488   1.000000
    5        0.694746   0.000000
    6        1.490993   0.000000
    7        1.853480   0.000000
    8        2.763619   0.000000
 
  0.8163265E-01  0.8163265E-01  0.0000000E+00  0.6666667E-02
    1      -22.020054   1.000000
    2      -10.107712   1.000000
    3       -6.225772   1.000000
    4       -5.924823   1.000000
    5        0.745117   0.000000
    6        1.541993   0.000000
    7        1.905102   0.000000
    8        2.814776   0.000000
 
  0.9183673E-01  0.9183673E-01  0.0000000E+00  0.6666667E-02
    1      -21.978033   1.000000
    2      -10.057543   1.000000
    3       -6.383364   1.000000
    4       -6.005283   1.000000
    5        0.802205   0.000000
    6        1.599781   0.000000
    7        1.963607   0.000000
    8        2.872744   0.000000
 
  0.1020408E+00  0.1020408E+00  0.0000000E+00  0.6666667E-02
    1      -21.931091   1.000000
    2      -10.001546   1.000000
    3       -6.555147   1.000000
    4       -6.092094   1.000000
    5        0.866011   0.000000
    6        1.664352   0.000000
    7        2.028996   0.000000
    8        2.937519   0.000000
 
  0.1122449E+00  0.1122449E+00  0.0000000E+00  0.6666667E-02
    1      -21.879236   1.000000
    2       -9.939736   1.000000
    3       -6.739992   1.000000
    4       -6.184432   1.000000
    5        0.936532   0.000000
    6        1.735701   0.000000
    7        2.101269   0.000000
    8        3.009097   0.000000
 
  0.1224490E+00  0.1224490E+00  0.0000000E+00  0.6666667E-02
    1      -21.822474   1.000000
    2       -9.872138   1.000000
    3       -6.936742   1.000000
    4       -6.281508   1.000000
    5        1.013767   0.000000
    6        1.813820   0.000000
    7        2.180425   0.000000
    8        3.087471   0.000000
 
  0.1326531E+00  0.1326531E+00  0.0000000E+00  0.6666667E-02
    1      -21.760816   1.000000
    2       -9.798781   1.000000
    3       -7.144335   1.000000
    4       -6.382602   1.000000
    5        1.097714   0.000000
    6        1.898701   0.000000
    7        2.266464   0.000000
    8        3.172633   0.000000
 
  0.1428571E+00  0.1428571E+00  0.0000000E+00  0.6666667E-02
    1      -21.694272   1.000000
    2       -9.719697   1.000000
    3       -7.361750   1.000000
    4       -6.486943   1.000000
    5        1.188368   0.000000
    6        1.990331   0.000000
    7        2.359387   0.000000
    8        3.264572   0.000000
 
  0.1530612E+00  0.1530612E+00  0.0000000E+00  0.6666667E-02
    1      -21.622856   1.000000
    2       -9.634926   1.000000
    3       -7.587954   1.000000
    4       -6.593823   1.000000
    5        1.285726   0.000000
    6        2.088698   0.000000
    7        2.459191   0.000000
    8        3.363273   0.000000
 
  0.1632653E+00  0.1632653E+00  0.0000000E+00  0.6666667E-02
    1      -21.546580   1.000000
    2       -9.544516   1.000000
    3       -7.822027   1.000000
    4       -6.702602   1.000000
    5        1.389781   0.000000
    6        2.193782   0.000000
    7        2.565877   0.000000
    8        3.468717   0.000000
 
  0.1734694E+00  0.1734694E+00  0.0000000E+00  0.6666667E-02
    1      -21.465456   1.000000
    2       -9.448508   1.000000
    3       -8.063041   1.000000
    4       -6.812665   1.000000
    5        1.500529   0.000000
    6        2.305561   0.000000
    7        2.679443   0.000000
    8        3.580874   0.000000
 
  0.1836735E+00  0.1836735E+00  0.0000000E+00  0.6666667E-02
    1      -21.379499   1.000000
    2       -9.346945   1.000000
    3       -8.310165   1.000000
    4       -6.923424   1.000000
    5        1.617962   0.000000
    6        2.424002   0.000000
    7        2.799890   0.000000
    8        3.699700   0.000000
 
  0.1938776E+00  0.1938776E+00  0.0000000E+00  0.6666667E-02
    1      -21.288724   1.000000
    2       -9.239896   1.000000
    3       -8.562603   1.000000
    4       -7.034354   1.000000
    5        1.742071   0.000000
    6        2.549058   0.000000
    7        2.927214   0.000000
    8        3.825119   0.000000
 
  0.2040816E+00  0.2040816E+00  0.0000000E+00  0.6666667E-02
    1      -21.193150   1.000000
    2       -9.127407   1.000000
    3       -8.819612   1.000000
    4       -7.144979   1.000000
    5        1.872849   0.000000
    6        2.680663   0.000000
    7        3.061414   0.000000
    8        3.957000   0.000000
 
  0.2142857E+00  0.2142857E+00  0.0000000E+00  0.6666667E-02
    1      -21.092797   1.000000
    2       -9.080549   1.000000
    3       -9.009583   1.000000
    4       -7.254825   1.000000
    5        2.010283   0.000000
    6        2.818708   0.000000
    7        3.202489   0.000000
    8        4.095067   0.000000
 
  0.2244898E+00  0.2244898E+00  0.0000000E+00  0.6666667E-02
    1      -20.987681   1.000000
    2       -9.344731   1.000000
    3       -8.886485   1.000000
    4       -7.363475   1.000000
    5        2.154362   0.000000
    6        2.963012   0.000000
    7        3.350435   0.000000
    8        4.238652   0.000000
 
  0.2346939E+00  0.2346939E+00  0.0000000E+00  0.6666667E-02
    1      -20.877827   1.000000
    2       -9.611592   1.000000
    3       -8.758205   1.000000
    4       -7.470557   1.000000
    5        2.305071   0.000000
    6        3.113239   0.000000
    7        3.505247   0.000000
    8        4.385566   0.000000
 
  0.2448980E+00  0.2448980E+00  0.0000000E+00  0.6666667E-02
    1      -20.763264   1.000000
    2       -9.880589   1.000000
    3       -8.624845   1.000000
    4       -7.575737   1.000000
    5        2.462392   0.000000
    6        3.268670   0.000000
    7        3.666919   0.000000
    8        4.523087   0.000000
 
  0.2551020E+00  0.2551020E+00  0.0000000E+00  0.6666667E-02
    1      -20.644011   1.000000
    2      -10.151215   1.000000
    3       -8.486522   1.000000
    4       -7.678674   1.000000
    5        2.626304   0.000000
    6        3.427459   0.000000
    7        3.835442   0.000000
    8        4.510976   0.000000
 
  0.2653061E+00  0.2653061E+00  0.0000000E+00  0.6666667E-02
    1      -20.520102   1.000000
    2      -10.422985   1.000000
    3       -8.343369   1.000000
    4       -7.779097   1.000000
    5        2.796780   0.000000
    6        3.583117   0.000000
    7        4.010799   0.000000
    8        4.282710   0.000000
 
  0.2755102E+00  0.2755102E+00  0.0000000E+00  0.6666667E-02
    1      -20.391572   1.000000
    2      -10.695490   1.000000
    3       -8.195537   1.000000
    4       -7.876749   1.000000
    5        2.973787   0.000000
    6        3.697465   0.000000
    7        4.070541   0.000000
    8        4.192962   0.000000
 
  0.2857143E+00  0.2857143E+00  0.0000000E+00  0.6666667E-02
    1      -20.258447   1.000000
    2      -10.968297   1.000000
    3       -8.043192   1.000000
    4       -7.971378   1.000000
    5        3.157279   0.000000
    6        3.603516   0.000000
    7        4.066755   0.000000
    8        4.381877   0.000000
 
  0.2959184E+00  0.2959184E+00  0.0000000E+00  0.6666667E-02
    1      -20.120774   1.000000
    2      -11.241047   1.000000
    3       -8.062777   1.000000
    4       -7.886536   1.000000
    5        3.347194   0.000000
    6        3.356107   0.000000
    7        4.220431   0.000000
    8        4.577415   0.000000
 
  0.3061224E+00  0.3061224E+00  0.0000000E+00  0.6666667E-02
    1      -19.978592   1.000000
    2      -11.513356   1.000000
    3       -8.150726   1.000000
    4       -7.725780   1.000000
    5        3.081003   0.000000
    6        3.543440   0.000000
    7        4.407389   0.000000
    8        4.779195   0.000000
 
  0.3163265E+00  0.3163265E+00  0.0000000E+00  0.6666667E-02
    1      -19.831952   1.000000
    2      -11.784911   1.000000
    3       -8.235065   1.000000
    4       -7.561233   1.000000
    5        2.799223   0.000000
    6        3.745868   0.000000
    7        4.607586   0.000000
    8        4.985366   0.000000
 
  0.3265306E+00  0.3265306E+00  0.0000000E+00  0.6666667E-02
    1      -19.680909   1.000000
    2      -12.055404   1.000000
    3       -8.315625   1.000000
    4       -7.393167   1.000000
    5        2.515732   0.000000
    6        3.954227   0.000000
    7        4.816904   0.000000
    8        5.161242   0.000000
 
  0.3367347E+00  0.3367347E+00  0.0000000E+00  0.6666667E-02
    1      -19.525548   1.000000
    2      -12.324545   1.000000
    3       -8.392277   1.000000
    4       -7.221961   1.000000
    5        2.232643   0.000000
    6        4.168014   0.000000
    7        5.034005   0.000000
    8        5.160767   0.000000
 
  0.3469388E+00  0.3469388E+00  0.0000000E+00  0.6666667E-02
    1      -19.365914   1.000000
    2      -12.592002   1.000000
    3       -8.464856   1.000000
    4       -7.048074   1.000000
    5        1.951362   0.000000
    6        4.386078   0.000000
    7        5.135112   0.000000
    8        5.258316   0.000000
 
  0.3571429E+00  0.3571429E+00  0.0000000E+00  0.6666667E-02
    1      -19.202108   1.000000
    2      -12.857489   1.000000
    3       -8.533248   1.000000
    4       -6.872016   1.000000
    5        1.673013   0.000000
    6        4.605002   0.000000
    7        5.114280   0.000000
    8        5.489532   0.000000
 
  0.3673469E+00  0.3673469E+00  0.0000000E+00  0.6666667E-02
    1      -19.034239   1.000000
    2      -13.120742   1.000000
    3       -8.597350   1.000000
    4       -6.694404   1.000000
    5        1.398686   0.000000
    6        4.810276   0.000000
    7        5.114531   0.000000
    8        5.727475   0.000000
 
  0.3775510E+00  0.3775510E+00  0.0000000E+00  0.6666667E-02
    1      -18.862432   1.000000
    2      -13.381461   1.000000
    3       -8.657060   1.000000
    4       -6.516052   1.000000
    5        1.129539   0.000000
    6        4.937554   0.000000
    7        5.200712   0.000000
    8        5.972007   0.000000
 
  0.3877551E+00  0.3877551E+00  0.0000000E+00  0.6666667E-02
    1      -18.686869   1.000000
    2      -13.639325   1.000000
    3       -8.712293   1.000000
    4       -6.337877   1.000000
    5        0.866823   0.000000
    6        4.957963   0.000000
    7        5.401899   0.000000
    8        6.223021   0.000000
 
  0.3979592E+00  0.3979592E+00  0.0000000E+00  0.6666667E-02
    1      -18.507766   1.000000
    2      -13.893990   1.000000
    3       -8.762980   1.000000
    4       -6.161056   1.000000
    5        0.611971   0.000000
    6        4.947240   0.000000
    7        5.642452   0.000000
    8        6.480413   0.000000
 
  0.4081633E+00  0.4081633E+00  0.0000000E+00  0.6666667E-02
    1      -18.325423   1.000000
    2      -14.145041   1.000000
    3       -8.809035   1.000000
    4       -5.987001   1.000000
    5        0.366682   0.000000
    6        4.930477   0.000000
    7        5.897370   0.000000
    8        6.744081   0.000000
 
  0.4183673E+00  0.4183673E+00  0.0000000E+00  0.6666667E-02
    1      -18.140254   1.000000
    2      -14.391948   1.000000
    3       -8.850386   1.000000
    4       -5.817545   1.000000
    5        0.132927   0.000000
    6        4.913000   0.000000
    7        6.161356   0.000000
    8        7.013910   0.000000
 
  0.4285714E+00  0.4285714E+00  0.0000000E+00  0.6666667E-02
    1      -17.952884   1.000000
    2      -14.634013   1.000000
    3       -8.887015   1.000000
    4       -5.654886   1.000000
    5       -0.086899   0.000000
    6        4.896451   0.000000
    7        6.432752   0.000000
    8        7.297094   0.000000
 
  0.4387755E+00  0.4387755E+00  0.0000000E+00  0.6666667E-02
    1      -17.764244   1.000000
    2      -14.870191   1.000000
    3       -8.918836   1.000000
    4       -5.501725   1.000000
    5       -0.289885   0.000000
    6        4.881530   0.000000
    7        6.710833   0.000000
    8        7.571496   0.000000
 
  0.4489796E+00  0.4489796E+00  0.0000000E+00  0.6666667E-02
    1      -17.575903   1.000000
    2      -15.098878   1.000000
    3       -8.945836   1.000000
    4       -5.361354   1.000000
    5       -0.472633   0.000000
    6        4.868602   0.000000
    7        6.995164   0.000000
    8        7.858882   0.000000
 
  0.4591837E+00  0.4591837E+00  0.0000000E+00  0.6666667E-02
    1      -17.390572   1.000000
    2      -15.317289   1.000000
    3       -8.967966   1.000000
    4       -5.237615   1.000000
    5       -0.631201   0.000000
    6        4.857833   0.000000
    7        7.285399   0.000000
    8        8.151628   0.000000
 
  0.4693878E+00  0.4693878E+00  0.0000000E+00  0.6666667E-02
    1      -17.213420   1.000000
    2      -15.520225   1.000000
    3       -8.985210   1.000000
    4       -5.134772   1.000000
    5       -0.761241   0.000000
    6        4.849347   0.000000
    7        7.581124   0.000000
    8        8.449251   0.000000
 
  0.4795918E+00  0.4795918E+00  0.0000000E+00  0.6666667E-02
    1      -17.054792   1.000000
    2      -15.697279   1.000000
    3       -8.997532   1.000000
    4       -5.057179   1.000000
    5       -0.858293   0.000000
    6        4.843261   0.000000
    7        7.881599   0.000000
    8        8.750733   0.000000
 
  0.4897959E+00  0.4897959E+00  0.0000000E+00  0.6666667E-02
    1      -16.935607   1.000000
    2      -15.827538   1.000000
    3       -9.004943   1.000000
    4       -5.008763   1.000000
    5       -0.918414   0.000000
    6        4.839572   0.000000
    7        8.184078   0.000000
    8        8.834337   0.000000
 
  0.5000000E+00  0.5000000E+00  0.0000000E+00  0.6666667E-02
    1      -16.889063   1.000000
    2      -15.877778   1.000000
    3       -9.007417   1.000000
    4       -4.992288   1.000000
    5       -0.938785   0.000000
    6        4.838356   0.000000
    7        8.425885   0.000000
    8        8.587942   0.000000
 
  0.5000000E+00  0.5000000E+00  0.0000000E+00  0.6666667E-02
    1      -16.889063   1.000000
    2      -15.877778   1.000000
    3       -9.007417   1.000000
    4       -4.992288   1.000000
    5       -0.938785   0.000000
    6        4.838356   0.000000
    7        8.425885   0.000000
    8        8.587942   0.000000
 
  0.5034014E+00  0.4965986E+00  0.0000000E+00  0.6666667E-02
    1      -16.888354   1.000000
    2      -15.877065   1.000000
    3       -9.011165   1.000000
    4       -4.991282   1.000000
    5       -0.939010   0.000000
    6        4.843412   0.000000
    7        8.426864   0.000000
    8        8.588980   0.000000
 
  0.5068027E+00  0.4931973E+00  0.0000000E+00  0.6666667E-02
    1      -16.886238   1.000000
    2      -15.874944   1.000000
    3       -9.022410   1.000000
    4       -4.988264   1.000000
    5       -0.939667   0.000000
    6        4.858563   0.000000
    7        8.429796   0.000000
    8        8.592090   0.000000
 
  0.5102041E+00  0.4897959E+00  0.0000000E+00  0.6666667E-02
    1      -16.882709   1.000000
    2      -15.871412   1.000000
    3       -9.041101   1.000000
    4       -4.983234   1.000000
    5       -0.940774   0.000000
    6        4.883761   0.000000
    7        8.434680   0.000000
    8        8.597274   0.000000
 
  0.5136055E+00  0.4863945E+00  0.0000000E+00  0.6666667E-02
    1      -16.877767   1.000000
    2      -15.866469   1.000000
    3       -9.067119   1.000000
    4       -4.976191   1.000000
    5       -0.942338   0.000000
    6        4.918902   0.000000
    7        8.441515   0.000000
    8        8.604531   0.000000
 
  0.5170068E+00  0.4829932E+00  0.0000000E+00  0.6666667E-02
    1      -16.871411   1.000000
    2      -15.860119   1.000000
    3       -9.100349   1.000000
    4       -4.967146   1.000000
    5       -0.944391   0.000000
    6        4.963848   0.000000
    7        8.450296   0.000000
    8        8.613856   0.000000
 
  0.5204082E+00  0.4795918E+00  0.0000000E+00  0.6666667E-02
    1      -16.863641   1.000000
    2      -15.852365   1.000000
    3       -9.140632   1.000000
    4       -4.956081   1.000000
    5       -0.946956   0.000000
    6        5.018431   0.000000
    7        8.461021   0.000000
    8        8.625248   0.000000
 
  0.5238096E+00  0.4761904E+00  0.0000000E+00  0.6666667E-02
    1      -16.854460   1.000000
    2      -15.843212   1.000000
    3       -9.187787   1.000000
    4       -4.943001   1.000000
    5       -0.950065   0.000000
    6        5.082441   0.000000
    7        8.473683   0.000000
    8        8.638703   0.000000
 
  0.5272109E+00  0.4727891E+00  0.0000000E+00  0.6666667E-02
    1      -16.843863   1.000000
    2      -15.832665   1.000000
    3       -9.241583   1.000000
    4       -4.927917   1.000000
    5       -0.953760   0.000000
    6        5.155660   0.000000
    7        8.488277   0.000000
    8        8.654219   0.000000
 
  0.5306123E+00  0.4693877E+00  0.0000000E+00  0.6666667E-02
    1      -16.831860   1.000000
    2      -15.820744   1.000000
    3       -9.301809   1.000000
    4       -4.910814   1.000000
    5       -0.958083   0.000000
    6        5.237804   0.000000
    7        8.504792   0.000000
    8        8.671786   0.000000
 
  0.5340137E+00  0.4659863E+00  0.0000000E+00  0.6666667E-02
    1      -16.818443   1.000000
    2      -15.807449   1.000000
    3       -9.368193   1.000000
    4       -4.891715   1.000000
    5       -0.963103   0.000000
    6        5.328594   0.000000
    7        8.523221   0.000000
    8        8.691402   0.000000
 
  0.5374150E+00  0.4625850E+00  0.0000000E+00  0.6666667E-02
    1      -16.803619   1.000000
    2      -15.792796   1.000000
    3       -9.440467   1.000000
    4       -4.870613   1.000000
    5       -0.968855   0.000000
    6        5.427738   0.000000
    7        8.543552   0.000000
    8        8.713060   0.000000
 
  0.5408164E+00  0.4591836E+00  0.0000000E+00  0.6666667E-02
    1      -16.787382   1.000000
    2      -15.776795   1.000000
    3       -9.518340   1.000000
    4       -4.847510   1.000000
    5       -0.975413   0.000000
    6        5.534911   0.000000
    7        8.565776   0.000000
    8        8.736752   0.000000
 
  0.5442178E+00  0.4557822E+00  0.0000000E+00  0.6666667E-02
    1      -16.769740   1.000000
    2      -15.759462   1.000000
    3       -9.601529   1.000000
    4       -4.822402   1.000000
    5       -0.982845   0.000000
    6        5.649767   0.000000
    7        8.589877   0.000000
    8        8.762471   0.000000
 
  0.5476191E+00  0.4523809E+00  0.0000000E+00  0.6666667E-02
    1      -16.750681   1.000000
    2      -15.740814   1.000000
    3       -9.689697   1.000000
    4       -4.795292   1.000000
    5       -0.991224   0.000000
    6        5.771988   0.000000
    7        8.615842   0.000000
    8        8.790208   0.000000
 
  0.5510205E+00  0.4489795E+00  0.0000000E+00  0.6666667E-02
    1      -16.730211   1.000000
    2      -15.720861   1.000000
    3       -9.782561   1.000000
    4       -4.766185   1.000000
    5       -1.000634   0.000000
    6        5.901198   0.000000
    7        8.643655   0.000000
    8        8.819955   0.000000
 
  0.5544219E+00  0.4455781E+00  0.0000000E+00  0.6666667E-02
    1      -16.708329   1.000000
    2      -15.699638   1.000000
    3       -9.879805   1.000000
    4       -4.735081   1.000000
    5       -1.011159   0.000000
    6        6.037045   0.000000
    7        8.673296   0.000000
    8        8.851699   0.000000
 
  0.5578232E+00  0.4421768E+00  0.0000000E+00  0.6666667E-02
    1      -16.685049   1.000000
    2      -15.677172   1.000000
    3       -9.981127   1.000000
    4       -4.701986   1.000000
    5       -1.022894   0.000000
    6        6.179152   0.000000
    7        8.704742   0.000000
    8        8.885429   0.000000
 
  0.5612246E+00  0.4387754E+00  0.0000000E+00  0.6666667E-02
    1      -16.660357   1.000000
    2      -15.653486   1.000000
    3      -10.086223   1.000000
    4       -4.666906   1.000000
    5       -1.035946   0.000000
    6        6.327130   0.000000
    7        8.737973   0.000000
    8        8.921132   0.000000
 
  0.5646260E+00  0.4353740E+00  0.0000000E+00  0.6666667E-02
    1      -16.634254   1.000000
    2      -15.628599   1.000000
    3      -10.194769   1.000000
    4       -4.629829   1.000000
    5       -1.050390   0.000000
    6        6.480619   0.000000
    7        8.772966   0.000000
    8        8.958800   0.000000
 
  0.5680273E+00  0.4319727E+00  0.0000000E+00  0.6666667E-02
    1      -16.606744   1.000000
    2      -15.602557   1.000000
    3      -10.306475   1.000000
    4       -4.590768   1.000000
    5       -1.066346   0.000000
    6        6.639223   0.000000
    7        8.809690   0.000000
    8        8.998418   0.000000
 
  0.5714287E+00  0.4285713E+00  0.0000000E+00  0.6666667E-02
    1      -16.577826   1.000000
    2      -15.575392   1.000000
    3      -10.421036   1.000000
    4       -4.549723   1.000000
    5       -1.083921   0.000000
    6        6.802551   0.000000
    7        8.848116   0.000000
    8        9.071788   0.000000
 
  0.5748301E+00  0.4251699E+00  0.0000000E+00  0.6666667E-02
    1      -16.547501   1.000000
    2      -15.547162   1.000000
    3      -10.538154   1.000000
    4       -4.506696   1.000000
    5       -1.103228   0.000000
    6        6.970211   0.000000
    7        8.888208   0.000000
    8        9.073172   0.000000
 
  0.5782314E+00  0.4217686E+00  0.0000000E+00  0.6666667E-02
    1      -16.515771   1.000000
    2      -15.517921   1.000000
    3      -10.657555   1.000000
    4       -4.461696   1.000000
    5       -1.124380   0.000000
    6        7.141770   0.000000
    7        8.929927   0.000000
    8        9.029886   0.000000
 
  0.5816328E+00  0.4183672E+00  0.0000000E+00  0.6666667E-02
    1      -16.482640   1.000000
    2      -15.487724   1.000000
    3      -10.778921   1.000000
    4       -4.414716   1.000000
    5       -1.147489   0.000000
    6        7.316809   0.000000
    7        8.973230   0.000000
    8        8.982683   0.000000
 
  0.5850342E+00  0.4149658E+00  0.0000000E+00  0.6666667E-02
    1      -16.448103   1.000000
    2      -15.456642   1.000000
    3      -10.901986   1.000000
    4       -4.365775   1.000000
    5       -1.172678   0.000000
    6        7.494883   0.000000
    7        8.931910   0.000000
    8        9.018077   0.000000
 
  0.5884356E+00  0.4115644E+00  0.0000000E+00  0.6666667E-02
    1      -16.412166   1.000000
    2      -15.424759   1.000000
    3      -11.026471   1.000000
    4       -4.314869   1.000000
    5       -1.200078   0.000000
    6        7.675490   0.000000
    7        8.878042   0.000000
    8        9.064406   0.000000
 
  0.5918369E+00  0.4081631E+00  0.0000000E+00  0.6666667E-02
    1      -16.374824   1.000000
    2      -15.392150   1.000000
    3      -11.152053   1.000000
    4       -4.262001   1.000000
    5       -1.229771   0.000000
    6        7.858157   0.000000
    7        8.821664   0.000000
    8        9.112168   0.000000
 
  0.5952383E+00  0.4047617E+00  0.0000000E+00  0.6666667E-02
    1      -16.336076   1.000000
    2      -15.358960   1.000000
    3      -11.278447   1.000000
    4       -4.207170   1.000000
    5       -1.261885   0.000000
    6        8.042314   0.000000
    7        8.763370   0.000000
    8        9.161298   0.000000
 
  0.5986397E+00  0.4013603E+00  0.0000000E+00  0.6666667E-02
    1      -16.295932   1.000000
    2      -15.325304   1.000000
    3      -11.405351   1.000000
    4       -4.150374   1.000000
    5       -1.296519   0.000000
    6        8.227350   0.000000
    7        8.703794   0.000000
    8        9.211720   0.000000
 
  0.6020410E+00  0.3979590E+00  0.0000000E+00  0.6666667E-02
    1      -16.254390   1.000000
    2      -15.291335   1.000000
    3      -11.532447   1.000000
    4       -4.091656   1.000000
    5       -1.333803   0.000000
    6        8.412529   0.000000
    7        8.643564   0.000000
    8        9.263360   0.000000
 
  0.6054424E+00  0.3945576E+00  0.0000000E+00  0.6666667E-02
    1      -16.211458   1.000000
    2      -15.257226   1.000000
    3      -11.659393   1.000000
    4       -4.030996   1.000000
    5       -1.373826   0.000000
    6        8.583302   0.000000
    7        8.597035   0.000000
    8        9.316127   0.000000
 
  0.6088438E+00  0.3911562E+00  0.0000000E+00  0.6666667E-02
    1      -16.167123   1.000000
    2      -15.223215   1.000000
    3      -11.785816   1.000000
    4       -3.968398   1.000000
    5       -1.416671   0.000000
    6        8.523610   0.000000
    7        8.779850   0.000000
    8        9.369926   0.000000
 
  0.6122451E+00  0.3877549E+00  0.0000000E+00  0.6666667E-02
    1      -16.121389   1.000000
    2      -15.189530   1.000000
    3      -11.911317   1.000000
    4       -3.903855   1.000000
    5       -1.462426   0.000000
    6        8.465045   0.000000
    7        8.959717   0.000000
    8        9.424650   0.000000
 
  0.6156465E+00  0.3843535E+00  0.0000000E+00  0.6666667E-02
    1      -16.074263   1.000000
    2      -15.156504   1.000000
    3      -12.035473   1.000000
    4       -3.837400   1.000000
    5       -1.511166   0.000000
    6        8.408120   0.000000
    7        9.134921   0.000000
    8        9.480177   0.000000
 
  0.6190479E+00  0.3809521E+00  0.0000000E+00  0.6666667E-02
    1      -16.025742   1.000000
    2      -15.124490   1.000000
    3      -12.157788   1.000000
    4       -3.769030   1.000000
    5       -1.562973   0.000000
    6        8.353310   0.000000
    7        9.303212   0.000000
    8        9.536372   0.000000
 
  0.6224492E+00  0.3775508E+00  0.0000000E+00  0.6666667E-02
    1      -15.975827   1.000000
    2      -15.093949   1.000000
    3      -12.277677   1.000000
    4       -3.698740   1.000000
    5       -1.617877   0.000000
    6        8.301044   0.000000
    7        9.461557   0.000000
    8        9.593088   0.000000
 
  0.6258506E+00  0.3741494E+00  0.0000000E+00  0.6666667E-02
    1      -15.924526   1.000000
    2      -15.065417   1.000000
    3      -12.394518   1.000000
    4       -3.626535   1.000000
    5       -1.675922   0.000000
    6        8.251693   0.000000
    7        9.606224   0.000000
    8        9.650161   0.000000
 
  0.6292520E+00  0.3707480E+00  0.0000000E+00  0.6666667E-02
    1      -15.871838   1.000000
    2      -15.039528   1.000000
    3      -12.507555   1.000000
    4       -3.552439   1.000000
    5       -1.737141   0.000000
    6        8.205585   0.000000
    7        9.707402   0.000000
    8        9.733814   0.000000
 
  0.6326533E+00  0.3673467E+00  0.0000000E+00  0.6666667E-02
    1      -15.817762   1.000000
    2      -15.017065   1.000000
    3      -12.615916   1.000000
    4       -3.476451   1.000000
    5       -1.801546   0.000000
    6        8.162999   0.000000
    7        9.764614   0.000000
    8        9.843234   0.000000
 
  0.6360547E+00  0.3639453E+00  0.0000000E+00  0.6666667E-02
    1      -15.762299   1.000000
    2      -14.998910   1.000000
    3      -12.718633   1.000000
    4       -3.398569   1.000000
    5       -1.869146   0.000000
    6        8.124161   0.000000
    7        9.821574   0.000000
    8        9.936529   0.000000
 