       N       E                     dE             d eps       ncg     rms          rms(c)
DAV:   1     0.558694442655E+02    0.55869E+02   -0.36075E+03  2400   0.985E+02
DAV:   2    -0.141222690500E+02   -0.69992E+02   -0.52940E+02  3720   0.123E+02
DAV:   3    -0.187271498664E+02   -0.46049E+01   -0.45714E+01  3264   0.522E+01
DAV:   4    -0.187638072518E+02   -0.36657E-01   -0.36641E-01  4328   0.507E+00
DAV:   5    -0.187638656071E+02   -0.58355E-04   -0.58355E-04  3584   0.150E-01    0.662E+00
DAV:   6    -0.177632257026E+02    0.10006E+01   -0.95294E-01  3696   0.711E+00    0.390E+00
DAV:   7    -0.173739903322E+02    0.38924E+00   -0.12709E+00  3792   0.803E+00    0.101E+00
DAV:   8    -0.173653201519E+02    0.86702E-02   -0.12475E-02  4032   0.108E+00    0.996E-02
DAV:   9    -0.173634996601E+02    0.18205E-02   -0.61903E-04  3536   0.147E-01    0.795E-02
DAV:  10    -0.173578470253E+02    0.56526E-02   -0.38392E-03  2904   0.321E-01    0.465E-02
DAV:  11    -0.173572997289E+02    0.54730E-03   -0.26807E-04  3128   0.928E-02    0.585E-02
DAV:  12    -0.173574711020E+02   -0.17137E-03   -0.12425E-04  3096   0.697E-02    0.230E-02
DAV:  13    -0.173582659994E+02   -0.79490E-03   -0.79283E-04  3088   0.114E-01    0.225E-02
DAV:  14    -0.173582853122E+02   -0.19313E-04   -0.52676E-05  3424   0.385E-02    0.131E-02
DAV:  15    -0.173585515600E+02   -0.26625E-03   -0.58197E-05  2984   0.310E-02    0.124E-02
DAV:  16    -0.173588543495E+02   -0.30279E-03   -0.18220E-05  3056   0.286E-02    0.916E-03
DAV:  17    -0.173588865122E+02   -0.32163E-04   -0.24882E-06  2992   0.102E-02    0.191E-03
DAV:  18    -0.173589357104E+02   -0.49198E-04   -0.96311E-07  2888   0.675E-03    0.548E-04
DAV:  19    -0.173589383323E+02   -0.26219E-05   -0.54422E-08  3472   0.142E-03    0.254E-04
DAV:  20    -0.173589401846E+02   -0.18524E-05   -0.29264E-08  2968   0.688E-04    0.376E-05
DAV:  21    -0.173589402594E+02   -0.74749E-07   -0.56328E-10  3976   0.148E-04    0.382E-05
DAV:  22    -0.173589402950E+02   -0.35577E-07   -0.21707E-10  2968   0.825E-05    0.209E-06
DAV:  23    -0.173589402965E+02   -0.15357E-08    0.18597E-11  3768   0.101E-05
   1 F= -.17358940E+02 E0= -.17358865E+02  d E =-.173589E+02
