C:graphene                              
           1
     2.130000   -1.229756    0.000000
     2.130000    1.229756    0.000000
     0.000000    0.000000   20.000000
   C 
   2
Direct configuration=     1
   0.01000000  0.02000000  0.00000000
   0.33333300  0.33333300  0.00000000
Direct configuration=     2
  -0.02155330 -0.03407882 -0.00000000
   0.36488630  0.38741182  0.00000000
Direct configuration=     3
   0.00482174  0.01112505 -0.00000000
   0.33851126  0.34220795  0.00000000
Direct configuration=     4
   0.00423547  0.01012024 -0.00000000
   0.33909753  0.34321276  0.00000000
Direct configuration=     5
   0.00442157  0.01043919 -0.00000000
   0.33891143  0.34289381  0.00000000
Direct configuration=     6
   0.00443597  0.01046387 -0.00000000
   0.33889703  0.34286913  0.00000000
Direct configuration=     7
   0.00589876  0.00920466 -0.00000000
   0.33743424  0.34412834  0.00000000
Direct configuration=     8
   0.00502689  0.00995519 -0.00000000
   0.33830611  0.34337781  0.00000000
Direct configuration=     9
   0.00500803  0.00998947 -0.00000000
   0.33832497  0.34334353  0.00000000
Direct configuration=    10
   0.00500175  0.01000088 -0.00000000
   0.33833125  0.34333212  0.00000000
