   2   2   0   0
  0.5238761E+02  0.2459512E-09  0.2459512E-09  0.2000000E-08  0.5000000E-15
  1.000000000000000E-004
  CAR 
 bilayer_graphene_AA                     
     12.10281182    -23.81085864  301     -2.61424194      1.00000000
    -23.811  0.0000E+00  0.0000E+00
    -23.691  0.0000E+00  0.0000E+00
    -23.571  0.0000E+00  0.0000E+00
    -23.452  0.0000E+00  0.0000E+00
    -23.332  0.0000E+00  0.0000E+00
    -23.212  0.0000E+00  0.0000E+00
    -23.093  0.0000E+00  0.0000E+00
    -22.973  0.0000E+00  0.0000E+00
    -22.853  0.0000E+00  0.0000E+00
    -22.733  0.0000E+00  0.0000E+00
    -22.614  0.0000E+00  0.0000E+00
    -22.494  0.0000E+00  0.0000E+00
    -22.374  0.0000E+00  0.0000E+00
    -22.255  0.0000E+00  0.0000E+00
    -22.135  0.2446E-01  0.2928E-02
    -22.015  0.1209E-01  0.5448E-02
    -21.895  0.8349E-02  0.6999E-02
    -21.776  0.7602E-02  0.8243E-02
    -21.656  0.5569E-02  0.9333E-02
    -21.536  0.3538E-02  0.1042E-01
    -21.417  0.5566E-02  0.1133E-01
    -21.297  0.3129E-02  0.1204E-01
    -21.177  0.5535E-02  0.1300E-01
    -21.057  0.5569E-02  0.1367E-01
    -20.938  0.5569E-02  0.1433E-01
    -20.818  0.5569E-02  0.1500E-01
    -20.698  0.5569E-02  0.1567E-01
    -20.579  0.5540E-02  0.1633E-01
    -20.459  0.3033E-02  0.1670E-01
    -20.339  0.2784E-02  0.1733E-01
    -20.219  0.5569E-02  0.1800E-01
    -20.100  0.5565E-02  0.1867E-01
    -19.980  0.1996E-02  0.1891E-01
    -19.860  0.8215E-07  0.1933E-01
    -19.741  0.2784E-02  0.2000E-01
    -19.621  0.5369E-02  0.2064E-01
    -19.501  0.2784E-02  0.2100E-01
    -19.382  0.2823E-02  0.2134E-01
    -19.262  0.1624E-02  0.2186E-01
    -19.142  0.2784E-02  0.2233E-01
    -19.022  0.5439E-02  0.2298E-01
    -18.903  0.4480E-07  0.2300E-01
    -18.783  0.2784E-02  0.2367E-01
    -18.663  0.5131E-02  0.2428E-01
    -18.544  0.5950E-09  0.2433E-01
    -18.424  0.2784E-02  0.2500E-01
    -18.304  0.2781E-02  0.2533E-01
    -18.184  0.2784E-02  0.2567E-01
    -18.065  0.2784E-02  0.2600E-01
    -17.945  0.2419E-02  0.2662E-01
    -17.825  0.6024E-04  0.2667E-01
    -17.706  0.2784E-02  0.2733E-01
    -17.586  0.1583E-02  0.2752E-01
    -17.466  0.0000E+00  0.2800E-01
    -17.346  0.5377E-02  0.2864E-01
    -17.227  0.8444E-04  0.2868E-01
    -17.107  0.2772E-02  0.2933E-01
    -16.987  0.2784E-02  0.2967E-01
    -16.868  0.2487E-01  0.3264E-01
    -16.748  0.1298E-01  0.3555E-01
    -16.628  0.1060E-01  0.3760E-01
    -16.508  0.7939E-02  0.3895E-01
    -16.389  0.8421E-02  0.4034E-01
    -16.269  0.5623E-02  0.4134E-01
    -16.149  0.8337E-02  0.4266E-01
    -16.030  0.3604E-02  0.4343E-01
    -15.910  0.8301E-02  0.4466E-01
    -15.790  0.2692E-01  0.4989E-01
    -15.670  0.1904E-01  0.5328E-01
    -15.551  0.1219E-01  0.5546E-01
    -15.431  0.8878E-02  0.5806E-01
    -15.311  0.1331E-01  0.6059E-01
    -15.192  0.1961E-01  0.6335E-01
    -15.072  0.1453E-01  0.6574E-01
    -14.952  0.1949E-01  0.6933E-01
    -14.832  0.2784E-02  0.7000E-01
    -14.713  0.2784E-02  0.7033E-01
    -14.593  0.5547E-02  0.7100E-01
    -14.473  0.8070E-06  0.7100E-01
    -14.354  0.2784E-02  0.7167E-01
    -14.234  0.2784E-02  0.7200E-01
    -14.114  0.3683E-02  0.7244E-01
    -13.994  0.0000E+00  0.7267E-01
    -13.875  0.5560E-02  0.7333E-01
    -13.755  0.9518E-03  0.7345E-01
    -13.635  0.1989E-02  0.7390E-01
    -13.516  0.2784E-02  0.7433E-01
    -13.396  0.5924E-04  0.7434E-01
    -13.276  0.0000E+00  0.7500E-01
    -13.156  0.1720E-01  0.7706E-01
    -13.037  0.6753E-02  0.7881E-01
    -12.917  0.8093E-02  0.7997E-01
    -12.797  0.7036E-02  0.8118E-01
    -12.678  0.2789E-02  0.8200E-01
    -12.558  0.6813E-02  0.8315E-01
    -12.438  0.5569E-02  0.8400E-01
    -12.318  0.1059E-01  0.8527E-01
    -12.199  0.2785E-02  0.8567E-01
    -12.079  0.5570E-02  0.8667E-01
    -11.959  0.5569E-02  0.8767E-01
    -11.840  0.5569E-02  0.8833E-01
    -11.720  0.5569E-02  0.8933E-01
    -11.600  0.8353E-02  0.9033E-01
    -11.480  0.5569E-02  0.9100E-01
    -11.361  0.8353E-02  0.9200E-01
    -11.241  0.4869E-02  0.9258E-01
    -11.121  0.5569E-02  0.9367E-01
    -11.002  0.5568E-02  0.9433E-01
    -10.882  0.5563E-02  0.9533E-01
    -10.762  0.5544E-02  0.9600E-01
    -10.643  0.8314E-02  0.9700E-01
    -10.523  0.2743E-02  0.9766E-01
    -10.403  0.1087E-01  0.9897E-01
    -10.283  0.1619E-01  0.1009E+00
    -10.164  0.2004E-01  0.1047E+00
    -10.044  0.1258E-01  0.1072E+00
     -9.924  0.1667E-01  0.1093E+00
     -9.805  0.1169E-01  0.1111E+00
     -9.685  0.1046E-01  0.1133E+00
     -9.565  0.1129E-01  0.1147E+00
     -9.445  0.8111E-02  0.1166E+00
     -9.326  0.1097E-01  0.1186E+00
     -9.206  0.8028E-02  0.1203E+00
     -9.086  0.1167E-01  0.1224E+00
     -8.967  0.2988E-01  0.1266E+00
     -8.847  0.1585E-01  0.1292E+00
     -8.727  0.8385E-02  0.1310E+00
     -8.607  0.5777E-02  0.1327E+00
     -8.488  0.6916E-02  0.1342E+00
     -8.368  0.5569E-02  0.1360E+00
     -8.248  0.1091E-01  0.1376E+00
     -8.129  0.8351E-02  0.1390E+00
     -8.009  0.1392E-01  0.1407E+00
     -7.889  0.6489E-02  0.1418E+00
     -7.769  0.5331E-02  0.1433E+00
     -7.650  0.1309E-01  0.1449E+00
     -7.530  0.8471E-02  0.1460E+00
     -7.410  0.8375E-02  0.1473E+00
     -7.291  0.8357E-02  0.1487E+00
     -7.171  0.5570E-02  0.1500E+00
     -7.051  0.6518E-02  0.1514E+00
     -6.931  0.5304E-02  0.1526E+00
     -6.812  0.4339E-02  0.1542E+00
     -6.692  0.1070E-01  0.1559E+00
     -6.572  0.8260E-02  0.1573E+00
     -6.453  0.8344E-02  0.1587E+00
     -6.333  0.1047E-01  0.1603E+00
     -6.213  0.1082E-01  0.1620E+00
     -6.093  0.6971E-02  0.1632E+00
     -5.974  0.1108E-01  0.1653E+00
     -5.854  0.8853E-02  0.1671E+00
     -5.734  0.1461E-01  0.1697E+00
     -5.615  0.2484E-01  0.1736E+00
     -5.495  0.5105E-02  0.1769E+00
     -5.375  0.7051E-04  0.1770E+00
     -5.255  0.2801E-02  0.1777E+00
     -5.136  0.1239E-02  0.1781E+00
     -5.016  0.5995E-02  0.1791E+00
     -4.896  0.1737E-01  0.1831E+00
     -4.777  0.1132E-01  0.1850E+00
     -4.657  0.8135E-02  0.1863E+00
     -4.537  0.8247E-02  0.1877E+00
     -4.417  0.3754E-02  0.1884E+00
     -4.298  0.8332E-02  0.1897E+00
     -4.178  0.2785E-02  0.1903E+00
     -4.058  0.5569E-02  0.1913E+00
     -3.939  0.2784E-02  0.1920E+00
     -3.819  0.2772E-02  0.1930E+00
     -3.699  0.4104E-02  0.1935E+00
     -3.579  0.2785E-02  0.1943E+00
     -3.460  0.2825E-02  0.1950E+00
     -3.340  0.2788E-02  0.1957E+00
     -3.220  0.5019E-02  0.1966E+00
     -3.101  0.2784E-02  0.1970E+00
     -2.981  0.4215E-02  0.1978E+00
     -2.861  0.2784E-02  0.1983E+00
     -2.742  0.5569E-02  0.1990E+00
     -2.622  0.1590E-02  0.1995E+00
     -2.502  0.2770E-02  0.2010E+00
     -2.382  0.5569E-02  0.2017E+00
     -2.263  0.3089E-02  0.2020E+00
     -2.143  0.5569E-02  0.2030E+00
     -2.023  0.3132E-02  0.2034E+00
     -1.904  0.2784E-02  0.2043E+00
     -1.784  0.5397E-02  0.2053E+00
     -1.664  0.5437E-02  0.2060E+00
     -1.544  0.8341E-02  0.2070E+00
     -1.425  0.3144E-02  0.2077E+00
     -1.305  0.8677E-02  0.2090E+00
     -1.185  0.8408E-02  0.2103E+00
     -1.066  0.1269E-01  0.2125E+00
     -0.946  0.3552E-01  0.2176E+00
     -0.826  0.5569E-02  0.2207E+00
     -0.706  0.2784E-02  0.2210E+00
     -0.587  0.5569E-02  0.2217E+00
     -0.467  0.2195E-02  0.2219E+00
     -0.347  0.2778E-02  0.2223E+00
     -0.228  0.2784E-02  0.2227E+00
     -0.108  0.1414E-02  0.2228E+00
      0.012  0.0000E+00  0.2233E+00
      0.132  0.1184E-02  0.2235E+00
      0.251  0.0000E+00  0.2240E+00
      0.371  0.2032E-02  0.2242E+00
      0.491  0.2784E-02  0.2247E+00
      0.610  0.2395E-01  0.2282E+00
      0.730  0.1119E-01  0.2303E+00
      0.850  0.5623E-02  0.2317E+00
      0.970  0.5984E-02  0.2330E+00
      1.089  0.5873E-02  0.2344E+00
      1.209  0.8348E-02  0.2357E+00
      1.329  0.1568E-01  0.2375E+00
      1.448  0.2096E-01  0.2418E+00
      1.568  0.1658E-01  0.2443E+00
      1.688  0.2093E-01  0.2472E+00
      1.808  0.2089E-01  0.2518E+00
      1.927  0.2226E-01  0.2553E+00
      2.047  0.1694E-01  0.2580E+00
      2.167  0.1944E-01  0.2607E+00
      2.286  0.1115E-01  0.2627E+00
      2.406  0.8369E-02  0.2647E+00
      2.526  0.1649E-01  0.2673E+00
      2.646  0.3357E-01  0.2717E+00
      2.765  0.1768E-01  0.2755E+00
      2.885  0.1491E-01  0.2788E+00
      3.005  0.1795E-01  0.2815E+00
      3.124  0.1968E-01  0.2844E+00
      3.244  0.8815E-02  0.2864E+00
      3.364  0.2136E-01  0.2899E+00
      3.484  0.6377E-02  0.2911E+00
      3.603  0.1252E-01  0.2938E+00
      3.723  0.1651E-01  0.2963E+00
      3.843  0.7908E-02  0.2979E+00
      3.962  0.1333E-01  0.2996E+00
      4.082  0.1378E-01  0.3016E+00
      4.202  0.8071E-02  0.3033E+00
      4.322  0.8835E-02  0.3054E+00
      4.441  0.1671E-01  0.3077E+00
      4.561  0.1067E-01  0.3089E+00
      4.681  0.8353E-02  0.3107E+00
      4.800  0.8306E-02  0.3117E+00
      4.920  0.3198E-01  0.3175E+00
      5.040  0.1310E-01  0.3206E+00
      5.160  0.2099E-01  0.3232E+00
      5.279  0.9245E-02  0.3248E+00
      5.399  0.9237E-02  0.3261E+00
      5.519  0.2815E-02  0.3270E+00
      5.638  0.3705E-02  0.3281E+00
      5.758  0.5637E-02  0.3293E+00
      5.878  0.2906E-02  0.3300E+00
      5.997  0.5532E-02  0.3317E+00
      6.117  0.2783E-02  0.3323E+00
      6.237  0.1107E-01  0.3337E+00
      6.357  0.5569E-02  0.3343E+00
      6.476  0.7113E-02  0.3355E+00
      6.596  0.7906E-04  0.3360E+00
      6.716  0.7928E-02  0.3373E+00
      6.835  0.2784E-02  0.3383E+00
      6.955  0.2827E-02  0.3387E+00
      7.075  0.8353E-02  0.3403E+00
      7.195  0.2784E-02  0.3407E+00
      7.314  0.1469E-01  0.3424E+00
      7.434  0.0000E+00  0.3427E+00
      7.554  0.5586E-02  0.3433E+00
      7.673  0.6646E-02  0.3448E+00
      7.793  0.2784E-02  0.3453E+00
      7.913  0.9545E-02  0.3465E+00
      8.033  0.3460E-01  0.3511E+00
      8.152  0.1560E-01  0.3542E+00
      8.272  0.8406E-02  0.3560E+00
      8.392  0.2818E-02  0.3573E+00
      8.511  0.2483E-01  0.3623E+00
      8.631  0.3752E-01  0.3678E+00
      8.751  0.2378E-01  0.3725E+00
      8.871  0.1717E-01  0.3764E+00
      8.990  0.2218E-01  0.3800E+00
      9.110  0.9412E-02  0.3825E+00
      9.230  0.5554E-02  0.3837E+00
      9.349  0.8359E-02  0.3850E+00
      9.469  0.8124E-02  0.3863E+00
      9.589  0.3569E-02  0.3871E+00
      9.709  0.4359E-02  0.3885E+00
      9.828  0.7924E-02  0.3899E+00
      9.948  0.1093E-01  0.3916E+00
     10.068  0.8359E-02  0.3927E+00
     10.187  0.1213E-01  0.3948E+00
     10.307  0.2355E-01  0.3982E+00
     10.427  0.5584E-02  0.3990E+00
     10.547  0.2784E-02  0.4000E+00
     10.666  0.0000E+00  0.4000E+00
     10.786  0.0000E+00  0.4000E+00
     10.906  0.0000E+00  0.4000E+00
     11.025  0.0000E+00  0.4000E+00
     11.145  0.0000E+00  0.4000E+00
     11.265  0.0000E+00  0.4000E+00
     11.385  0.0000E+00  0.4000E+00
     11.504  0.0000E+00  0.4000E+00
     11.624  0.0000E+00  0.4000E+00
     11.744  0.0000E+00  0.4000E+00
     11.863  0.0000E+00  0.4000E+00
     11.983  0.0000E+00  0.4000E+00
     12.103  0.0000E+00  0.4000E+00
