 vasp.5.4.4.18Apr17-6-g9f103f2a35 (build May 31 2018 21:15:54) complex          
  
 executed on          c7_intel_O1 date 2020.07.28  01:06:16
 running on    4 total cores
 distrk:  each k-point on    4 cores,    1 groups
 distr:  one band on NCORES_PER_BAND=   1 cores,    4 groups


--------------------------------------------------------------------------------------------------------


 INCAR:
 POTCAR:    PAW_PBE C 08Apr2002                   
 POTCAR:    PAW_PBE C 08Apr2002                   
   VRHFIN =C: s2p2                                                              
   LEXCH  = PE                                                                  
   EATOM  =   147.1560 eV,   10.8157 Ry                                         
                                                                                
   TITEL  = PAW_PBE C 08Apr2002                                                 
   LULTRA =        F    use ultrasoft PP ?                                      
   IUNSCR =        1    unscreen: 0-lin 1-nonlin 2-no                           
   RPACOR =    1.200    partial core radius                                     
   POMASS =   12.011; ZVAL   =    4.000    mass and valenz                      
   RCORE  =    1.500    outmost cutoff radius                                   
   RWIGS  =    1.630; RWIGS  =    0.863    wigner-seitz radius (au A)           
   ENMAX  =  400.000; ENMIN  =  300.000 eV                                      
   ICORE  =        2    local potential                                         
   LCOR   =        T    correct aug charges                                     
   LPAW   =        T    paw PP                                                  
   EAUG   =  644.873                                                            
   DEXC   =    0.000                                                            
   RMAX   =    1.529    core radius for proj-oper                               
   RAUG   =    1.300    factor for augmentation sphere                          
   RDEP   =    1.501    radius for radial grids                                 
   RDEPT  =    1.300    core radius for aug-charge                              
                                                                                
   Atomic configuration                                                         
    4 entries                                                                   
     n  l   j            E        occ.                                          
     1  0  0.50      -273.3789   2.0000                                         
     2  0  0.50       -13.7508   2.0000                                         
     2  1  0.50        -5.2854   2.0000                                         
     3  2  1.50        -5.4423   0.0000                                         
   Description                                                                  
     l       E           TYP  RCUT    TYP  RCUT                                 
     0    -13.7508458     23  1.200                                             
     0     -8.2022199     23  1.200                                             
     1     -5.2854383     23  1.500                                             
     1     34.0145650     23  1.500                                             
     2     -5.4423304      7  1.500                                             
  local pseudopotential read in
  partial core-charges read in
  partial kinetic energy density read in
  atomic valenz-charges read in
  non local Contribution for L=           0  read in
    real space projection operators read in
  non local Contribution for L=           0  read in
    real space projection operators read in
  non local Contribution for L=           1  read in
    real space projection operators read in
  non local Contribution for L=           1  read in
    real space projection operators read in
    PAW grid and wavefunctions read in
 
   number of l-projection  operators is LMAX  =           4
   number of lm-projection operators is LMMAX =           8
 
  PAW_PBE C 08Apr2002                   :
 energy of atom  1       EATOM= -147.1560
 kinetic energy error for atom=    0.0016 (will be added to EATOM!!)
 
 
 POSCAR: C2                                      
  positions in direct lattice
  No initial velocities read in
 exchange correlation table for  LEXCH =        8
   RHO(1)=    0.500       N(1)  =     2000
   RHO(2)=  100.500       N(2)  =     4000
 


--------------------------------------------------------------------------------------------------------


 ion  position               nearest neighbor table
   1  0.000  0.000  0.000-   2 1.42   2 1.42   2 1.42
   2  0.333  0.333  0.000-   1 1.42   1 1.42   1 1.42
 
  LATTYP: Found a hexagonal cell.
 ALAT       =     2.4595120000
 C/A-ratio  =     8.1316944174
  
  Lattice vectors:
  
 A1 = (   0.0000000000,  -2.4595120000,   0.0000000000)
 A2 = (  -2.1300000000,   1.2297560000,   0.0000000000)
 A3 = (   0.0000000000,   0.0000000000, -20.0000000000)


Analysis of symmetry for initial positions (statically):
=====================================================================
 Subroutine PRICEL returns:
 Original cell was already a primitive cell.
 

 Routine SETGRP: Setting up the symmetry group for a 
 hexagonal supercell.


 Subroutine GETGRP returns: Found 24 space group operations
 (whereof 12 operations were pure point group operations)
 out of a pool of 24 trial point group operations.


The static configuration has the point symmetry D_3h.
 The point group associated with its full space group is D_6h.


Analysis of symmetry for dynamics (positions and initial velocities):
=====================================================================
 Subroutine PRICEL returns:
 Original cell was already a primitive cell.
 

 Routine SETGRP: Setting up the symmetry group for a 
 hexagonal supercell.


 Subroutine GETGRP returns: Found 24 space group operations
 (whereof 12 operations were pure point group operations)
 out of a pool of 24 trial point group operations.


The dynamic configuration has the point symmetry D_3h.
 The point group associated with its full space group is D_6h.


 Subroutine INISYM returns: Found 24 space group operations
 (whereof 12 operations are pure point group operations),
 and found     1 'primitive' translations

 
 
 KPOINTS: k-points along high symmetry lines      
  interpolating k-points between supplied coordinates
  k-points in reciprocal lattice
Space group operators:
 irot       det(A)        alpha          n_x          n_y          n_z        tau_x        tau_y        tau_z
    1     1.000000     0.000000     1.000000     0.000000     0.000000     0.000000     0.000000     0.000000
    2    -1.000000    60.000000     0.000000     0.000000     1.000000     0.000000     0.000000     0.000000
    3     1.000000   120.000000     0.000000     0.000000     1.000000     0.000000     0.000000     0.000000
    4    -1.000000   180.000000     0.000000     0.000000     1.000000     0.000000     0.000000     0.000000
    5     1.000000   120.000000     0.000000     0.000000    -1.000000     0.000000     0.000000     0.000000
    6    -1.000000    60.000000     0.000000     0.000000    -1.000000     0.000000     0.000000     0.000000
    7    -1.000000   180.000000    -0.000000     1.000000     0.000000     0.000000     0.000000     0.000000
    8     1.000000   180.000000     0.500000    -0.866025     0.000000     0.000000     0.000000     0.000000
    9    -1.000000   180.000000     0.866025    -0.500000     0.000000     0.000000     0.000000     0.000000
   10     1.000000   180.000000     1.000000     0.000000     0.000000     0.000000     0.000000     0.000000
   11    -1.000000   180.000000     0.866025     0.500000     0.000000     0.000000     0.000000     0.000000
   12     1.000000   180.000000    -0.500000    -0.866025     0.000000     0.000000     0.000000     0.000000
   13    -1.000000     0.000000     1.000000     0.000000     0.000000     0.333333    -0.666667     0.000000
   14     1.000000    60.000000     0.000000     0.000000     1.000000     0.333333    -0.666667     0.000000
   15    -1.000000   120.000000     0.000000     0.000000     1.000000     0.333333    -0.666667     0.000000
   16     1.000000   180.000000     0.000000     0.000000     1.000000     0.333333    -0.666667     0.000000
   17    -1.000000   120.000000     0.000000     0.000000    -1.000000     0.333333    -0.666667     0.000000
   18     1.000000    60.000000     0.000000     0.000000    -1.000000     0.333333    -0.666667     0.000000
   19     1.000000   180.000000    -0.000000     1.000000     0.000000     0.333333    -0.666667     0.000000
   20    -1.000000   180.000000     0.500000    -0.866025     0.000000     0.333333    -0.666667     0.000000
   21     1.000000   180.000000     0.866025    -0.500000     0.000000     0.333333    -0.666667     0.000000
   22    -1.000000   180.000000     1.000000     0.000000     0.000000     0.333333    -0.666667     0.000000
   23     1.000000   180.000000     0.866025     0.500000     0.000000     0.333333    -0.666667     0.000000
   24    -1.000000   180.000000    -0.500000    -0.866025     0.000000     0.333333    -0.666667     0.000000


--------------------------------------------------------------------------------------------------------




 Dimension of arrays:
   k-points           NKPTS =    150   k-points in BZ     NKDIM =    150   number of bands    NBANDS=      8
   number of dos      NEDOS =    301   number of ions     NIONS =      2
   non local maximal  LDIM  =      4   non local SUM 2l+1 LMDIM =      8
   total plane-waves  NPLWV = 110592
   max r-space proj   IRMAX =      1   max aug-charges    IRDMAX=  99836
   dimension x,y,z NGX =    24 NGY =   24 NGZ =  192
   dimension x,y,z NGXF=    48 NGYF=   48 NGZF=  384
   support grid    NGXF=    96 NGYF=   96 NGZF=  768
   ions per type =               2
   NGX,Y,Z   is equivalent  to a cutoff of  16.22, 16.22, 15.96 a.u.
   NGXF,Y,Z  is equivalent  to a cutoff of  32.44, 32.44, 31.92 a.u.

 SYSTEM =  bilayer_graphene_AA                     
 POSCAR =  C2                                      

 Startparameter for this run:
   NWRITE =      2    write-flag & timer
   PREC   = accura    normal or accurate (medium, high low for compatibility)
   ISTART =      0    job   : 0-new  1-cont  2-samecut
   ICHARG =      2    charge: 1-file 2-atom 10-const
   ISPIN  =      1    spin polarized calculation?
   LNONCOLLINEAR =      F non collinear calculations
   LSORBIT =      F    spin-orbit coupling
   INIWAV =      1    electr: 0-lowe 1-rand  2-diag
   LASPH  =      F    aspherical Exc in radial PAW
   METAGGA=      F    non-selfconsistent MetaGGA calc.

 Electronic Relaxation 1
   ENCUT  =  800.0 eV  58.80 Ry    7.67 a.u.   5.67  5.67 46.12*2*pi/ulx,y,z
   ENINI  =  800.0     initial cutoff
   ENAUG  =  644.9 eV  augmentation charge cutoff
   NELM   =     60;   NELMIN=  5; NELMDL= -5     # of ELM steps 
   EDIFF  = 0.1E-07   stopping-criterion for ELM
   LREAL  =      F    real-space projection
   NLSPLINE    = F    spline interpolate recip. space projectors
   LCOMPAT=      F    compatible to vasp.4.4
   GGA_COMPAT  = T    GGA compatible to vasp.4.4-vasp.4.6
   LMAXPAW     = -100 max onsite density
   LMAXMIX     =    2 max onsite mixed and CHGCAR
   VOSKOWN=      0    Vosko Wilk Nusair interpolation
   ROPT   =    0.00000
 Ionic relaxation
   EDIFFG = -.1E-05   stopping-criterion for IOM
   NSW    =     40    number of steps for IOM
   NBLOCK =      1;   KBLOCK =     40    inner block; outer block 
   IBRION =      2    ionic relax: 0-MD 1-quasi-New 2-CG
   NFREE  =      1    steps in history (QN), initial steepest desc. (CG)
   ISIF   =      2    stress and relaxation
   IWAVPR =     11    prediction:  0-non 1-charg 2-wave 3-comb
   ISYM   =      2    0-nonsym 1-usesym 2-fastsym
   LCORR  =      T    Harris-Foulkes like correction to forces

   POTIM  = 0.5000    time-step for ionic-motion
   TEIN   =    0.0    initial temperature
   TEBEG  =    0.0;   TEEND  =   0.0 temperature during run
   SMASS  =  -3.00    Nose mass-parameter (am)
   estimated Nose-frequenzy (Omega)   =  0.10E-29 period in steps =****** mass=  -0.138E-27a.u.
   SCALEE = 1.0000    scale energy and forces
   NPACO  =    256;   APACO  = 16.0  distance and # of slots for P.C.
   PSTRESS=    0.0 pullay stress

  Mass of Ions in am
   POMASS =  12.01
  Ionic Valenz
   ZVAL   =   4.00
  Atomic Wigner-Seitz radii
   RWIGS  =  -1.00
  virtual crystal weights 
   VCA    =   1.00
   NELECT =       8.0000    total number of electrons
   NUPDOWN=      -1.0000    fix difference up-down

 DOS related values:
   EMIN   =  10.00;   EMAX   =-10.00  energy-range for DOS
   EFERMI =   0.00
   ISMEAR =     0;   SIGMA  =   0.01  broadening in eV -4-tet -1-fermi 0-gaus

 Electronic relaxation 2 (details)
   IALGO  =     38    algorithm
   LDIAG  =      T    sub-space diagonalisation (order eigenvalues)
   LSUBROT=      F    optimize rotation matrix (better conditioning)
   TURBO    =      0    0=normal 1=particle mesh
   IRESTART =      0    0=no restart 2=restart with 2 vectors
   NREBOOT  =      0    no. of reboots
   NMIN     =      0    reboot dimension
   EREF     =   0.00    reference energy to select bands
   IMIX   =      4    mixing-type and parameters
     AMIX     =   0.40;   BMIX     =  1.00
     AMIX_MAG =   1.60;   BMIX_MAG =  1.00
     AMIN     =   0.01
     WC   =   100.;   INIMIX=   1;  MIXPRE=   1;  MAXMIX= -45

 Intra band minimization:
   WEIMIN = 0.0010     energy-eigenvalue tresh-hold
   EBREAK =  0.31E-09  absolut break condition
   DEPER  =   0.30     relativ break condition  

   TIME   =   0.40     timestep for ELM

  volume/ion in A,a.u.               =      52.39       353.53
  Fermi-wavevector in a.u.,A,eV,Ry     =   0.694521  1.312454  6.562896  0.482359
  Thomas-Fermi vector in A             =   1.777037
 
 Write flags
   LWAVE        =      F    write WAVECAR
   LDOWNSAMPLE  =      F    k-point downsampling of WAVECAR
   LCHARG       =      T    write CHGCAR
   LVTOT        =      F    write LOCPOT, total local potential
   LVHAR        =      F    write LOCPOT, Hartree potential only
   LELF         =      F    write electronic localiz. function (ELF)
   LORBIT       =      0    0 simple, 1 ext, 2 COOP (PROOUT), +10 PAW based schemes


 Dipole corrections
   LMONO  =      F    monopole corrections only (constant potential shift)
   LDIPOL =      F    correct potential (dipole corrections)
   IDIPOL =      0    1-x, 2-y, 3-z, 4-all directions 
   EPSILON=  1.0000000 bulk dielectric constant

 Exchange correlation treatment:
   GGA     =    --    GGA type
   LEXCH   =     8    internal setting for exchange type
   VOSKOWN=      0    Vosko Wilk Nusair interpolation
   LHFCALC =     F    Hartree Fock is set to
   LHFONE  =     F    Hartree Fock one center treatment
   AEXX    =    0.0000 exact exchange contribution

 Linear response parameters
   LEPSILON=     F    determine dielectric tensor
   LRPA    =     F    only Hartree local field effects (RPA)
   LNABLA  =     F    use nabla operator in PAW spheres
   LVEL    =     F    velocity operator in full k-point grid
   LINTERFAST=   F  fast interpolation
   KINTER  =     0    interpolate to denser k-point grid
   CSHIFT  =0.1000    complex shift for real part using Kramers Kronig
   OMEGAMAX=  -1.0    maximum frequency
   DEG_THRESHOLD= 0.2000000E-02 threshold for treating states as degnerate
   RTIME   =   -0.100 relaxation time in fs
  (WPLASMAI=    0.000 imaginary part of plasma frequency in eV, 0.658/RTIME)
   DFIELD  = 0.0000000 0.0000000 0.0000000 field for delta impulse in time
 
 Orbital magnetization related:
   ORBITALMAG=     F  switch on orbital magnetization
   LCHIMAG   =     F  perturbation theory with respect to B field
   DQ        =  0.001000  dq finite difference perturbation B field
   LLRAUG    =     F  two centre corrections for induced B field



--------------------------------------------------------------------------------------------------------


 conjugate gradient relaxation of ions
 charge density and potential will be updated during run
 non-spin polarized calculation
 Variant of blocked Davidson
 Davidson routine will perform the subspace rotation
 perform sub-space diagonalisation
    after iterative eigenvector-optimisation
 modified Broyden-mixing scheme, WC =      100.0
 initial mixing is a Kerker type mixing with AMIX =  0.4000 and BMIX =      1.0000
 Hartree-type preconditioning will be used
 using additional bands            4
 reciprocal scheme for non local part
 use partial core corrections
 calculate Harris-corrections to forces 
   (improved forces if not selfconsistent)
 use gradient corrections 
 use of overlap-Matrix (Vanderbilt PP)
 Gauss-broadening in eV      SIGMA  =   0.01


--------------------------------------------------------------------------------------------------------


  energy-cutoff  :      800.00
  volume of cell :      104.78
      direct lattice vectors                 reciprocal lattice vectors
     2.130000000 -1.229756000  0.000000000     0.234741784 -0.406584721  0.000000000
     2.130000000  1.229756000  0.000000000     0.234741784  0.406584721  0.000000000
     0.000000000  0.000000000 20.000000000     0.000000000  0.000000000  0.050000000

  length of vectors
     2.459512110  2.459512110 20.000000000     0.469483589  0.469483589  0.050000000


 
 k-points in units of 2pi/SCALE and weight: k-points along high symmetry lines      
   0.00000000  0.00000000  0.00000000       0.007
   0.00479065 -0.00000000  0.00000000       0.007
   0.00958130 -0.00000000  0.00000000       0.007
   0.01437195  0.00000000  0.00000000       0.007
   0.01916259 -0.00000000  0.00000000       0.007
   0.02395324  0.00000000  0.00000000       0.007
   0.02874389  0.00000000  0.00000000       0.007
   0.03353454  0.00000000  0.00000000       0.007
   0.03832519 -0.00000000  0.00000000       0.007
   0.04311584 -0.00000000  0.00000000       0.007
   0.04790649  0.00000000  0.00000000       0.007
   0.05269714  0.00000000  0.00000000       0.007
   0.05748778  0.00000000  0.00000000       0.007
   0.06227843  0.00000000  0.00000000       0.007
   0.06706908  0.00000000  0.00000000       0.007
   0.07185973  0.00000000  0.00000000       0.007
   0.07665038 -0.00000000  0.00000000       0.007
   0.08144103 -0.00000000  0.00000000       0.007
   0.08623168 -0.00000000  0.00000000       0.007
   0.09102232 -0.00000000  0.00000000       0.007
   0.09581297  0.00000000  0.00000000       0.007
   0.10060362  0.00000000  0.00000000       0.007
   0.10539427  0.00000000  0.00000000       0.007
   0.11018492  0.00000000  0.00000000       0.007
   0.11497557  0.00000000  0.00000000       0.007
   0.11976622 -0.00000000  0.00000000       0.007
   0.12455686  0.00000000  0.00000000       0.007
   0.12934751  0.00000000  0.00000000       0.007
   0.13413816  0.00000000  0.00000000       0.007
   0.13892881  0.00000000  0.00000000       0.007
   0.14371946  0.00000000  0.00000000       0.007
   0.14851011  0.00000000  0.00000000       0.007
   0.15330076 -0.00000000  0.00000000       0.007
   0.15809141  0.00000000  0.00000000       0.007
   0.16288205 -0.00000000  0.00000000       0.007
   0.16767270 -0.00000000  0.00000000       0.007
   0.17246335 -0.00000000  0.00000000       0.007
   0.17725400  0.00000000  0.00000000       0.007
   0.18204465 -0.00000000  0.00000000       0.007
   0.18683530 -0.00000000  0.00000000       0.007
   0.19162595  0.00000000  0.00000000       0.007
   0.19641659 -0.00000000  0.00000000       0.007
   0.20120724  0.00000000  0.00000000       0.007
   0.20599789  0.00000000  0.00000000       0.007
   0.21078854  0.00000000  0.00000000       0.007
   0.21557919 -0.00000000  0.00000000       0.007
   0.22036984  0.00000000  0.00000000       0.007
   0.22516049 -0.00000000  0.00000000       0.007
   0.22995114  0.00000000  0.00000000       0.007
   0.23474178 -0.00000000  0.00000000       0.007
   0.23474178  0.00000000  0.00000000       0.007
   0.23474178 -0.00276589  0.00000000       0.007
   0.23474178 -0.00553178  0.00000000       0.007
   0.23474178 -0.00829766  0.00000000       0.007
   0.23474178 -0.01106355  0.00000000       0.007
   0.23474178 -0.01382944  0.00000000       0.007
   0.23474178 -0.01659533  0.00000000       0.007
   0.23474178 -0.01936122  0.00000000       0.007
   0.23474178 -0.02212710  0.00000000       0.007
   0.23474178 -0.02489299  0.00000000       0.007
   0.23474178 -0.02765888  0.00000000       0.007
   0.23474178 -0.03042477  0.00000000       0.007
   0.23474178 -0.03319066  0.00000000       0.007
   0.23474178 -0.03595654  0.00000000       0.007
   0.23474178 -0.03872243  0.00000000       0.007
   0.23474178 -0.04148832  0.00000000       0.007
   0.23474178 -0.04425421  0.00000000       0.007
   0.23474178 -0.04702010  0.00000000       0.007
   0.23474178 -0.04978598  0.00000000       0.007
   0.23474178 -0.05255187  0.00000000       0.007
   0.23474178 -0.05531776  0.00000000       0.007
   0.23474178 -0.05808365  0.00000000       0.007
   0.23474178 -0.06084954  0.00000000       0.007
   0.23474178 -0.06361542  0.00000000       0.007
   0.23474178 -0.06638131  0.00000000       0.007
   0.23474178 -0.06914720  0.00000000       0.007
   0.23474178 -0.07191309  0.00000000       0.007
   0.23474178 -0.07467898  0.00000000       0.007
   0.23474178 -0.07744486  0.00000000       0.007
   0.23474178 -0.08021075  0.00000000       0.007
   0.23474178 -0.08297664  0.00000000       0.007
   0.23474178 -0.08574253  0.00000000       0.007
   0.23474178 -0.08850842  0.00000000       0.007
   0.23474178 -0.09127430  0.00000000       0.007
   0.23474178 -0.09404019  0.00000000       0.007
   0.23474178 -0.09680608  0.00000000       0.007
   0.23474178 -0.09957197  0.00000000       0.007
   0.23474178 -0.10233786  0.00000000       0.007
   0.23474178 -0.10510374  0.00000000       0.007
   0.23474178 -0.10786963  0.00000000       0.007
   0.23474178 -0.11063552  0.00000000       0.007
   0.23474178 -0.11340141  0.00000000       0.007
   0.23474178 -0.11616730  0.00000000       0.007
   0.23474178 -0.11893318  0.00000000       0.007
   0.23474178 -0.12169907  0.00000000       0.007
   0.23474178 -0.12446496  0.00000000       0.007
   0.23474178 -0.12723085  0.00000000       0.007
   0.23474178 -0.12999674  0.00000000       0.007
   0.23474178 -0.13276262  0.00000000       0.007
   0.23474178 -0.13552851  0.00000000       0.007
   0.23474178 -0.13552851  0.00000000       0.007
   0.22995114 -0.13276262  0.00000000       0.007
   0.22516049 -0.12999674  0.00000000       0.007
   0.22036984 -0.12723085  0.00000000       0.007
   0.21557919 -0.12446496  0.00000000       0.007
   0.21078854 -0.12169907  0.00000000       0.007
   0.20599789 -0.11893318  0.00000000       0.007
   0.20120724 -0.11616730  0.00000000       0.007
   0.19641659 -0.11340141  0.00000000       0.007
   0.19162595 -0.11063552  0.00000000       0.007
   0.18683530 -0.10786963  0.00000000       0.007
   0.18204465 -0.10510374  0.00000000       0.007
   0.17725400 -0.10233786  0.00000000       0.007
   0.17246335 -0.09957197  0.00000000       0.007
   0.16767270 -0.09680608  0.00000000       0.007
   0.16288205 -0.09404019  0.00000000       0.007
   0.15809141 -0.09127430  0.00000000       0.007
   0.15330076 -0.08850842  0.00000000       0.007
   0.14851011 -0.08574253  0.00000000       0.007
   0.14371946 -0.08297664  0.00000000       0.007
   0.13892881 -0.08021075  0.00000000       0.007
   0.13413816 -0.07744486  0.00000000       0.007
   0.12934751 -0.07467898  0.00000000       0.007
   0.12455686 -0.07191309  0.00000000       0.007
   0.11976622 -0.06914720  0.00000000       0.007
   0.11497557 -0.06638131  0.00000000       0.007
   0.11018492 -0.06361542  0.00000000       0.007
   0.10539427 -0.06084954  0.00000000       0.007
   0.10060362 -0.05808365  0.00000000       0.007
   0.09581297 -0.05531776  0.00000000       0.007
   0.09102232 -0.05255187  0.00000000       0.007
   0.08623168 -0.04978598  0.00000000       0.007
   0.08144103 -0.04702010  0.00000000       0.007
   0.07665038 -0.04425421  0.00000000       0.007
   0.07185973 -0.04148832  0.00000000       0.007
   0.06706908 -0.03872243  0.00000000       0.007
   0.06227843 -0.03595654  0.00000000       0.007
   0.05748778 -0.03319066  0.00000000       0.007
   0.05269714 -0.03042477  0.00000000       0.007
   0.04790649 -0.02765888  0.00000000       0.007
   0.04311584 -0.02489299  0.00000000       0.007
   0.03832519 -0.02212710  0.00000000       0.007
   0.03353454 -0.01936122  0.00000000       0.007
   0.02874389 -0.01659533  0.00000000       0.007
   0.02395324 -0.01382944  0.00000000       0.007
   0.01916259 -0.01106355  0.00000000       0.007
   0.01437195 -0.00829766  0.00000000       0.007
   0.00958130 -0.00553178  0.00000000       0.007
   0.00479065 -0.00276589  0.00000000       0.007
  -0.00000000  0.00000000  0.00000000       0.007
 
 k-points in reciprocal lattice and weights: k-points along high symmetry lines      
   0.00000000  0.00000000  0.00000000       0.007
   0.01020408  0.01020408  0.00000000       0.007
   0.02040816  0.02040816  0.00000000       0.007
   0.03061224  0.03061224  0.00000000       0.007
   0.04081633  0.04081633  0.00000000       0.007
   0.05102041  0.05102041  0.00000000       0.007
   0.06122449  0.06122449  0.00000000       0.007
   0.07142857  0.07142857  0.00000000       0.007
   0.08163265  0.08163265  0.00000000       0.007
   0.09183673  0.09183673  0.00000000       0.007
   0.10204082  0.10204082  0.00000000       0.007
   0.11224490  0.11224490  0.00000000       0.007
   0.12244898  0.12244898  0.00000000       0.007
   0.13265306  0.13265306  0.00000000       0.007
   0.14285714  0.14285714  0.00000000       0.007
   0.15306122  0.15306122  0.00000000       0.007
   0.16326531  0.16326531  0.00000000       0.007
   0.17346939  0.17346939  0.00000000       0.007
   0.18367347  0.18367347  0.00000000       0.007
   0.19387755  0.19387755  0.00000000       0.007
   0.20408163  0.20408163  0.00000000       0.007
   0.21428571  0.21428571  0.00000000       0.007
   0.22448980  0.22448980  0.00000000       0.007
   0.23469388  0.23469388  0.00000000       0.007
   0.24489796  0.24489796  0.00000000       0.007
   0.25510204  0.25510204  0.00000000       0.007
   0.26530612  0.26530612  0.00000000       0.007
   0.27551020  0.27551020  0.00000000       0.007
   0.28571429  0.28571429  0.00000000       0.007
   0.29591837  0.29591837  0.00000000       0.007
   0.30612245  0.30612245  0.00000000       0.007
   0.31632653  0.31632653  0.00000000       0.007
   0.32653061  0.32653061  0.00000000       0.007
   0.33673469  0.33673469  0.00000000       0.007
   0.34693878  0.34693878  0.00000000       0.007
   0.35714286  0.35714286  0.00000000       0.007
   0.36734694  0.36734694  0.00000000       0.007
   0.37755102  0.37755102  0.00000000       0.007
   0.38775510  0.38775510  0.00000000       0.007
   0.39795918  0.39795918  0.00000000       0.007
   0.40816327  0.40816327  0.00000000       0.007
   0.41836735  0.41836735  0.00000000       0.007
   0.42857143  0.42857143  0.00000000       0.007
   0.43877551  0.43877551  0.00000000       0.007
   0.44897959  0.44897959  0.00000000       0.007
   0.45918367  0.45918367  0.00000000       0.007
   0.46938776  0.46938776  0.00000000       0.007
   0.47959184  0.47959184  0.00000000       0.007
   0.48979592  0.48979592  0.00000000       0.007
   0.50000000  0.50000000  0.00000000       0.007
   0.50000000  0.50000000  0.00000000       0.007
   0.50340137  0.49659863  0.00000000       0.007
   0.50680273  0.49319727  0.00000000       0.007
   0.51020410  0.48979590  0.00000000       0.007
   0.51360547  0.48639453  0.00000000       0.007
   0.51700684  0.48299316  0.00000000       0.007
   0.52040820  0.47959180  0.00000000       0.007
   0.52380957  0.47619043  0.00000000       0.007
   0.52721094  0.47278906  0.00000000       0.007
   0.53061231  0.46938769  0.00000000       0.007
   0.53401367  0.46598633  0.00000000       0.007
   0.53741504  0.46258496  0.00000000       0.007
   0.54081641  0.45918359  0.00000000       0.007
   0.54421778  0.45578222  0.00000000       0.007
   0.54761914  0.45238086  0.00000000       0.007
   0.55102051  0.44897949  0.00000000       0.007
   0.55442188  0.44557812  0.00000000       0.007
   0.55782324  0.44217676  0.00000000       0.007
   0.56122461  0.43877539  0.00000000       0.007
   0.56462598  0.43537402  0.00000000       0.007
   0.56802735  0.43197265  0.00000000       0.007
   0.57142871  0.42857129  0.00000000       0.007
   0.57483008  0.42516992  0.00000000       0.007
   0.57823145  0.42176855  0.00000000       0.007
   0.58163282  0.41836718  0.00000000       0.007
   0.58503418  0.41496582  0.00000000       0.007
   0.58843555  0.41156445  0.00000000       0.007
   0.59183692  0.40816308  0.00000000       0.007
   0.59523829  0.40476171  0.00000000       0.007
   0.59863965  0.40136035  0.00000000       0.007
   0.60204102  0.39795898  0.00000000       0.007
   0.60544239  0.39455761  0.00000000       0.007
   0.60884376  0.39115624  0.00000000       0.007
   0.61224512  0.38775488  0.00000000       0.007
   0.61564649  0.38435351  0.00000000       0.007
   0.61904786  0.38095214  0.00000000       0.007
   0.62244922  0.37755078  0.00000000       0.007
   0.62585059  0.37414941  0.00000000       0.007
   0.62925196  0.37074804  0.00000000       0.007
   0.63265333  0.36734667  0.00000000       0.007
   0.63605469  0.36394531  0.00000000       0.007
   0.63945606  0.36054394  0.00000000       0.007
   0.64285743  0.35714257  0.00000000       0.007
   0.64625880  0.35374120  0.00000000       0.007
   0.64966016  0.35033984  0.00000000       0.007
   0.65306153  0.34693847  0.00000000       0.007
   0.65646290  0.34353710  0.00000000       0.007
   0.65986427  0.34013573  0.00000000       0.007
   0.66326563  0.33673437  0.00000000       0.007
   0.66666700  0.33333300  0.00000000       0.007
   0.66666700  0.33333300  0.00000000       0.007
   0.65306155  0.32653029  0.00000000       0.007
   0.63945610  0.31972757  0.00000000       0.007
   0.62585065  0.31292486  0.00000000       0.007
   0.61224520  0.30612214  0.00000000       0.007
   0.59863976  0.29931943  0.00000000       0.007
   0.58503431  0.29251671  0.00000000       0.007
   0.57142886  0.28571400  0.00000000       0.007
   0.55782341  0.27891129  0.00000000       0.007
   0.54421796  0.27210857  0.00000000       0.007
   0.53061251  0.26530586  0.00000000       0.007
   0.51700706  0.25850314  0.00000000       0.007
   0.50340161  0.25170043  0.00000000       0.007
   0.48979616  0.24489771  0.00000000       0.007
   0.47619071  0.23809500  0.00000000       0.007
   0.46258527  0.23129229  0.00000000       0.007
   0.44897982  0.22448957  0.00000000       0.007
   0.43537437  0.21768686  0.00000000       0.007
   0.42176892  0.21088414  0.00000000       0.007
   0.40816347  0.20408143  0.00000000       0.007
   0.39455802  0.19727871  0.00000000       0.007
   0.38095257  0.19047600  0.00000000       0.007
   0.36734712  0.18367329  0.00000000       0.007
   0.35374167  0.17687057  0.00000000       0.007
   0.34013622  0.17006786  0.00000000       0.007
   0.32653078  0.16326514  0.00000000       0.007
   0.31292533  0.15646243  0.00000000       0.007
   0.29931988  0.14965971  0.00000000       0.007
   0.28571443  0.14285700  0.00000000       0.007
   0.27210898  0.13605429  0.00000000       0.007
   0.25850353  0.12925157  0.00000000       0.007
   0.24489808  0.12244886  0.00000000       0.007
   0.23129263  0.11564614  0.00000000       0.007
   0.21768718  0.10884343  0.00000000       0.007
   0.20408173  0.10204071  0.00000000       0.007
   0.19047629  0.09523800  0.00000000       0.007
   0.17687084  0.08843529  0.00000000       0.007
   0.16326539  0.08163257  0.00000000       0.007
   0.14965994  0.07482986  0.00000000       0.007
   0.13605449  0.06802714  0.00000000       0.007
   0.12244904  0.06122443  0.00000000       0.007
   0.10884359  0.05442171  0.00000000       0.007
   0.09523814  0.04761900  0.00000000       0.007
   0.08163269  0.04081629  0.00000000       0.007
   0.06802724  0.03401357  0.00000000       0.007
   0.05442180  0.02721086  0.00000000       0.007
   0.04081635  0.02040814  0.00000000       0.007
   0.02721090  0.01360543  0.00000000       0.007
   0.01360545  0.00680271  0.00000000       0.007
  -0.00000000  0.00000000  0.00000000       0.007
 
 position of ions in fractional coordinates (direct lattice) 
   0.00000000  0.00000000  0.00000000
   0.33333300  0.33333300  0.00000000
 
 position of ions in cartesian coordinates  (Angst):
   0.00000000  0.00000000  0.00000000
   1.41999858  0.00000000  0.00000000
 


--------------------------------------------------------------------------------------------------------


 k-point  1 :   0.0000 0.0000 0.0000  plane waves:    5409
 k-point  2 :   0.0102 0.0102 0.0000  plane waves:    5409
 k-point  3 :   0.0204 0.0204 0.0000  plane waves:    5407
 k-point  4 :   0.0306 0.0306 0.0000  plane waves:    5413
 k-point  5 :   0.0408 0.0408 0.0000  plane waves:    5413
 k-point  6 :   0.0510 0.0510 0.0000  plane waves:    5417
 k-point  7 :   0.0612 0.0612 0.0000  plane waves:    5415
 k-point  8 :   0.0714 0.0714 0.0000  plane waves:    5415
 k-point  9 :   0.0816 0.0816 0.0000  plane waves:    5405
 k-point 10 :   0.0918 0.0918 0.0000  plane waves:    5400
 k-point 11 :   0.1020 0.1020 0.0000  plane waves:    5406
 k-point 12 :   0.1122 0.1122 0.0000  plane waves:    5412
 k-point 13 :   0.1224 0.1224 0.0000  plane waves:    5406
 k-point 14 :   0.1327 0.1327 0.0000  plane waves:    5402
 k-point 15 :   0.1429 0.1429 0.0000  plane waves:    5398
 k-point 16 :   0.1531 0.1531 0.0000  plane waves:    5388
 k-point 17 :   0.1633 0.1633 0.0000  plane waves:    5394
 k-point 18 :   0.1735 0.1735 0.0000  plane waves:    5398
 k-point 19 :   0.1837 0.1837 0.0000  plane waves:    5400
 k-point 20 :   0.1939 0.1939 0.0000  plane waves:    5400
 k-point 21 :   0.2041 0.2041 0.0000  plane waves:    5396
 k-point 22 :   0.2143 0.2143 0.0000  plane waves:    5410
 k-point 23 :   0.2245 0.2245 0.0000  plane waves:    5410
 k-point 24 :   0.2347 0.2347 0.0000  plane waves:    5408
 k-point 25 :   0.2449 0.2449 0.0000  plane waves:    5408
 k-point 26 :   0.2551 0.2551 0.0000  plane waves:    5406
 k-point 27 :   0.2653 0.2653 0.0000  plane waves:    5402
 k-point 28 :   0.2755 0.2755 0.0000  plane waves:    5412
 k-point 29 :   0.2857 0.2857 0.0000  plane waves:    5404
 k-point 30 :   0.2959 0.2959 0.0000  plane waves:    5410
 k-point 31 :   0.3061 0.3061 0.0000  plane waves:    5394
 k-point 32 :   0.3163 0.3163 0.0000  plane waves:    5390
 k-point 33 :   0.3265 0.3265 0.0000  plane waves:    5380
 k-point 34 :   0.3367 0.3367 0.0000  plane waves:    5388
 k-point 35 :   0.3469 0.3469 0.0000  plane waves:    5396
 k-point 36 :   0.3571 0.3571 0.0000  plane waves:    5390
 k-point 37 :   0.3673 0.3673 0.0000  plane waves:    5382
 k-point 38 :   0.3776 0.3776 0.0000  plane waves:    5378
 k-point 39 :   0.3878 0.3878 0.0000  plane waves:    5374
 k-point 40 :   0.3980 0.3980 0.0000  plane waves:    5384
 k-point 41 :   0.4082 0.4082 0.0000  plane waves:    5382
 k-point 42 :   0.4184 0.4184 0.0000  plane waves:    5382
 k-point 43 :   0.4286 0.4286 0.0000  plane waves:    5396
 k-point 44 :   0.4388 0.4388 0.0000  plane waves:    5392
 k-point 45 :   0.4490 0.4490 0.0000  plane waves:    5390
 k-point 46 :   0.4592 0.4592 0.0000  plane waves:    5386
 k-point 47 :   0.4694 0.4694 0.0000  plane waves:    5392
 k-point 48 :   0.4796 0.4796 0.0000  plane waves:    5378
 k-point 49 :   0.4898 0.4898 0.0000  plane waves:    5380
 k-point 50 :   0.5000 0.5000 0.0000  plane waves:    5384
 k-point 51 :   0.5000 0.5000 0.0000  plane waves:    5384
 k-point 52 :   0.5034 0.4966 0.0000  plane waves:    5376
 k-point 53 :   0.5068 0.4932 0.0000  plane waves:    5380
 k-point 54 :   0.5102 0.4898 0.0000  plane waves:    5388
 k-point 55 :   0.5136 0.4864 0.0000  plane waves:    5392
 k-point 56 :   0.5170 0.4830 0.0000  plane waves:    5398
 k-point 57 :   0.5204 0.4796 0.0000  plane waves:    5398
 k-point 58 :   0.5238 0.4762 0.0000  plane waves:    5394
 k-point 59 :   0.5272 0.4728 0.0000  plane waves:    5388
 k-point 60 :   0.5306 0.4694 0.0000  plane waves:    5380
 k-point 61 :   0.5340 0.4660 0.0000  plane waves:    5384
 k-point 62 :   0.5374 0.4626 0.0000  plane waves:    5388
 k-point 63 :   0.5408 0.4592 0.0000  plane waves:    5392
 k-point 64 :   0.5442 0.4558 0.0000  plane waves:    5398
 k-point 65 :   0.5476 0.4524 0.0000  plane waves:    5398
 k-point 66 :   0.5510 0.4490 0.0000  plane waves:    5394
 k-point 67 :   0.5544 0.4456 0.0000  plane waves:    5386
 k-point 68 :   0.5578 0.4422 0.0000  plane waves:    5396
 k-point 69 :   0.5612 0.4388 0.0000  plane waves:    5408
 k-point 70 :   0.5646 0.4354 0.0000  plane waves:    5404
 k-point 71 :   0.5680 0.4320 0.0000  plane waves:    5404
 k-point 72 :   0.5714 0.4286 0.0000  plane waves:    5400
 k-point 73 :   0.5748 0.4252 0.0000  plane waves:    5392
 k-point 74 :   0.5782 0.4218 0.0000  plane waves:    5390
 k-point 75 :   0.5816 0.4184 0.0000  plane waves:    5382
 k-point 76 :   0.5850 0.4150 0.0000  plane waves:    5376
 k-point 77 :   0.5884 0.4116 0.0000  plane waves:    5382
 k-point 78 :   0.5918 0.4082 0.0000  plane waves:    5372
 k-point 79 :   0.5952 0.4048 0.0000  plane waves:    5364
 k-point 80 :   0.5986 0.4014 0.0000  plane waves:    5356
 k-point 81 :   0.6020 0.3980 0.0000  plane waves:    5360
 k-point 82 :   0.6054 0.3946 0.0000  plane waves:    5368
 k-point 83 :   0.6088 0.3912 0.0000  plane waves:    5374
 k-point 84 :   0.6122 0.3878 0.0000  plane waves:    5364
 k-point 85 :   0.6156 0.3844 0.0000  plane waves:    5364
 k-point 86 :   0.6190 0.3810 0.0000  plane waves:    5366
 k-point 87 :   0.6224 0.3776 0.0000  plane waves:    5360
 k-point 88 :   0.6259 0.3741 0.0000  plane waves:    5356
 k-point 89 :   0.6293 0.3707 0.0000  plane waves:    5356
 k-point 90 :   0.6327 0.3673 0.0000  plane waves:    5352
 k-point 91 :   0.6361 0.3639 0.0000  plane waves:    5348
 k-point 92 :   0.6395 0.3605 0.0000  plane waves:    5340
 k-point 93 :   0.6429 0.3571 0.0000  plane waves:    5328
 k-point 94 :   0.6463 0.3537 0.0000  plane waves:    5318
 k-point 95 :   0.6497 0.3503 0.0000  plane waves:    5322
 k-point 96 :   0.6531 0.3469 0.0000  plane waves:    5326
 k-point 97 :   0.6565 0.3435 0.0000  plane waves:    5334
 k-point 98 :   0.6599 0.3401 0.0000  plane waves:    5336
 k-point 99 :   0.6633 0.3367 0.0000  plane waves:    5334
 k-point ** :   0.6667 0.3333 0.0000  plane waves:    5334
 k-point ** :   0.6667 0.3333 0.0000  plane waves:    5334
 k-point ** :   0.6531 0.3265 0.0000  plane waves:    5334
 k-point ** :   0.6395 0.3197 0.0000  plane waves:    5336
 k-point ** :   0.6259 0.3129 0.0000  plane waves:    5330
 k-point ** :   0.6122 0.3061 0.0000  plane waves:    5336
 k-point ** :   0.5986 0.2993 0.0000  plane waves:    5346
 k-point ** :   0.5850 0.2925 0.0000  plane waves:    5350
 k-point ** :   0.5714 0.2857 0.0000  plane waves:    5362
 k-point ** :   0.5578 0.2789 0.0000  plane waves:    5366
 k-point ** :   0.5442 0.2721 0.0000  plane waves:    5368
 k-point ** :   0.5306 0.2653 0.0000  plane waves:    5368
 k-point ** :   0.5170 0.2585 0.0000  plane waves:    5366
 k-point ** :   0.5034 0.2517 0.0000  plane waves:    5360
 k-point ** :   0.4898 0.2449 0.0000  plane waves:    5364
 k-point ** :   0.4762 0.2381 0.0000  plane waves:    5364
 k-point ** :   0.4626 0.2313 0.0000  plane waves:    5358
 k-point ** :   0.4490 0.2245 0.0000  plane waves:    5364
 k-point ** :   0.4354 0.2177 0.0000  plane waves:    5360
 k-point ** :   0.4218 0.2109 0.0000  plane waves:    5360
 k-point ** :   0.4082 0.2041 0.0000  plane waves:    5378
 k-point ** :   0.3946 0.1973 0.0000  plane waves:    5384
 k-point ** :   0.3810 0.1905 0.0000  plane waves:    5390
 k-point ** :   0.3673 0.1837 0.0000  plane waves:    5396
 k-point ** :   0.3537 0.1769 0.0000  plane waves:    5394
 k-point ** :   0.3401 0.1701 0.0000  plane waves:    5394
 k-point ** :   0.3265 0.1633 0.0000  plane waves:    5407
 k-point ** :   0.3129 0.1565 0.0000  plane waves:    5403
 k-point ** :   0.2993 0.1497 0.0000  plane waves:    5403
 k-point ** :   0.2857 0.1429 0.0000  plane waves:    5405
 k-point ** :   0.2721 0.1361 0.0000  plane waves:    5401
 k-point ** :   0.2585 0.1293 0.0000  plane waves:    5405
 k-point ** :   0.2449 0.1224 0.0000  plane waves:    5409
 k-point ** :   0.2313 0.1156 0.0000  plane waves:    5405
 k-point ** :   0.2177 0.1088 0.0000  plane waves:    5413
 k-point ** :   0.2041 0.1020 0.0000  plane waves:    5405
 k-point ** :   0.1905 0.0952 0.0000  plane waves:    5403
 k-point ** :   0.1769 0.0884 0.0000  plane waves:    5411
 k-point ** :   0.1633 0.0816 0.0000  plane waves:    5409
 k-point ** :   0.1497 0.0748 0.0000  plane waves:    5417
 k-point ** :   0.1361 0.0680 0.0000  plane waves:    5429
 k-point ** :   0.1224 0.0612 0.0000  plane waves:    5413
 k-point ** :   0.1088 0.0544 0.0000  plane waves:    5403
 k-point ** :   0.0952 0.0476 0.0000  plane waves:    5411
 k-point ** :   0.0816 0.0408 0.0000  plane waves:    5405
 k-point ** :   0.0680 0.0340 0.0000  plane waves:    5401
 k-point ** :   0.0544 0.0272 0.0000  plane waves:    5401
 k-point ** :   0.0408 0.0204 0.0000  plane waves:    5403
 k-point ** :   0.0272 0.0136 0.0000  plane waves:    5421
 k-point ** :   0.0136 0.0068 0.0000  plane waves:    5409
 k-point ** :  -0.0000 0.0000 0.0000  plane waves:    5409

 maximum and minimum number of plane-waves per node :      5429     5318

 maximum number of plane-waves:      5429
 maximum index in each direction: 
   IXMAX=    5   IYMAX=    5   IZMAX=   46
   IXMIN=   -6   IYMIN=   -6   IZMIN=  -46


 serial   3D FFT for wavefunctions
 parallel 3D FFT for charge:
    minimum data exchange during FFTs selected (reduces bandwidth)


 total amount of memory used by VASP MPI-rank0   156283. kBytes
=======================================================================

   base      :      30000. kBytes
   nonl-proj :      52321. kBytes
   fftplans  :      32720. kBytes
   grid      :      15086. kBytes
   one-center:          6. kBytes
   wavefun   :      26150. kBytes
 
     INWAV:  cpu time    0.0001: real time    0.0025
 Broyden mixing: mesh for mixing (old mesh)
   NGX = 11   NGY = 11   NGZ = 93
  (NGX  = 48   NGY  = 48   NGZ  =384)
  gives a total of  11253 points

 initial charge density was supplied:
 charge density of overlapping atoms calculated
 number of electron       8.0000000 magnetization 
 keeping initial charge density in first step


--------------------------------------------------------------------------------------------------------


 Maximum index for augmentation-charges        24105 (set IRDMAX)


--------------------------------------------------------------------------------------------------------


 First call to EWALD:  gamma=   0.376
 Maximum number of real-space cells 5x 5x 1
 Maximum number of reciprocal cells 2x 2x10

    FEWALD:  cpu time    0.0011: real time    0.0011


--------------------------------------- Iteration      1(   1)  ---------------------------------------


    POTLOK:  cpu time    0.0861: real time    0.1041
    SETDIJ:  cpu time    0.0394: real time    0.0395
     EDDAV:  cpu time    2.5499: real time    2.6673
       DOS:  cpu time    0.0007: real time    0.0007
    --------------------------------------------
      LOOP:  cpu time    2.6761: real time    2.8116

 eigenvalue-minimisations  :  2400
 total energy-change (2. order) : 0.5586944E+02  (-0.3607519E+03)
 number of electron       8.0000000 magnetization 
 augmentation part        8.0000000 magnetization 

 Free energy of the ion-electron system (eV)
  ---------------------------------------------------
  alpha Z        PSCENC =         3.13611264
  Ewald energy   TEWEN  =      1303.03316907
  -Hartree energ DENC   =     -1515.21333446
  -exchange      EXHF   =         0.00000000
  -V(xc)+E(xc)   XCENC  =        26.39530837
  PAW double counting   =       217.04409276     -218.18290438
  entropy T*S    EENTRO =        -0.00007159
  eigenvalues    EBANDS =       -54.65177505
  atomic energy  EATOM  =       294.30884690
  Solvation  Ediel_sol  =         0.00000000
  ---------------------------------------------------
  free energy    TOTEN  =        55.86944427 eV

  energy without entropy =       55.86951585  energy(sigma->0) =       55.86948006


--------------------------------------------------------------------------------------------------------




--------------------------------------- Iteration      1(   2)  ---------------------------------------


     EDDAV:  cpu time    3.4881: real time    3.4994
       DOS:  cpu time    0.0006: real time    0.0006
    --------------------------------------------
      LOOP:  cpu time    3.4887: real time    3.5000

 eigenvalue-minimisations  :  3720
 total energy-change (2. order) :-0.6999171E+02  (-0.5293984E+02)
 number of electron       8.0000000 magnetization 
 augmentation part        8.0000000 magnetization 

 Free energy of the ion-electron system (eV)
  ---------------------------------------------------
  alpha Z        PSCENC =         3.13611264
  Ewald energy   TEWEN  =      1303.03316907
  -Hartree energ DENC   =     -1515.21333446
  -exchange      EXHF   =         0.00000000
  -V(xc)+E(xc)   XCENC  =        26.39530837
  PAW double counting   =       217.04409276     -218.18290438
  entropy T*S    EENTRO =        -0.00000022
  eigenvalues    EBANDS =      -124.64355973
  atomic energy  EATOM  =       294.30884690
  Solvation  Ediel_sol  =         0.00000000
  ---------------------------------------------------
  free energy    TOTEN  =       -14.12226905 eV

  energy without entropy =      -14.12226883  energy(sigma->0) =      -14.12226894


--------------------------------------------------------------------------------------------------------




--------------------------------------- Iteration      1(   3)  ---------------------------------------


     EDDAV:  cpu time    3.1666: real time    3.1746
       DOS:  cpu time    0.0007: real time    0.0007
    --------------------------------------------
      LOOP:  cpu time    3.1673: real time    3.1753

 eigenvalue-minimisations  :  3264
 total energy-change (2. order) :-0.4604881E+01  (-0.4571432E+01)
 number of electron       8.0000000 magnetization 
 augmentation part        8.0000000 magnetization 

 Free energy of the ion-electron system (eV)
  ---------------------------------------------------
  alpha Z        PSCENC =         3.13611264
  Ewald energy   TEWEN  =      1303.03316907
  -Hartree energ DENC   =     -1515.21333446
  -exchange      EXHF   =         0.00000000
  -V(xc)+E(xc)   XCENC  =        26.39530837
  PAW double counting   =       217.04409276     -218.18290438
  entropy T*S    EENTRO =        -0.00013349
  eigenvalues    EBANDS =      -129.24830728
  atomic energy  EATOM  =       294.30884690
  Solvation  Ediel_sol  =         0.00000000
  ---------------------------------------------------
  free energy    TOTEN  =       -18.72714987 eV

  energy without entropy =      -18.72701637  energy(sigma->0) =      -18.72708312


--------------------------------------------------------------------------------------------------------




--------------------------------------- Iteration      1(   4)  ---------------------------------------


     EDDAV:  cpu time    3.9281: real time    3.9382
       DOS:  cpu time    0.0007: real time    0.0007
    --------------------------------------------
      LOOP:  cpu time    3.9288: real time    3.9389

 eigenvalue-minimisations  :  4328
 total energy-change (2. order) :-0.3665739E-01  (-0.3664062E-01)
 number of electron       8.0000000 magnetization 
 augmentation part        8.0000000 magnetization 

 Free energy of the ion-electron system (eV)
  ---------------------------------------------------
  alpha Z        PSCENC =         3.13611264
  Ewald energy   TEWEN  =      1303.03316907
  -Hartree energ DENC   =     -1515.21333446
  -exchange      EXHF   =         0.00000000
  -V(xc)+E(xc)   XCENC  =        26.39530837
  PAW double counting   =       217.04409276     -218.18290438
  entropy T*S    EENTRO =        -0.00015045
  eigenvalues    EBANDS =      -129.28494771
  atomic energy  EATOM  =       294.30884690
  Solvation  Ediel_sol  =         0.00000000
  ---------------------------------------------------
  free energy    TOTEN  =       -18.76380725 eV

  energy without entropy =      -18.76365680  energy(sigma->0) =      -18.76373203


--------------------------------------------------------------------------------------------------------




--------------------------------------- Iteration      1(   5)  ---------------------------------------


     EDDAV:  cpu time    3.3974: real time    3.4063
       DOS:  cpu time    0.0007: real time    0.0007
    CHARGE:  cpu time    0.2363: real time    0.2369
    MIXING:  cpu time    0.0028: real time    0.0028
    --------------------------------------------
      LOOP:  cpu time    3.6373: real time    3.6467

 eigenvalue-minimisations  :  3584
 total energy-change (2. order) :-0.5835522E-04  (-0.5835533E-04)
 number of electron       8.0000000 magnetization 
 augmentation part        0.2240337 magnetization 

 Broyden mixing:
  rms(total) = 0.66185E+00    rms(broyden)= 0.66184E+00
  rms(prec ) = 0.70767E+00
  weight for this iteration     100.00

 Free energy of the ion-electron system (eV)
  ---------------------------------------------------
  alpha Z        PSCENC =         3.13611264
  Ewald energy   TEWEN  =      1303.03316907
  -Hartree energ DENC   =     -1515.21333446
  -exchange      EXHF   =         0.00000000
  -V(xc)+E(xc)   XCENC  =        26.39530837
  PAW double counting   =       217.04409276     -218.18290438
  entropy T*S    EENTRO =        -0.00015045
  eigenvalues    EBANDS =      -129.28500606
  atomic energy  EATOM  =       294.30884690
  Solvation  Ediel_sol  =         0.00000000
  ---------------------------------------------------
  free energy    TOTEN  =       -18.76386561 eV

  energy without entropy =      -18.76371516  energy(sigma->0) =      -18.76379038


--------------------------------------------------------------------------------------------------------




--------------------------------------- Iteration      1(   6)  ---------------------------------------


    POTLOK:  cpu time    0.0726: real time    0.0729
    SETDIJ:  cpu time    0.0351: real time    0.0352
     EDDAV:  cpu time    3.4552: real time    3.4637
       DOS:  cpu time    0.0007: real time    0.0007
    CHARGE:  cpu time    0.2314: real time    0.2320
    MIXING:  cpu time    0.0026: real time    0.0026
    --------------------------------------------
      LOOP:  cpu time    3.7977: real time    3.8070

 eigenvalue-minimisations  :  3696
 total energy-change (2. order) : 0.1000640E+01  (-0.9529355E-01)
 number of electron       8.0000000 magnetization 
 augmentation part        0.2138775 magnetization 

 Broyden mixing:
  rms(total) = 0.39048E+00    rms(broyden)= 0.39048E+00
  rms(prec ) = 0.41354E+00
  weight for this iteration     100.00

 eigenvalues of (default mixing * dielectric matrix)
  average eigenvalue GAMMA=   2.2044
  2.2044

 Free energy of the ion-electron system (eV)
  ---------------------------------------------------
  alpha Z        PSCENC =         3.13611264
  Ewald energy   TEWEN  =      1303.03316907
  -Hartree energ DENC   =     -1526.19996357
  -exchange      EXHF   =         0.00000000
  -V(xc)+E(xc)   XCENC  =        26.89449365
  PAW double counting   =       404.42951767     -405.73002246
  entropy T*S    EENTRO =        -0.00015045
  eigenvalues    EBANDS =      -117.63522915
  atomic energy  EATOM  =       294.30884690
  Solvation  Ediel_sol  =         0.00000000
  ---------------------------------------------------
  free energy    TOTEN  =       -17.76322570 eV

  energy without entropy =      -17.76307525  energy(sigma->0) =      -17.76315048


--------------------------------------------------------------------------------------------------------




--------------------------------------- Iteration      1(   7)  ---------------------------------------


    POTLOK:  cpu time    0.0722: real time    0.0724
    SETDIJ:  cpu time    0.0329: real time    0.0330
     EDDAV:  cpu time    3.5375: real time    3.5462
       DOS:  cpu time    0.0007: real time    0.0007
    CHARGE:  cpu time    0.2298: real time    0.2306
    MIXING:  cpu time    0.0027: real time    0.0027
    --------------------------------------------
      LOOP:  cpu time    3.8758: real time    3.8857

 eigenvalue-minimisations  :  3792
 total energy-change (2. order) : 0.3892354E+00  (-0.1270886E+00)
 number of electron       8.0000000 magnetization 
 augmentation part        0.2023275 magnetization 

 Broyden mixing:
  rms(total) = 0.10081E+00    rms(broyden)= 0.10081E+00
  rms(prec ) = 0.10508E+00
  weight for this iteration     100.00

 eigenvalues of (default mixing * dielectric matrix)
  average eigenvalue GAMMA=   2.2205
  2.2205  2.2205

 Free energy of the ion-electron system (eV)
  ---------------------------------------------------
  alpha Z        PSCENC =         3.13611264
  Ewald energy   TEWEN  =      1303.03316907
  -Hartree energ DENC   =     -1540.93783773
  -exchange      EXHF   =         0.00000000
  -V(xc)+E(xc)   XCENC  =        27.57061419
  PAW double counting   =       775.85705154     -777.30167205
  entropy T*S    EENTRO =        -0.00015045
  eigenvalues    EBANDS =      -103.04012444
  atomic energy  EATOM  =       294.30884690
  Solvation  Ediel_sol  =         0.00000000
  ---------------------------------------------------
  free energy    TOTEN  =       -17.37399033 eV

  energy without entropy =      -17.37383988  energy(sigma->0) =      -17.37391511


--------------------------------------------------------------------------------------------------------




--------------------------------------- Iteration      1(   8)  ---------------------------------------


    POTLOK:  cpu time    0.0747: real time    0.0802
    SETDIJ:  cpu time    0.0344: real time    0.0344
     EDDAV:  cpu time    3.6994: real time    3.7087
       DOS:  cpu time    0.0007: real time    0.0007
    CHARGE:  cpu time    0.2327: real time    0.2332
    MIXING:  cpu time    0.0028: real time    0.0028
    --------------------------------------------
      LOOP:  cpu time    4.0447: real time    4.0601

 eigenvalue-minimisations  :  4032
 total energy-change (2. order) : 0.8670180E-02  (-0.1247453E-02)
 number of electron       8.0000000 magnetization 
 augmentation part        0.2025206 magnetization 

 Broyden mixing:
  rms(total) = 0.99578E-02    rms(broyden)= 0.99576E-02
  rms(prec ) = 0.21389E-01
  weight for this iteration     100.00

 eigenvalues of (default mixing * dielectric matrix)
  average eigenvalue GAMMA=   1.8441
  1.1148  2.1486  2.2688

 Free energy of the ion-electron system (eV)
  ---------------------------------------------------
  alpha Z        PSCENC =         3.13611264
  Ewald energy   TEWEN  =      1303.03316907
  -Hartree energ DENC   =     -1542.69395710
  -exchange      EXHF   =         0.00000000
  -V(xc)+E(xc)   XCENC  =        27.58225023
  PAW double counting   =       869.11900257     -870.50650291
  entropy T*S    EENTRO =        -0.00015045
  eigenvalues    EBANDS =      -101.34409111
  atomic energy  EATOM  =       294.30884690
  Solvation  Ediel_sol  =         0.00000000
  ---------------------------------------------------
  free energy    TOTEN  =       -17.36532015 eV

  energy without entropy =      -17.36516970  energy(sigma->0) =      -17.36524493


--------------------------------------------------------------------------------------------------------




--------------------------------------- Iteration      1(   9)  ---------------------------------------


    POTLOK:  cpu time    0.0744: real time    0.0798
    SETDIJ:  cpu time    0.0333: real time    0.0334
     EDDAV:  cpu time    3.3479: real time    3.3565
       DOS:  cpu time    0.0007: real time    0.0007
    CHARGE:  cpu time    0.2304: real time    0.2310
    MIXING:  cpu time    0.0028: real time    0.0028
    --------------------------------------------
      LOOP:  cpu time    3.6896: real time    3.7041

 eigenvalue-minimisations  :  3536
 total energy-change (2. order) : 0.1820492E-02  (-0.6190271E-04)
 number of electron       8.0000000 magnetization 
 augmentation part        0.2023397 magnetization 

 Broyden mixing:
  rms(total) = 0.79524E-02    rms(broyden)= 0.79524E-02
  rms(prec ) = 0.18432E-01
  weight for this iteration     100.00

 eigenvalues of (default mixing * dielectric matrix)
  average eigenvalue GAMMA=   2.2600
  3.5652  0.9853  2.4788  2.0107

 Free energy of the ion-electron system (eV)
  ---------------------------------------------------
  alpha Z        PSCENC =         3.13611264
  Ewald energy   TEWEN  =      1303.03316907
  -Hartree energ DENC   =     -1543.56017811
  -exchange      EXHF   =         0.00000000
  -V(xc)+E(xc)   XCENC  =        27.59888899
  PAW double counting   =       869.93534146     -871.32333917
  entropy T*S    EENTRO =        -0.00015045
  eigenvalues    EBANDS =      -100.49219099
  atomic energy  EATOM  =       294.30884690
  Solvation  Ediel_sol  =         0.00000000
  ---------------------------------------------------
  free energy    TOTEN  =       -17.36349966 eV

  energy without entropy =      -17.36334921  energy(sigma->0) =      -17.36342444


--------------------------------------------------------------------------------------------------------




--------------------------------------- Iteration      1(  10)  ---------------------------------------


    POTLOK:  cpu time    0.0711: real time    0.0741
    SETDIJ:  cpu time    0.0342: real time    0.0342
     EDDAV:  cpu time    2.8897: real time    2.8966
       DOS:  cpu time    0.0007: real time    0.0007
    CHARGE:  cpu time    0.2294: real time    0.2299
    MIXING:  cpu time    0.0028: real time    0.0029
    --------------------------------------------
      LOOP:  cpu time    3.2279: real time    3.2384

 eigenvalue-minimisations  :  2904
 total energy-change (2. order) : 0.5652635E-02  (-0.3839173E-03)
 number of electron       8.0000000 magnetization 
 augmentation part        0.2019986 magnetization 

 Broyden mixing:
  rms(total) = 0.46541E-02    rms(broyden)= 0.46541E-02
  rms(prec ) = 0.11097E-01
  weight for this iteration     100.00

 eigenvalues of (default mixing * dielectric matrix)
  average eigenvalue GAMMA=   2.2631
  3.6517  1.0216  2.2901  2.2901  2.0620

 Free energy of the ion-electron system (eV)
  ---------------------------------------------------
  alpha Z        PSCENC =         3.13611264
  Ewald energy   TEWEN  =      1303.03316907
  -Hartree energ DENC   =     -1546.72907579
  -exchange      EXHF   =         0.00000000
  -V(xc)+E(xc)   XCENC  =        27.64302194
  PAW double counting   =       863.33161713     -864.71644389
  entropy T*S    EENTRO =        -0.00015045
  eigenvalues    EBANDS =       -97.36494458
  atomic energy  EATOM  =       294.30884690
  Solvation  Ediel_sol  =         0.00000000
  ---------------------------------------------------
  free energy    TOTEN  =       -17.35784703 eV

  energy without entropy =      -17.35769658  energy(sigma->0) =      -17.35777180


--------------------------------------------------------------------------------------------------------




--------------------------------------- Iteration      1(  11)  ---------------------------------------


    POTLOK:  cpu time    0.0674: real time    0.0676
    SETDIJ:  cpu time    0.0344: real time    0.0345
     EDDAV:  cpu time    3.0448: real time    3.0522
       DOS:  cpu time    0.0007: real time    0.0007
    CHARGE:  cpu time    0.2304: real time    0.2309
    MIXING:  cpu time    0.0029: real time    0.0029
    --------------------------------------------
      LOOP:  cpu time    3.3805: real time    3.3888

 eigenvalue-minimisations  :  3128
 total energy-change (2. order) : 0.5472964E-03  (-0.2680696E-04)
 number of electron       8.0000000 magnetization 
 augmentation part        0.2019122 magnetization 

 Broyden mixing:
  rms(total) = 0.58457E-02    rms(broyden)= 0.58457E-02
  rms(prec ) = 0.96147E-02
  weight for this iteration     100.00

 eigenvalues of (default mixing * dielectric matrix)
  average eigenvalue GAMMA=   2.5245
  5.8527  2.9277  2.4328  2.0167  0.9974  0.9198

 Free energy of the ion-electron system (eV)
  ---------------------------------------------------
  alpha Z        PSCENC =         3.13611264
  Ewald energy   TEWEN  =      1303.03316907
  -Hartree energ DENC   =     -1548.08204232
  -exchange      EXHF   =         0.00000000
  -V(xc)+E(xc)   XCENC  =        27.64798262
  PAW double counting   =       871.35993526     -872.74313658
  entropy T*S    EENTRO =        -0.00015045
  eigenvalues    EBANDS =       -96.01801687
  atomic energy  EATOM  =       294.30884690
  Solvation  Ediel_sol  =         0.00000000
  ---------------------------------------------------
  free energy    TOTEN  =       -17.35729973 eV

  energy without entropy =      -17.35714928  energy(sigma->0) =      -17.35722450


--------------------------------------------------------------------------------------------------------




--------------------------------------- Iteration      1(  12)  ---------------------------------------


    POTLOK:  cpu time    0.0661: real time    0.0663
    SETDIJ:  cpu time    0.0333: real time    0.0334
     EDDAV:  cpu time    3.0264: real time    3.0336
       DOS:  cpu time    0.0007: real time    0.0007
    CHARGE:  cpu time    0.2307: real time    0.2313
    MIXING:  cpu time    0.0031: real time    0.0031
    --------------------------------------------
      LOOP:  cpu time    3.3602: real time    3.3683

 eigenvalue-minimisations  :  3096
 total energy-change (2. order) :-0.1713732E-03  (-0.1242520E-04)
 number of electron       8.0000000 magnetization 
 augmentation part        0.2018713 magnetization 

 Broyden mixing:
  rms(total) = 0.22952E-02    rms(broyden)= 0.22952E-02
  rms(prec ) = 0.67731E-02
  weight for this iteration     100.00

 eigenvalues of (default mixing * dielectric matrix)
  average eigenvalue GAMMA=   3.0686
  7.7922  4.5960  2.6292  2.4617  2.0033  1.0114  0.9865

 Free energy of the ion-electron system (eV)
  ---------------------------------------------------
  alpha Z        PSCENC =         3.13611264
  Ewald energy   TEWEN  =      1303.03316907
  -Hartree energ DENC   =     -1548.80825824
  -exchange      EXHF   =         0.00000000
  -V(xc)+E(xc)   XCENC  =        27.64712557
  PAW double counting   =       864.93379354     -866.31918772
  entropy T*S    EENTRO =        -0.00015045
  eigenvalues    EBANDS =       -95.28892242
  atomic energy  EATOM  =       294.30884690
  Solvation  Ediel_sol  =         0.00000000
  ---------------------------------------------------
  free energy    TOTEN  =       -17.35747110 eV

  energy without entropy =      -17.35732065  energy(sigma->0) =      -17.35739588


--------------------------------------------------------------------------------------------------------




--------------------------------------- Iteration      1(  13)  ---------------------------------------


    POTLOK:  cpu time    0.0647: real time    0.0649
    SETDIJ:  cpu time    0.0335: real time    0.0335
     EDDAV:  cpu time    3.0115: real time    3.0187
       DOS:  cpu time    0.0007: real time    0.0007
    CHARGE:  cpu time    0.2324: real time    0.2329
    MIXING:  cpu time    0.0033: real time    0.0033
    --------------------------------------------
      LOOP:  cpu time    3.3461: real time    3.3541

 eigenvalue-minimisations  :  3088
 total energy-change (2. order) :-0.7948974E-03  (-0.7928341E-04)
 number of electron       8.0000000 magnetization 
 augmentation part        0.2018649 magnetization 

 Broyden mixing:
  rms(total) = 0.22460E-02    rms(broyden)= 0.22460E-02
  rms(prec ) = 0.44383E-02
  weight for this iteration     100.00

 eigenvalues of (default mixing * dielectric matrix)
  average eigenvalue GAMMA=   2.8585
  8.3316  4.3392  2.7365  2.3886  2.0083  1.0552  1.0552  0.9531

 Free energy of the ion-electron system (eV)
  ---------------------------------------------------
  alpha Z        PSCENC =         3.13611264
  Ewald energy   TEWEN  =      1303.03316907
  -Hartree energ DENC   =     -1549.87084676
  -exchange      EXHF   =         0.00000000
  -V(xc)+E(xc)   XCENC  =        27.64480751
  PAW double counting   =       863.72986652     -865.11420835
  entropy T*S    EENTRO =        -0.00015045
  eigenvalues    EBANDS =       -94.22586309
  atomic energy  EATOM  =       294.30884690
  Solvation  Ediel_sol  =         0.00000000
  ---------------------------------------------------
  free energy    TOTEN  =       -17.35826600 eV

  energy without entropy =      -17.35811555  energy(sigma->0) =      -17.35819077


--------------------------------------------------------------------------------------------------------




--------------------------------------- Iteration      1(  14)  ---------------------------------------


    POTLOK:  cpu time    0.0642: real time    0.0644
    SETDIJ:  cpu time    0.0337: real time    0.0338
     EDDAV:  cpu time    3.2686: real time    3.2764
       DOS:  cpu time    0.0007: real time    0.0007
    CHARGE:  cpu time    0.2307: real time    0.2313
    MIXING:  cpu time    0.0032: real time    0.0032
    --------------------------------------------
      LOOP:  cpu time    3.6012: real time    3.6099

 eigenvalue-minimisations  :  3424
 total energy-change (2. order) :-0.1931275E-04  (-0.5267586E-05)
 number of electron       8.0000000 magnetization 
 augmentation part        0.2018192 magnetization 

 Broyden mixing:
  rms(total) = 0.13086E-02    rms(broyden)= 0.13086E-02
  rms(prec ) = 0.32602E-02
  weight for this iteration     100.00

 eigenvalues of (default mixing * dielectric matrix)
  average eigenvalue GAMMA=   3.3677
 11.0253  5.5927  3.6262  2.6404  2.4462  2.0143  1.0086  0.9777  0.9777

 Free energy of the ion-electron system (eV)
  ---------------------------------------------------
  alpha Z        PSCENC =         3.13611264
  Ewald energy   TEWEN  =      1303.03316907
  -Hartree energ DENC   =     -1550.39075330
  -exchange      EXHF   =         0.00000000
  -V(xc)+E(xc)   XCENC  =        27.64942622
  PAW double counting   =       864.71408682     -866.09846168
  entropy T*S    EENTRO =        -0.00015045
  eigenvalues    EBANDS =       -93.71056153
  atomic energy  EATOM  =       294.30884690
  Solvation  Ediel_sol  =         0.00000000
  ---------------------------------------------------
  free energy    TOTEN  =       -17.35828531 eV

  energy without entropy =      -17.35813486  energy(sigma->0) =      -17.35821009


--------------------------------------------------------------------------------------------------------




--------------------------------------- Iteration      1(  15)  ---------------------------------------


    POTLOK:  cpu time    0.0641: real time    0.0643
    SETDIJ:  cpu time    0.0341: real time    0.0342
     EDDAV:  cpu time    2.9454: real time    2.9524
       DOS:  cpu time    0.0007: real time    0.0007
    CHARGE:  cpu time    0.2303: real time    0.2309
    MIXING:  cpu time    0.0033: real time    0.0033
    --------------------------------------------
      LOOP:  cpu time    3.2780: real time    3.2858

 eigenvalue-minimisations  :  2984
 total energy-change (2. order) :-0.2662479E-03  (-0.5819699E-05)
 number of electron       8.0000000 magnetization 
 augmentation part        0.2018087 magnetization 

 Broyden mixing:
  rms(total) = 0.12370E-02    rms(broyden)= 0.12370E-02
  rms(prec ) = 0.16447E-02
  weight for this iteration     100.00

 eigenvalues of (default mixing * dielectric matrix)
  average eigenvalue GAMMA=   4.4822
 19.1669  7.9943  4.2481  3.3180  2.5803  2.5010  2.0151  0.9940  0.9940  1.0099

 Free energy of the ion-electron system (eV)
  ---------------------------------------------------
  alpha Z        PSCENC =         3.13611264
  Ewald energy   TEWEN  =      1303.03316907
  -Hartree energ DENC   =     -1550.99047671
  -exchange      EXHF   =         0.00000000
  -V(xc)+E(xc)   XCENC  =        27.64946623
  PAW double counting   =       865.24337209     -866.62821110
  entropy T*S    EENTRO =        -0.00015045
  eigenvalues    EBANDS =       -93.11068022
  atomic energy  EATOM  =       294.30884690
  Solvation  Ediel_sol  =         0.00000000
  ---------------------------------------------------
  free energy    TOTEN  =       -17.35855156 eV

  energy without entropy =      -17.35840111  energy(sigma->0) =      -17.35847634


--------------------------------------------------------------------------------------------------------




--------------------------------------- Iteration      1(  16)  ---------------------------------------


    POTLOK:  cpu time    0.0661: real time    0.0714
    SETDIJ:  cpu time    0.0353: real time    0.0354
     EDDAV:  cpu time    2.9991: real time    3.0063
       DOS:  cpu time    0.0007: real time    0.0007
    CHARGE:  cpu time    0.2316: real time    0.2322
    MIXING:  cpu time    0.0039: real time    0.0191
    --------------------------------------------
      LOOP:  cpu time    3.3367: real time    3.3651

 eigenvalue-minimisations  :  3056
 total energy-change (2. order) :-0.3027895E-03  (-0.1821981E-05)
 number of electron       8.0000000 magnetization 
 augmentation part        0.2018170 magnetization 

 Broyden mixing:
  rms(total) = 0.91575E-03    rms(broyden)= 0.91575E-03
  rms(prec ) = 0.94857E-03
  weight for this iteration     100.00

 eigenvalues of (default mixing * dielectric matrix)
  average eigenvalue GAMMA=   4.6634
 23.1078  7.7403  5.0489  2.8153  2.6350  2.4656  2.4656  2.0179  1.0119  0.9946
  0.9946

 Free energy of the ion-electron system (eV)
  ---------------------------------------------------
  alpha Z        PSCENC =         3.13611264
  Ewald energy   TEWEN  =      1303.03316907
  -Hartree energ DENC   =     -1551.04659476
  -exchange      EXHF   =         0.00000000
  -V(xc)+E(xc)   XCENC  =        27.64754656
  PAW double counting   =       863.96942618     -865.35400543
  entropy T*S    EENTRO =        -0.00015045
  eigenvalues    EBANDS =       -93.05320506
  atomic energy  EATOM  =       294.30884690
  Solvation  Ediel_sol  =         0.00000000
  ---------------------------------------------------
  free energy    TOTEN  =       -17.35885435 eV

  energy without entropy =      -17.35870390  energy(sigma->0) =      -17.35877912


--------------------------------------------------------------------------------------------------------




--------------------------------------- Iteration      1(  17)  ---------------------------------------


    POTLOK:  cpu time    0.0770: real time    0.1029
    SETDIJ:  cpu time    0.0342: real time    0.0343
     EDDAV:  cpu time    2.9407: real time    2.9482
       DOS:  cpu time    0.0007: real time    0.0007
    CHARGE:  cpu time    0.2308: real time    0.2314
    MIXING:  cpu time    0.0036: real time    0.0036
    --------------------------------------------
      LOOP:  cpu time    3.2869: real time    3.3210

 eigenvalue-minimisations  :  2992
 total energy-change (2. order) :-0.3216278E-04  (-0.2488168E-06)
 number of electron       8.0000000 magnetization 
 augmentation part        0.2018179 magnetization 

 Broyden mixing:
  rms(total) = 0.19133E-03    rms(broyden)= 0.19133E-03
  rms(prec ) = 0.23451E-03
  weight for this iteration     100.00

 eigenvalues of (default mixing * dielectric matrix)
  average eigenvalue GAMMA=   4.8548
 27.1126  8.4302  5.2015  3.5645  2.9298  2.5654  2.4565  2.0137  1.0178  0.9940
  0.9940  0.9776

 Free energy of the ion-electron system (eV)
  ---------------------------------------------------
  alpha Z        PSCENC =         3.13611264
  Ewald energy   TEWEN  =      1303.03316907
  -Hartree energ DENC   =     -1551.10466285
  -exchange      EXHF   =         0.00000000
  -V(xc)+E(xc)   XCENC  =        27.64799644
  PAW double counting   =       864.93657802     -866.32100343
  entropy T*S    EENTRO =        -0.00015045
  eigenvalues    EBANDS =       -92.99577285
  atomic energy  EATOM  =       294.30884690
  Solvation  Ediel_sol  =         0.00000000
  ---------------------------------------------------
  free energy    TOTEN  =       -17.35888651 eV

  energy without entropy =      -17.35873606  energy(sigma->0) =      -17.35881129


--------------------------------------------------------------------------------------------------------




--------------------------------------- Iteration      1(  18)  ---------------------------------------


    POTLOK:  cpu time    0.0660: real time    0.0664
    SETDIJ:  cpu time    0.0331: real time    0.0332
     EDDAV:  cpu time    2.8861: real time    2.8930
       DOS:  cpu time    0.0007: real time    0.0007
    CHARGE:  cpu time    0.2317: real time    0.2322
    MIXING:  cpu time    0.0037: real time    0.0037
    --------------------------------------------
      LOOP:  cpu time    3.2213: real time    3.2293

 eigenvalue-minimisations  :  2888
 total energy-change (2. order) :-0.4919812E-04  (-0.9631134E-07)
 number of electron       8.0000000 magnetization 
 augmentation part        0.2018147 magnetization 

 Broyden mixing:
  rms(total) = 0.54774E-04    rms(broyden)= 0.54773E-04
  rms(prec ) = 0.59383E-04
  weight for this iteration     100.00

 eigenvalues of (default mixing * dielectric matrix)
  average eigenvalue GAMMA=   4.6963
 27.2736  8.5158  5.1322  3.7586  2.9707  2.0051  2.5028  2.4438  2.4438  0.9900
  0.9900  0.9965  1.0292

 Free energy of the ion-electron system (eV)
  ---------------------------------------------------
  alpha Z        PSCENC =         3.13611264
  Ewald energy   TEWEN  =      1303.03316907
  -Hartree energ DENC   =     -1551.10963246
  -exchange      EXHF   =         0.00000000
  -V(xc)+E(xc)   XCENC  =        27.64814712
  PAW double counting   =       864.78977573     -866.17435991
  entropy T*S    EENTRO =        -0.00015045
  eigenvalues    EBANDS =       -92.99084436
  atomic energy  EATOM  =       294.30884690
  Solvation  Ediel_sol  =         0.00000000
  ---------------------------------------------------
  free energy    TOTEN  =       -17.35893571 eV

  energy without entropy =      -17.35878526  energy(sigma->0) =      -17.35886049


--------------------------------------------------------------------------------------------------------




--------------------------------------- Iteration      1(  19)  ---------------------------------------


    POTLOK:  cpu time    0.0667: real time    0.0695
    SETDIJ:  cpu time    0.0350: real time    0.0351
     EDDAV:  cpu time    3.2972: real time    3.3050
       DOS:  cpu time    0.0007: real time    0.0007
    CHARGE:  cpu time    0.2310: real time    0.2316
    MIXING:  cpu time    0.0037: real time    0.0037
    --------------------------------------------
      LOOP:  cpu time    3.6344: real time    3.6456

 eigenvalue-minimisations  :  3472
 total energy-change (2. order) :-0.2621917E-05  (-0.5442165E-08)
 number of electron       8.0000000 magnetization 
 augmentation part        0.2018156 magnetization 

 Broyden mixing:
  rms(total) = 0.25353E-04    rms(broyden)= 0.25352E-04
  rms(prec ) = 0.27532E-04
  weight for this iteration     100.00

 eigenvalues of (default mixing * dielectric matrix)
  average eigenvalue GAMMA=   4.4943
 27.3299  8.5451  5.1419  4.0646  2.9160  2.9160  2.5106  2.4425  2.0164  0.9923
  0.9923  1.0102  1.0212  1.0212

 Free energy of the ion-electron system (eV)
  ---------------------------------------------------
  alpha Z        PSCENC =         3.13611264
  Ewald energy   TEWEN  =      1303.03316907
  -Hartree energ DENC   =     -1551.10678264
  -exchange      EXHF   =         0.00000000
  -V(xc)+E(xc)   XCENC  =        27.64806464
  PAW double counting   =       864.75038598     -866.13491669
  entropy T*S    EENTRO =        -0.00015045
  eigenvalues    EBANDS =       -92.99366778
  atomic energy  EATOM  =       294.30884690
  Solvation  Ediel_sol  =         0.00000000
  ---------------------------------------------------
  free energy    TOTEN  =       -17.35893833 eV

  energy without entropy =      -17.35878788  energy(sigma->0) =      -17.35886311


--------------------------------------------------------------------------------------------------------




--------------------------------------- Iteration      1(  20)  ---------------------------------------


    POTLOK:  cpu time    0.0665: real time    0.0667
    SETDIJ:  cpu time    0.0347: real time    0.0348
     EDDAV:  cpu time    2.9268: real time    2.9337
       DOS:  cpu time    0.0007: real time    0.0007
    CHARGE:  cpu time    0.2310: real time    0.2316
    MIXING:  cpu time    0.0042: real time    0.0042
    --------------------------------------------
      LOOP:  cpu time    3.2639: real time    3.2717

 eigenvalue-minimisations  :  2968
 total energy-change (2. order) :-0.1852360E-05  (-0.2926430E-08)
 number of electron       8.0000000 magnetization 
 augmentation part        0.2018155 magnetization 

 Broyden mixing:
  rms(total) = 0.37643E-05    rms(broyden)= 0.37618E-05
  rms(prec ) = 0.40548E-05
  weight for this iteration     100.00

 eigenvalues of (default mixing * dielectric matrix)
  average eigenvalue GAMMA=   4.3728
 27.3460  8.5205  5.2544  3.7115  3.7115  2.0181  2.6077  2.6077  2.3794  2.3794
  0.9904  0.9904  1.0079  1.0337  1.0337

 Free energy of the ion-electron system (eV)
  ---------------------------------------------------
  alpha Z        PSCENC =         3.13611264
  Ewald energy   TEWEN  =      1303.03316907
  -Hartree energ DENC   =     -1551.10579933
  -exchange      EXHF   =         0.00000000
  -V(xc)+E(xc)   XCENC  =        27.64805658
  PAW double counting   =       864.75101363     -866.13555223
  entropy T*S    EENTRO =        -0.00015045
  eigenvalues    EBANDS =       -92.99463699
  atomic energy  EATOM  =       294.30884690
  Solvation  Ediel_sol  =         0.00000000
  ---------------------------------------------------
  free energy    TOTEN  =       -17.35894018 eV

  energy without entropy =      -17.35878973  energy(sigma->0) =      -17.35886496


--------------------------------------------------------------------------------------------------------




--------------------------------------- Iteration      1(  21)  ---------------------------------------


    POTLOK:  cpu time    0.0681: real time    0.0684
    SETDIJ:  cpu time    0.0338: real time    0.0339
     EDDAV:  cpu time    3.6684: real time    3.6771
       DOS:  cpu time    0.0007: real time    0.0007
    CHARGE:  cpu time    0.2335: real time    0.2340
    MIXING:  cpu time    0.0043: real time    0.0043
    --------------------------------------------
      LOOP:  cpu time    4.0089: real time    4.0185

 eigenvalue-minimisations  :  3976
 total energy-change (2. order) :-0.7474853E-07  (-0.5632798E-10)
 number of electron       8.0000000 magnetization 
 augmentation part        0.2018153 magnetization 

 Broyden mixing:
  rms(total) = 0.38158E-05    rms(broyden)= 0.38133E-05
  rms(prec ) = 0.38901E-05
[...]
      3     -11.2363      2.00000
      4      -5.7868      2.00000
      5       0.7024      0.00000
      6       5.9817      0.00000
      7       6.7252      0.00000
      8       7.3044      0.00000

 k-point   116 :       0.4626    0.2313    0.0000
  band No.  band energies     occupation 
      1     -18.4624      2.00000
      2     -12.5570      2.00000
      3     -11.0351      2.00000
      4      -6.0173      2.00000
      5       0.9826      0.00000
      6       5.6791      0.00000
      7       6.4451      0.00000
      8       6.9882      0.00000

 k-point   117 :       0.4490    0.2245    0.0000
  band No.  band energies     occupation 
      1     -18.6704      2.00000
      2     -12.3414      2.00000
      3     -10.8305      2.00000
      4      -6.2446      2.00000
      5       1.2672      0.00000
      6       5.3844      0.00000
      7       6.1659      0.00000
      8       6.6811      0.00000

 k-point   118 :       0.4354    0.2177    0.0000
  band No.  band energies     occupation 
      1     -18.8733      2.00000
      2     -12.1214      2.00000
      3     -10.6229      2.00000
      4      -6.4683      2.00000
      5       1.5561      0.00000
      6       5.0977      0.00000
      7       5.8901      0.00000
      8       6.3832      0.00000

 k-point   119 :       0.4218    0.2109    0.0000
  band No.  band energies     occupation 
      1     -19.0710      2.00000
      2     -11.8971      2.00000
      3     -10.4126      2.00000
      4      -6.6878      2.00000
      5       1.8489      0.00000
      6       4.8192      0.00000
      7       5.6193      0.00000
      8       6.0943      0.00000

 k-point   120 :       0.4082    0.2041    0.0000
  band No.  band energies     occupation 
      1     -19.2633      2.00000
      2     -11.6688      2.00000
      3     -10.2001      2.00000
      4      -6.9029      2.00000
      5       2.1451      0.00000
      6       4.5490      0.00000
      7       5.3545      0.00000
      8       5.8146      0.00000

 k-point   121 :       0.3946    0.1973    0.0000
  band No.  band energies     occupation 
      1     -19.4501      2.00000
      2     -11.4366      2.00000
      3      -9.9858      2.00000
      4      -7.1131      2.00000
      5       2.4445      0.00000
      6       4.2873      0.00000
      7       5.0964      0.00000
      8       5.5439      0.00000

 k-point   122 :       0.3810    0.1905    0.0000
  band No.  band energies     occupation 
      1     -19.6313      2.00000
      2     -11.2007      2.00000
      3      -9.7702      2.00000
      4      -7.3182      2.00000
      5       2.7464      0.00000
      6       4.0340      0.00000
      7       4.8456      0.00000
      8       5.2825      0.00000

 k-point   123 :       0.3673    0.1837    0.0000
  band No.  band energies     occupation 
      1     -19.8067      2.00000
      2     -10.9613      2.00000
      3      -9.5537      2.00000
      4      -7.5178      2.00000
      5       3.0505      0.00000
      6       3.7894      0.00000
      7       4.6025      0.00000
      8       5.0302      0.00000

 k-point   124 :       0.3537    0.1769    0.0000
  band No.  band energies     occupation 
      1     -19.9763      2.00000
      2     -10.7187      2.00000
      3      -9.3369      2.00000
      4      -7.7117      2.00000
      5       3.3563      0.00000
      6       3.5534      0.00000
      7       4.3673      0.00000
      8       4.7870      0.00000

 k-point   125 :       0.3401    0.1701    0.0000
  band No.  band energies     occupation 
      1     -20.1400      2.00000
      2     -10.4732      2.00000
      3      -9.1202      2.00000
      4      -7.8998      2.00000
      5       3.3261      0.00000
      6       3.6630      0.00000
      7       4.1403      0.00000
      8       4.5530      0.00000

 k-point   126 :       0.3265    0.1633    0.0000
  band No.  band energies     occupation 
      1     -20.2978      2.00000
      2     -10.2251      2.00000
      3      -8.9040      2.00000
      4      -8.0817      2.00000
      5       3.1075      0.00000
      6       3.9215      0.00000
      7       3.9702      0.00000
      8       4.3282      0.00000

 k-point   127 :       0.3129    0.1565    0.0000
  band No.  band energies     occupation 
      1     -20.4494      2.00000
      2      -9.9747      2.00000
      3      -8.6891      2.00000
      4      -8.2572      2.00000
      5       2.8977      0.00000
      6       3.7113      0.00000
      7       4.1125      0.00000
      8       4.2771      0.00000

 k-point   128 :       0.2993    0.1497    0.0000
  band No.  band energies     occupation 
      1     -20.5949      2.00000
      2      -9.7224      2.00000
      3      -8.4760      2.00000
      4      -8.4263      2.00000
      5       2.6967      0.00000
      6       3.5096      0.00000
      7       3.9060      0.00000
      8       4.7904      0.00000

 k-point   129 :       0.2857    0.1429    0.0000
  band No.  band energies     occupation 
      1     -20.7343      2.00000
      2      -9.4688      2.00000
      3      -8.5887      2.00000
      4      -8.2652      2.00000
      5       2.5045      0.00000
      6       3.3165      0.00000
      7       3.7087      0.00000
      8       4.5964      0.00000

 k-point   130 :       0.2721    0.1361    0.0000
  band No.  band energies     occupation 
      1     -20.8675      2.00000
      2      -9.2142      2.00000
      3      -8.7443      2.00000
      4      -8.0574      2.00000
      5       2.3211      0.00000
      6       3.1322      0.00000
      7       3.5205      0.00000
      8       4.4112      0.00000

 k-point   131 :       0.2585    0.1293    0.0000
  band No.  band energies     occupation 
      1     -20.9944      2.00000
      2      -8.9594      2.00000
      3      -8.8930      2.00000
      4      -7.8533      2.00000
      5       2.1467      0.00000
      6       2.9567      0.00000
      7       3.3415      0.00000
      8       4.2348      0.00000

 k-point   132 :       0.2449    0.1224    0.0000
  band No.  band energies     occupation 
      1     -21.1149      2.00000
      2      -9.0346      2.00000
      3      -8.7049      2.00000
      4      -7.6534      2.00000
      5       1.9811      0.00000
      6       2.7900      0.00000
      7       3.1717      0.00000
      8       4.0673      0.00000

 k-point   133 :       0.2313    0.1156    0.0000
  band No.  band energies     occupation 
      1     -21.2292      2.00000
      2      -9.1691      2.00000
      3      -8.4515      2.00000
      4      -7.4586      2.00000
      5       1.8245      0.00000
      6       2.6321      0.00000
      7       3.0111      0.00000
      8       3.9088      0.00000

 k-point   134 :       0.2177    0.1088    0.0000
  band No.  band energies     occupation 
      1     -21.3370      2.00000
      2      -9.2964      2.00000
      3      -8.2000      2.00000
      4      -7.2695      2.00000
      5       1.6767      0.00000
      6       2.4832      0.00000
      7       2.8597      0.00000
      8       3.7592      0.00000

 k-point   135 :       0.2041    0.1020    0.0000
  band No.  band energies     occupation 
      1     -21.4385      2.00000
      2      -9.4163      2.00000
      3      -7.9514      2.00000
      4      -7.0869      2.00000
      5       1.5379      0.00000
      6       2.3431      0.00000
      7       2.7174      0.00000
      8       3.6187      0.00000

 k-point   136 :       0.1905    0.0952    0.0000
  band No.  band energies     occupation 
      1     -21.5335      2.00000
      2      -9.5288      2.00000
      3      -7.7067      2.00000
      4      -6.9115      2.00000
      5       1.4080      0.00000
      6       2.2120      0.00000
      7       2.5843      0.00000
      8       3.4871      0.00000

 k-point   137 :       0.1769    0.0884    0.0000
  band No.  band energies     occupation 
      1     -21.6221      2.00000
      2      -9.6339      2.00000
      3      -7.4672      2.00000
      4      -6.7441      2.00000
      5       1.2871      0.00000
      6       2.0899      0.00000
      7       2.4604      0.00000
      8       3.3645      0.00000

 k-point   138 :       0.1633    0.0816    0.0000
  band No.  band energies     occupation 
      1     -21.7041      2.00000
      2      -9.7313      2.00000
      3      -7.2342      2.00000
      4      -6.5854      2.00000
      5       1.1751      0.00000
      6       1.9768      0.00000
      7       2.3456      0.00000
      8       3.2510      0.00000

 k-point   139 :       0.1497    0.0748    0.0000
  band No.  band energies     occupation 
      1     -21.7797      2.00000
      2      -9.8212      2.00000
      3      -7.0091      2.00000
      4      -6.4361      2.00000
      5       1.0721      0.00000
      6       1.8727      0.00000
      7       2.2401      0.00000
      8       3.1466      0.00000

 k-point   140 :       0.1361    0.0680    0.0000
  band No.  band energies     occupation 
      1     -21.8488      2.00000
      2      -9.9035      2.00000
      3      -6.7936      2.00000
      4      -6.2970      2.00000
      5       0.9780      0.00000
      6       1.7776      0.00000
      7       2.1437      0.00000
      8       3.0511      0.00000

 k-point   141 :       0.1224    0.0612    0.0000
  band No.  band energies     occupation 
      1     -21.9113      2.00000
      2      -9.9780      2.00000
      3      -6.5895      2.00000
      4      -6.1687      2.00000
      5       0.8929      0.00000
      6       1.6915      0.00000
      7       2.0565      0.00000
      8       2.9648      0.00000

 k-point   142 :       0.1088    0.0544    0.0000
  band No.  band energies     occupation 
      1     -21.9673      2.00000
      2     -10.0448      2.00000
      3      -6.3987      2.00000
      4      -6.0520      2.00000
      5       0.8168      0.00000
      6       1.6145      0.00000
      7       1.9785      0.00000
      8       2.8875      0.00000

 k-point   143 :       0.0952    0.0476    0.0000
  band No.  band energies     occupation 
      1     -22.0168      2.00000
      2     -10.1038      2.00000
      3      -6.2233      2.00000
      4      -5.9474      2.00000
      5       0.7496      0.00000
      6       1.5465      0.00000
      7       1.9097      0.00000
      8       2.8193      0.00000

 k-point   144 :       0.0816    0.0408    0.0000
  band No.  band energies     occupation 
      1     -22.0596      2.00000
      2     -10.1550      2.00000
      3      -6.0653      2.00000
      4      -5.8555      2.00000
      5       0.6914      0.00000
      6       1.4876      0.00000
      7       1.8500      0.00000
      8       2.7602      0.00000

 k-point   145 :       0.0680    0.0340    0.0000
  band No.  band energies     occupation 
      1     -22.0959      2.00000
      2     -10.1983      2.00000
      3      -5.9271      2.00000
      4      -5.7768      2.00000
      5       0.6421      0.00000
      6       1.4377      0.00000
      7       1.7996      0.00000
      8       2.7102      0.00000

 k-point   146 :       0.0544    0.0272    0.0000
  band No.  band energies     occupation 
      1     -22.1256      2.00000
      2     -10.2339      2.00000
      3      -5.8105      2.00000
      4      -5.7119      2.00000
      5       0.6019      0.00000
      6       1.3969      0.00000
      7       1.7583      0.00000
      8       2.6692      0.00000

 k-point   147 :       0.0408    0.0204    0.0000
  band No.  band energies     occupation 
      1     -22.1487      2.00000
      2     -10.2615      2.00000
      3      -5.7176      2.00000
      4      -5.6609      2.00000
      5       0.5705      0.00000
      6       1.3652      0.00000
      7       1.7261      0.00000
      8       2.6374      0.00000

 k-point   148 :       0.0272    0.0136    0.0000
  band No.  band energies     occupation 
      1     -22.1652      2.00000
      2     -10.2812      2.00000
      3      -5.6499      2.00000
      4      -5.6244      2.00000
      5       0.5481      0.00000
      6       1.3425      0.00000
      7       1.7032      0.00000
      8       2.6147      0.00000

 k-point   149 :       0.0136    0.0068    0.0000
  band No.  band energies     occupation 
      1     -22.1751      2.00000
      2     -10.2931      2.00000
      3      -5.6088      2.00000
      4      -5.6023      2.00000
      5       0.5347      0.00000
      6       1.3289      0.00000
      7       1.6894      0.00000
      8       2.6010      0.00000

 k-point   150 :      -0.0000    0.0000    0.0000
  band No.  band energies     occupation 
      1     -22.1784      2.00000
      2     -10.2970      2.00000
      3      -5.5950      2.00000
      4      -5.5949      2.00000
      5       0.5302      0.00000
      6       1.3243      0.00000
      7       1.6849      0.00000
      8       2.5965      0.00000


--------------------------------------------------------------------------------------------------------


 soft charge-density along one line, spin component           1
         0         1         2         3         4         5         6         7         8         9
 total charge-density along one line
 
 pseudopotential strength for first ion, spin component:           1
 10.205  13.571   0.000   0.000   0.000  -0.000  -0.000  -0.000
 13.571  18.046   0.000   0.000   0.000  -0.000  -0.000  -0.000
  0.000   0.000  -4.332  -0.000  -0.000   8.473   0.000   0.000
  0.000   0.000  -0.000  -4.325  -0.000   0.000   8.464   0.000
  0.000   0.000  -0.000  -0.000  -4.332   0.000   0.000   8.473
 -0.000  -0.000   8.473   0.000   0.000 -18.707  -0.000  -0.000
 -0.000  -0.000   0.000   8.464   0.000  -0.000 -18.700  -0.000
 -0.000  -0.000   0.000   0.000   8.473  -0.000  -0.000 -18.707
 total augmentation occupancy for first ion, spin component:           1
  8.316  -3.734   0.000   0.000  -0.000   0.000   0.000  -0.000
 -3.734   1.726  -0.000   0.000   0.000   0.000   0.000  -0.000
  0.000   0.000   1.846  -0.000   0.000   0.169   0.000   0.000
  0.000   0.000   0.000   1.204   0.000  -0.000   0.071   0.000
 -0.000   0.000   0.000   0.000   1.846   0.000  -0.000   0.169
  0.000   0.000   0.169   0.000   0.000   0.017   0.000   0.000
  0.000   0.000   0.000   0.071   0.000  -0.000   0.005  -0.000
 -0.000  -0.000   0.000   0.000   0.169   0.000  -0.000   0.017


------------------------ aborting loop because EDIFF is reached ----------------------------------------


    CHARGE:  cpu time    0.2296: real time    0.2302
    FORLOC:  cpu time    0.0035: real time    0.0036
    FORNL :  cpu time    0.3413: real time    0.3421
    STRESS:  cpu time    2.0584: real time    2.0633
    FORCOR:  cpu time    0.0704: real time    0.0705
    FORHAR:  cpu time    0.0175: real time    0.0175
    MIXING:  cpu time    0.0043: real time    0.0043
    OFIELD:  cpu time    0.0000: real time    0.0000

  FORCE on cell =-STRESS in cart. coord.  units (eV):
  Direction    XX          YY          ZZ          XY          YZ          ZX
  --------------------------------------------------------------------------------------
  Alpha Z     3.13611     3.13611     3.13611
  Ewald    1572.61546  1572.61484 -1842.19716     0.00000     0.00000    -0.00000
  Hartree  1539.51907  1539.51907 -1527.93215    -0.00000    -0.00000    -0.00000
  E(xc)     -29.83554   -29.83554   -30.93858     0.00000    -0.00000     0.00000
  Local   -3197.56504 -3197.56473  3267.80934    -0.00000     0.00000     0.00000
  n-local    -8.07537    -7.95049    -7.31363     0.16419     0.00000    -0.00000
  augment    -0.82925    -0.82925    -0.76125     0.00000    -0.00000    -0.00000
  Kinetic   125.61593   119.89141   138.17455    -1.48305    -0.00000     0.00000
  Fock        0.00000     0.00000     0.00000     0.00000     0.00000     0.00000
  -------------------------------------------------------------------------------------
  Total       1.78139     1.78139    -0.02277     0.00000    -0.00000     0.00000
  in kB      27.24032    27.24032    -0.34822     0.00000    -0.00000     0.00000
  external pressure =       18.04 kB  Pullay stress =        0.00 kB


 VOLUME and BASIS-vectors are now :
 -----------------------------------------------------------------------------
  energy-cutoff  :      800.00
  volume of cell :      104.78
      direct lattice vectors                 reciprocal lattice vectors
     2.130000000 -1.229756000  0.000000000     0.234741784 -0.406584721  0.000000000
     2.130000000  1.229756000  0.000000000     0.234741784  0.406584721  0.000000000
     0.000000000  0.000000000 20.000000000     0.000000000  0.000000000  0.050000000

  length of vectors
     2.459512110  2.459512110 20.000000000     0.469483589  0.469483589  0.050000000


 FORCES acting on ions
    electron-ion (+dipol)            ewald-force                    non-local-force                 convergence-correction
 -----------------------------------------------------------------------------------------------
   0.385E-06 -.661E-12 -.196E-08   -.241E-03 0.675E-14 -.161E-22   -.102E-15 0.247E-16 0.404E-27   0.554E-11 0.330E-14 0.855E-13
   0.274E-03 0.678E-12 0.197E-08   0.241E-03 -.447E-14 0.161E-22   0.116E-15 -.131E-16 0.000E+00   -.568E-11 -.209E-14 0.916E-13
 -----------------------------------------------------------------------------------------------
   0.274E-03 0.170E-13 0.651E-11   0.429E-14 0.228E-14 0.000E+00   0.133E-16 0.117E-16 0.404E-27   -.140E-12 0.121E-14 0.177E-12
 
 
 POSITION                                       TOTAL-FORCE (eV/Angst)
 -----------------------------------------------------------------------------------
      0.00000      0.00000      0.00000        -0.000000     -0.000000      0.000000
      1.42000      0.00000      0.00000         0.000000      0.000000      0.000000
 -----------------------------------------------------------------------------------
    total drift:                                0.000274      0.000000      0.000000


--------------------------------------------------------------------------------------------------------



  FREE ENERGIE OF THE ION-ELECTRON SYSTEM (eV)
  ---------------------------------------------------
  free  energy   TOTEN  =       -17.35894030 eV

  energy  without entropy=      -17.35878985  energy(sigma->0) =      -17.35886507
 


--------------------------------------------------------------------------------------------------------


    POTLOK:  cpu time    0.1026: real time    0.1029


--------------------------------------------------------------------------------------------------------




--------------------------------------------------------------------------------------------------------


  
 reached required accuracy - stopping structural energy minimisation
     LOOP+:  cpu time   83.5647: real time   84.1057
    4ORBIT:  cpu time    0.0000: real time    0.0000

 total amount of memory used by VASP MPI-rank0   156283. kBytes
=======================================================================

   base      :      30000. kBytes
   nonl-proj :      52321. kBytes
   fftplans  :      32720. kBytes
   grid      :      15086. kBytes
   one-center:          6. kBytes
   wavefun   :      26150. kBytes
 
  
  
 General timing and accounting informations for this job:
 ========================================================
  
                  Total CPU time used (sec):       86.048
                            User time (sec):       85.310
                          System time (sec):        0.738
                         Elapsed time (sec):       89.181
  
                   Maximum memory used (kb):      242292.
                   Average memory used (kb):           0.
  
                          Minor page faults:        77864
                          Major page faults:           29
                 Voluntary context switches:         1420
