<?xml version="1.0" encoding="ISO-8859-1"?>
<modeling>
 <generator>
  <i name="program" type="string">vasp </i>
  <i name="version" type="string">5.4.4.18Apr17-6-g9f103f2a35  </i>
  <i name="subversion" type="string">(build May 31 2018 21:15:54) complex            parallel </i>
  <i name="platform" type="string">c7_intel_O1 </i>
  <i name="date" type="string">2020 07 28 </i>
  <i name="time" type="string">01:06:16 </i>
 </generator>
 <incar>
  <i type="string" name="SYSTEM"> bilayer_graphene_AA</i>
  <i type="int" name="ISTART">     0</i>
  <i type="string" name="PREC">accurate</i>
  <i type="string" name="ALGO"> N</i>
  <i type="logical" name="ADDGRID"> T  </i>
  <i name="AMIN">      0.01000000</i>
  <i type="int" name="NELMIN">     5</i>
  <i type="int" name="IBRION">     2</i>
  <i name="EDIFF">      0.00000001</i>
  <i name="EDIFFG">     -0.00000100</i>
  <i type="int" name="NSW">    40</i>
  <i name="SYMPREC">      0.00010000</i>
  <i name="ENCUT">    800.00000000</i>
  <i type="logical" name="LREAL"> F  </i>
  <i type="int" name="ISMEAR">     0</i>
  <i name="SIGMA">      0.01000000</i>
  <i type="logical" name="LWAVE"> F  </i>
  <v type="int" name="KPOINT_BSE">    -1     0     0     0</v>
 </incar>
 <structure name="primitive_cell" >
  <crystal>
   <varray name="basis" >
    <v>       2.13000000      -1.22975600       0.00000000 </v>
    <v>       2.13000000       1.22975600       0.00000000 </v>
    <v>       0.00000000       0.00000000      20.00000000 </v>
   </varray>
   <i name="volume">    104.77521120 </i>
   <varray name="rec_basis" >
    <v>       0.23474178      -0.40658472       0.00000000 </v>
    <v>       0.23474178       0.40658472       0.00000000 </v>
    <v>       0.00000000       0.00000000       0.05000000 </v>
   </varray>
  </crystal>
  <varray name="positions" >
   <v>       0.00000000       0.00000000       0.00000000 </v>
   <v>       0.33333300       0.33333300       0.00000000 </v>
  </varray>
 </structure>
 <varray name="primitive_index" >
  <v type="int" >        1 </v>
  <v type="int" >        2 </v>
 </varray>
 <kpoints>
  <generation param="listgenerated">
   <i name="divisions" type="int">      50 </i>
   <v>       0.00000000       0.00000000       0.00000000 </v>
   <v>       0.50000000       0.50000000       0.00000000 </v>
   <v>       0.66666700       0.33333300       0.00000000 </v>
   <v>      -0.00000000       0.00000000       0.00000000 </v>
  </generation>
  <varray name="kpointlist" >
   <v>       0.00000000       0.00000000       0.00000000 </v>
   <v>       0.01020408       0.01020408       0.00000000 </v>
   <v>       0.02040816       0.02040816       0.00000000 </v>
   <v>       0.03061224       0.03061224       0.00000000 </v>
   <v>       0.04081633       0.04081633       0.00000000 </v>
   <v>       0.05102041       0.05102041       0.00000000 </v>
   <v>       0.06122449       0.06122449       0.00000000 </v>
   <v>       0.07142857       0.07142857       0.00000000 </v>
   <v>       0.08163265       0.08163265       0.00000000 </v>
   <v>       0.09183673       0.09183673       0.00000000 </v>
   <v>       0.10204082       0.10204082       0.00000000 </v>
   <v>       0.11224490       0.11224490       0.00000000 </v>
   <v>       0.12244898       0.12244898       0.00000000 </v>
   <v>       0.13265306       0.13265306       0.00000000 </v>
   <v>       0.14285714       0.14285714       0.00000000 </v>
   <v>       0.15306122       0.15306122       0.00000000 </v>
   <v>       0.16326531       0.16326531       0.00000000 </v>
   <v>       0.17346939       0.17346939       0.00000000 </v>
   <v>       0.18367347       0.18367347       0.00000000 </v>
   <v>       0.19387755       0.19387755       0.00000000 </v>
   <v>       0.20408163       0.20408163       0.00000000 </v>
   <v>       0.21428571       0.21428571       0.00000000 </v>
   <v>       0.22448980       0.22448980       0.00000000 </v>
   <v>       0.23469388       0.23469388       0.00000000 </v>
   <v>       0.24489796       0.24489796       0.00000000 </v>
   <v>       0.25510204       0.25510204       0.00000000 </v>
   <v>       0.26530612       0.26530612       0.00000000 </v>
   <v>       0.27551020       0.27551020       0.00000000 </v>
   <v>       0.28571429       0.28571429       0.00000000 </v>
   <v>       0.29591837       0.29591837       0.00000000 </v>
   <v>       0.30612245       0.30612245       0.00000000 </v>
   <v>       0.31632653       0.31632653       0.00000000 </v>
   <v>       0.32653061       0.32653061       0.00000000 </v>
   <v>       0.33673469       0.33673469       0.00000000 </v>
   <v>       0.34693878       0.34693878       0.00000000 </v>
   <v>       0.35714286       0.35714286       0.00000000 </v>
   <v>       0.36734694       0.36734694       0.00000000 </v>
   <v>       0.37755102       0.37755102       0.00000000 </v>
   <v>       0.38775510       0.38775510       0.00000000 </v>
   <v>       0.39795918       0.39795918       0.00000000 </v>
   <v>       0.40816327       0.40816327       0.00000000 </v>
   <v>       0.41836735       0.41836735       0.00000000 </v>
   <v>       0.42857143       0.42857143       0.00000000 </v>
   <v>       0.43877551       0.43877551       0.00000000 </v>
   <v>       0.44897959       0.44897959       0.00000000 </v>
   <v>       0.45918367       0.45918367       0.00000000 </v>
   <v>       0.46938776       0.46938776       0.00000000 </v>
   <v>       0.47959184       0.47959184       0.00000000 </v>
   <v>       0.48979592       0.48979592       0.00000000 </v>
   <v>       0.50000000       0.50000000       0.00000000 </v>
   <v>       0.50000000       0.50000000       0.00000000 </v>
   <v>       0.50340137       0.49659863       0.00000000 </v>
   <v>       0.50680273       0.49319727       0.00000000 </v>
   <v>       0.51020410       0.48979590       0.00000000 </v>
   <v>       0.51360547       0.48639453       0.00000000 </v>
   <v>       0.51700684       0.48299316       0.00000000 </v>
   <v>       0.52040820       0.47959180       0.00000000 </v>
   <v>       0.52380957       0.47619043       0.00000000 </v>
   <v>       0.52721094       0.47278906       0.00000000 </v>
   <v>       0.53061231       0.46938769       0.00000000 </v>
   <v>       0.53401367       0.46598633       0.00000000 </v>
   <v>       0.53741504       0.46258496       0.00000000 </v>
   <v>       0.54081641       0.45918359       0.00000000 </v>
   <v>       0.54421778       0.45578222       0.00000000 </v>
   <v>       0.54761914       0.45238086       0.00000000 </v>
   <v>       0.55102051       0.44897949       0.00000000 </v>
   <v>       0.55442188       0.44557812       0.00000000 </v>
   <v>       0.55782324       0.44217676       0.00000000 </v>
   <v>       0.56122461       0.43877539       0.00000000 </v>
   <v>       0.56462598       0.43537402       0.00000000 </v>
   <v>       0.56802735       0.43197265       0.00000000 </v>
   <v>       0.57142871       0.42857129       0.00000000 </v>
   <v>       0.57483008       0.42516992       0.00000000 </v>
   <v>       0.57823145       0.42176855       0.00000000 </v>
   <v>       0.58163282       0.41836718       0.00000000 </v>
   <v>       0.58503418       0.41496582       0.00000000 </v>
   <v>       0.58843555       0.41156445       0.00000000 </v>
   <v>       0.59183692       0.40816308       0.00000000 </v>
   <v>       0.59523829       0.40476171       0.00000000 </v>
   <v>       0.59863965       0.40136035       0.00000000 </v>
   <v>       0.60204102       0.39795898       0.00000000 </v>
   <v>       0.60544239       0.39455761       0.00000000 </v>
   <v>       0.60884376       0.39115624       0.00000000 </v>
   <v>       0.61224512       0.38775488       0.00000000 </v>
   <v>       0.61564649       0.38435351       0.00000000 </v>
   <v>       0.61904786       0.38095214       0.00000000 </v>
   <v>       0.62244922       0.37755078       0.00000000 </v>
   <v>       0.62585059       0.37414941       0.00000000 </v>
   <v>       0.62925196       0.37074804       0.00000000 </v>
   <v>       0.63265333       0.36734667       0.00000000 </v>
   <v>       0.63605469       0.36394531       0.00000000 </v>
   <v>       0.63945606       0.36054394       0.00000000 </v>
   <v>       0.64285743       0.35714257       0.00000000 </v>
   <v>       0.64625880       0.35374120       0.00000000 </v>
   <v>       0.64966016       0.35033984       0.00000000 </v>
   <v>       0.65306153       0.34693847       0.00000000 </v>
   <v>       0.65646290       0.34353710       0.00000000 </v>
   <v>       0.65986427       0.34013573       0.00000000 </v>
   <v>       0.66326563       0.33673437       0.00000000 </v>
   <v>       0.66666700       0.33333300       0.00000000 </v>
   <v>       0.66666700       0.33333300       0.00000000 </v>
   <v>       0.65306155       0.32653029       0.00000000 </v>
   <v>       0.63945610       0.31972757       0.00000000 </v>
   <v>       0.62585065       0.31292486       0.00000000 </v>
   <v>       0.61224520       0.30612214       0.00000000 </v>
   <v>       0.59863976       0.29931943       0.00000000 </v>
   <v>       0.58503431       0.29251671       0.00000000 </v>
   <v>       0.57142886       0.28571400       0.00000000 </v>
   <v>       0.55782341       0.27891129       0.00000000 </v>
   <v>       0.54421796       0.27210857       0.00000000 </v>
   <v>       0.53061251       0.26530586       0.00000000 </v>
   <v>       0.51700706       0.25850314       0.00000000 </v>
   <v>       0.50340161       0.25170043       0.00000000 </v>
   <v>       0.48979616       0.24489771       0.00000000 </v>
   <v>       0.47619071       0.23809500       0.00000000 </v>
   <v>       0.46258527       0.23129229       0.00000000 </v>
   <v>       0.44897982       0.22448957       0.00000000 </v>
   <v>       0.43537437       0.21768686       0.00000000 </v>
   <v>       0.42176892       0.21088414       0.00000000 </v>
   <v>       0.40816347       0.20408143       0.00000000 </v>
   <v>       0.39455802       0.19727871       0.00000000 </v>
   <v>       0.38095257       0.19047600       0.00000000 </v>
   <v>       0.36734712       0.18367329       0.00000000 </v>
   <v>       0.35374167       0.17687057       0.00000000 </v>
   <v>       0.34013622       0.17006786       0.00000000 </v>
   <v>       0.32653078       0.16326514       0.00000000 </v>
   <v>       0.31292533       0.15646243       0.00000000 </v>
   <v>       0.29931988       0.14965971       0.00000000 </v>
   <v>       0.28571443       0.14285700       0.00000000 </v>
   <v>       0.27210898       0.13605429       0.00000000 </v>
   <v>       0.25850353       0.12925157       0.00000000 </v>
   <v>       0.24489808       0.12244886       0.00000000 </v>
   <v>       0.23129263       0.11564614       0.00000000 </v>
   <v>       0.21768718       0.10884343       0.00000000 </v>
   <v>       0.20408173       0.10204071       0.00000000 </v>
   <v>       0.19047629       0.09523800       0.00000000 </v>
   <v>       0.17687084       0.08843529       0.00000000 </v>
   <v>       0.16326539       0.08163257       0.00000000 </v>
   <v>       0.14965994       0.07482986       0.00000000 </v>
   <v>       0.13605449       0.06802714       0.00000000 </v>
   <v>       0.12244904       0.06122443       0.00000000 </v>
   <v>       0.10884359       0.05442171       0.00000000 </v>
   <v>       0.09523814       0.04761900       0.00000000 </v>
   <v>       0.08163269       0.04081629       0.00000000 </v>
   <v>       0.06802724       0.03401357       0.00000000 </v>
   <v>       0.05442180       0.02721086       0.00000000 </v>
   <v>       0.04081635       0.02040814       0.00000000 </v>
   <v>       0.02721090       0.01360543       0.00000000 </v>
   <v>       0.01360545       0.00680271       0.00000000 </v>
   <v>      -0.00000000       0.00000000       0.00000000 </v>
  </varray>
  <varray name="weights" >
   <v>       0.00666667 </v>
   <v>       0.00666667 </v>
   <v>       0.00666667 </v>
   <v>       0.00666667 </v>
   <v>       0.00666667 </v>
   <v>       0.00666667 </v>
   <v>       0.00666667 </v>
   <v>       0.00666667 </v>
   <v>       0.00666667 </v>
   <v>       0.00666667 </v>
   <v>       0.00666667 </v>
   <v>       0.00666667 </v>
   <v>       0.00666667 </v>
   <v>       0.00666667 </v>
   <v>       0.00666667 </v>
   <v>       0.00666667 </v>
   <v>       0.00666667 </v>
   <v>       0.00666667 </v>
   <v>       0.00666667 </v>
   <v>       0.00666667 </v>
   <v>       0.00666667 </v>
   <v>       0.00666667 </v>
   <v>       0.00666667 </v>
   <v>       0.00666667 </v>
   <v>       0.00666667 </v>
   <v>       0.00666667 </v>
   <v>       0.00666667 </v>
   <v>       0.00666667 </v>
   <v>       0.00666667 </v>
   <v>       0.00666667 </v>
   <v>       0.00666667 </v>
   <v>       0.00666667 </v>
   <v>       0.00666667 </v>
   <v>       0.00666667 </v>
   <v>       0.00666667 </v>
   <v>       0.00666667 </v>
   <v>       0.00666667 </v>
   <v>       0.00666667 </v>
   <v>       0.00666667 </v>
   <v>       0.00666667 </v>
   <v>       0.00666667 </v>
   <v>       0.00666667 </v>
   <v>       0.00666667 </v>
   <v>       0.00666667 </v>
   <v>       0.00666667 </v>
   <v>       0.00666667 </v>
   <v>       0.00666667 </v>
   <v>       0.00666667 </v>
   <v>       0.00666667 </v>
   <v>       0.00666667 </v>
   <v>       0.00666667 </v>
   <v>       0.00666667 </v>
   <v>       0.00666667 </v>
   <v>       0.00666667 </v>
   <v>       0.00666667 </v>
   <v>       0.00666667 </v>
   <v>       0.00666667 </v>
   <v>       0.00666667 </v>
   <v>       0.00666667 </v>
   <v>       0.00666667 </v>
   <v>       0.00666667 </v>
   <v>       0.00666667 </v>
   <v>       0.00666667 </v>
   <v>       0.00666667 </v>
   <v>       0.00666667 </v>
   <v>       0.00666667 </v>
   <v>       0.00666667 </v>
   <v>       0.00666667 </v>
   <v>       0.00666667 </v>
   <v>       0.00666667 </v>
   <v>       0.00666667 </v>
   <v>       0.00666667 </v>
   <v>       0.00666667 </v>
   <v>       0.00666667 </v>
   <v>       0.00666667 </v>
   <v>       0.00666667 </v>
   <v>       0.00666667 </v>
   <v>       0.00666667 </v>
   <v>       0.00666667 </v>
   <v>       0.00666667 </v>
   <v>       0.00666667 </v>
   <v>       0.00666667 </v>
   <v>       0.00666667 </v>
   <v>       0.00666667 </v>
   <v>       0.00666667 </v>
   <v>       0.00666667 </v>
   <v>       0.00666667 </v>
   <v>       0.00666667 </v>
   <v>       0.00666667 </v>
   <v>       0.00666667 </v>
   <v>       0.00666667 </v>
   <v>       0.00666667 </v>
   <v>       0.00666667 </v>
   <v>       0.00666667 </v>
   <v>       0.00666667 </v>
   <v>       0.00666667 </v>
   <v>       0.00666667 </v>
   <v>       0.00666667 </v>
   <v>       0.00666667 </v>
   <v>       0.00666667 </v>
   <v>       0.00666667 </v>
   <v>       0.00666667 </v>
   <v>       0.00666667 </v>
   <v>       0.00666667 </v>
   <v>       0.00666667 </v>
   <v>       0.00666667 </v>
   <v>       0.00666667 </v>
   <v>       0.00666667 </v>
   <v>       0.00666667 </v>
   <v>       0.00666667 </v>
   <v>       0.00666667 </v>
   <v>       0.00666667 </v>
   <v>       0.00666667 </v>
   <v>       0.00666667 </v>
   <v>       0.00666667 </v>
   <v>       0.00666667 </v>
   <v>       0.00666667 </v>
   <v>       0.00666667 </v>
   <v>       0.00666667 </v>
   <v>       0.00666667 </v>
   <v>       0.00666667 </v>
   <v>       0.00666667 </v>
   <v>       0.00666667 </v>
   <v>       0.00666667 </v>
   <v>       0.00666667 </v>
   <v>       0.00666667 </v>
   <v>       0.00666667 </v>
   <v>       0.00666667 </v>
   <v>       0.00666667 </v>
   <v>       0.00666667 </v>
   <v>       0.00666667 </v>
   <v>       0.00666667 </v>
   <v>       0.00666667 </v>
   <v>       0.00666667 </v>
   <v>       0.00666667 </v>
   <v>       0.00666667 </v>
   <v>       0.00666667 </v>
   <v>       0.00666667 </v>
   <v>       0.00666667 </v>
   <v>       0.00666667 </v>
   <v>       0.00666667 </v>
   <v>       0.00666667 </v>
   <v>       0.00666667 </v>
   <v>       0.00666667 </v>
   <v>       0.00666667 </v>
   <v>       0.00666667 </v>
   <v>       0.00666667 </v>
   <v>       0.00666667 </v>
   <v>       0.00666667 </v>
   <v>       0.00666667 </v>
  </varray>
 </kpoints>
 <parameters>
  <separator name="general" >
   <i type="string" name="SYSTEM">bilayer_graphene_AA</i>
   <i type="logical" name="LCOMPAT"> F  </i>
  </separator>
  <separator name="electronic" >
   <i type="string" name="PREC">accura</i>
   <i name="ENMAX">    800.00000000</i>
   <i name="ENAUG">    644.87300000</i>
   <i name="EDIFF">      0.00000001</i>
   <i type="int" name="IALGO">    38</i>
   <i type="int" name="IWAVPR">    11</i>
   <i type="int" name="NBANDS">     8</i>
   <i name="NELECT">      8.00000000</i>
   <i type="int" name="TURBO">     0</i>
   <i type="int" name="IRESTART">     0</i>
   <i type="int" name="NREBOOT">     0</i>
   <i type="int" name="NMIN">     0</i>
   <i name="EREF">      0.00000000</i>
   <separator name="electronic smearing" >
    <i type="int" name="ISMEAR">     0</i>
    <i name="SIGMA">      0.01000000</i>
    <i name="KSPACING">      0.50000000</i>
    <i type="logical" name="KGAMMA"> T  </i>
   </separator>
   <separator name="electronic projectors" >
    <i type="logical" name="LREAL"> F  </i>
    <v name="ROPT">      0.00000000</v>
    <i type="int" name="LMAXPAW">  -100</i>
    <i type="int" name="LMAXMIX">     2</i>
    <i type="logical" name="NLSPLINE"> F  </i>
   </separator>
   <separator name="electronic startup" >
    <i type="int" name="ISTART">     0</i>
    <i type="int" name="ICHARG">     2</i>
    <i type="int" name="INIWAV">     1</i>
   </separator>
   <separator name="electronic spin" >
    <i type="int" name="ISPIN">     1</i>
    <i type="logical" name="LNONCOLLINEAR"> F  </i>
    <v name="MAGMOM">      1.00000000      1.00000000</v>
    <i name="NUPDOWN">     -1.00000000</i>
    <i type="logical" name="LSORBIT"> F  </i>
    <v name="SAXIS">      0.00000000      0.00000000      1.00000000</v>
    <i type="logical" name="LSPIRAL"> F  </i>
    <v name="QSPIRAL">      0.00000000      0.00000000      0.00000000</v>
    <i type="logical" name="LZEROZ"> F  </i>
   </separator>
   <separator name="electronic exchange-correlation" >
    <i type="logical" name="LASPH"> F  </i>
    <i type="logical" name="LMETAGGA"> F  </i>
   </separator>
   <separator name="electronic convergence" >
    <i type="int" name="NELM">    60</i>
    <i type="int" name="NELMDL">    -5</i>
    <i type="int" name="NELMIN">     5</i>
    <i name="ENINI">    800.00000000</i>
    <separator name="electronic convergence detail" >
     <i type="logical" name="LDIAG"> T  </i>
     <i type="logical" name="LSUBROT"> F  </i>
     <i name="WEIMIN">      0.00100000</i>
     <i name="EBREAK">      0.00000000</i>
     <i name="DEPER">      0.30000000</i>
     <i type="int" name="NRMM">     4</i>
     <i name="TIME">      0.40000000</i>
    </separator>
   </separator>
   <separator name="electronic mixer" >
    <i name="AMIX">      0.40000000</i>
    <i name="BMIX">      1.00000000</i>
    <i name="AMIN">      0.01000000</i>
    <i name="AMIX_MAG">      1.60000000</i>
    <i name="BMIX_MAG">      1.00000000</i>
    <separator name="electronic mixer details" >
     <i type="int" name="IMIX">     4</i>
     <i type="logical" name="MIXFIRST"> F  </i>
     <i type="int" name="MAXMIX">   -45</i>
     <i name="WC">    100.00000000</i>
     <i type="int" name="INIMIX">     1</i>
     <i type="int" name="MIXPRE">     1</i>
     <i type="int" name="MREMOVE">     5</i>
    </separator>
   </separator>
   <separator name="electronic dipolcorrection" >
    <i type="logical" name="LDIPOL"> F  </i>
    <i type="logical" name="LMONO"> F  </i>
    <i type="int" name="IDIPOL">     0</i>
    <i name="EPSILON">      1.00000000</i>
    <v name="DIPOL">   -100.00000000   -100.00000000   -100.00000000</v>
    <i name="EFIELD">      0.00000000</i>
   </separator>
  </separator>
  <separator name="grids" >
   <i type="int" name="NGX">    24</i>
   <i type="int" name="NGY">    24</i>
   <i type="int" name="NGZ">   192</i>
   <i type="int" name="NGXF">    48</i>
   <i type="int" name="NGYF">    48</i>
   <i type="int" name="NGZF">   384</i>
   <i type="logical" name="ADDGRID"> T  </i>
  </separator>
  <separator name="ionic" >
   <i type="int" name="NSW">    40</i>
   <i type="int" name="IBRION">     2</i>
   <i type="int" name="MDALGO">     0</i>
   <i type="int" name="ISIF">     2</i>
   <i name="PSTRESS">      0.00000000</i>
   <i name="EDIFFG">     -0.00000100</i>
   <i type="int" name="NFREE">     1</i>
   <i name="POTIM">      0.50000000</i>
   <i name="SMASS">     -3.00000000</i>
   <i name="SCALEE">      1.00000000</i>
  </separator>
  <separator name="ionic md" >
   <i name="TEBEG">      0.00010000</i>
   <i name="TEEND">      0.00010000</i>
   <i type="int" name="NBLOCK">     1</i>
   <i type="int" name="KBLOCK">    40</i>
   <i type="int" name="NPACO">   256</i>
   <i name="APACO">     16.00000000</i>
  </separator>
  <separator name="symmetry" >
   <i type="int" name="ISYM">     2</i>
   <i name="SYMPREC">      0.00010000</i>
  </separator>
  <separator name="dos" >
   <i type="int" name="LORBIT">     0</i>
   <v name="RWIGS">     -1.00000000</v>
   <i type="int" name="NEDOS">   301</i>
   <i name="EMIN">     10.00000000</i>
   <i name="EMAX">    -10.00000000</i>
   <i name="EFERMI">      0.00000000</i>
  </separator>
  <separator name="writing" >
   <i type="int" name="NWRITE">     2</i>
   <i type="logical" name="LWAVE"> F  </i>
   <i type="logical" name="LDOWNSAMPLE"> F  </i>
   <i type="logical" name="LCHARG"> T  </i>
   <i type="logical" name="LPARD"> F  </i>
   <i type="logical" name="LVTOT"> F  </i>
   <i type="logical" name="LVHAR"> F  </i>
   <i type="logical" name="LELF"> F  </i>
   <i type="logical" name="LOPTICS"> F  </i>
   <v name="STM">      0.00000000      0.00000000      0.00000000      0.00000000      0.00000000      0.00000000      0.00000000</v>
  </separator>
  <separator name="performance" >
   <i type="int" name="NPAR">     4</i>
   <i type="int" name="NSIM">     4</i>
   <i type="int" name="NBLK">    -1</i>
   <i type="logical" name="LPLANE"> T  </i>
   <i type="logical" name="LSCALAPACK"> T  </i>
   <i type="logical" name="LSCAAWARE"> F  </i>
   <i type="logical" name="LSCALU"> F  </i>
   <i type="logical" name="LASYNC"> F  </i>
   <i type="logical" name="LORBITALREAL"> F  </i>
  </separator>
  <separator name="miscellaneous" >
   <i type="int" name="IDIOT">     3</i>
   <i type="int" name="ISPECIAL">     0</i>
   <i type="logical" name="LMUSIC"> F  </i>
   <v name="POMASS">     12.01100000</v>
   <v name="DARWINR">      0.00000000</v>
   <v name="DARWINV">      1.00000000</v>
   <i type="logical" name="LCORR"> T  </i>
  </separator>
  <i type="logical" name="GGA_COMPAT"> T  </i>
  <i type="logical" name="LBERRY"> F  </i>
  <i type="int" name="ICORELEVEL">     0</i>
  <i type="logical" name="LDAU"> F  </i>
  <i type="int" name="I_CONSTRAINED_M">     0</i>
  <separator name="electronic exchange-correlation" >
   <i type="string" name="GGA">--</i>
   <i type="int" name="VOSKOWN">     0</i>
   <i type="logical" name="LHFCALC"> F  </i>
   <i type="string" name="PRECFOCK"></i>
   <i type="logical" name="LSYMGRAD"> F  </i>
   <i type="logical" name="LHFONE"> F  </i>
   <i type="logical" name="LRHFCALC"> F  </i>
   <i type="logical" name="LTHOMAS"> F  </i>
   <i type="logical" name="LMODELHF"> F  </i>
   <i name="ENCUT4O">     -1.00000000</i>
   <i type="int" name="EXXOEP">     0</i>
   <i type="int" name="FOURORBIT">     0</i>
   <i name="AEXX">      0.00000000</i>
   <i name="HFALPHA">      0.00000000</i>
   <i name="MCALPHA">      0.00000000</i>
   <i name="ALDAX">      1.00000000</i>
   <i name="AGGAX">      1.00000000</i>
   <i name="ALDAC">      1.00000000</i>
   <i name="AGGAC">      1.00000000</i>
   <i type="int" name="NKREDX">     1</i>
   <i type="int" name="NKREDY">     1</i>
   <i type="int" name="NKREDZ">     1</i>
   <i type="logical" name="SHIFTRED"> F  </i>
   <i type="logical" name="ODDONLY"> F  </i>
   <i type="logical" name="EVENONLY"> F  </i>
   <i type="int" name="LMAXFOCK">     0</i>
   <i type="int" name="NMAXFOCKAE">     0</i>
   <i type="logical" name="LFOCKAEDFT"> F  </i>
   <i name="HFSCREEN">      0.00000000</i>
   <i name="HFSCREENC">      0.00000000</i>
   <i type="int" name="NBANDSGWLOW">     0</i>
  </separator>
  <separator name="vdW DFT" >
   <i type="logical" name="LUSE_VDW"> F  </i>
   <i name="Zab_VDW">     -0.84910000</i>
   <i name="PARAM1">      0.12340000</i>
   <i name="PARAM2">      1.00000000</i>
   <i name="PARAM3">      0.00000000</i>
  </separator>
  <separator name="model GW" >
   <i type="int" name="MODEL_GW">     0</i>
   <i name="MODEL_EPS0">     31.43256336</i>
   <i name="MODEL_ALPHA">      1.00000000</i>
  </separator>
  <separator name="linear response parameters" >
   <i type="logical" name="LEPSILON"> F  </i>
   <i type="logical" name="LRPA"> F  </i>
   <i type="logical" name="LNABLA"> F  </i>
   <i type="logical" name="LVEL"> F  </i>
   <i type="int" name="KINTER">     0</i>
   <i name="CSHIFT">      0.10000000</i>
   <i name="OMEGAMAX">     -1.00000000</i>
   <i name="DEG_THRESHOLD">      0.00200000</i>
   <i name="RTIME">     -0.10000000</i>
   <i name="WPLASMAI">      0.00000000</i>
   <v name="DFIELD">      0.00000000      0.00000000      0.00000000</v>
   <v name="WPLASMA">      0.00000000      0.00000000      0.00000000      0.00000000      0.00000000      0.00000000      0.00000000      0.00000000      0.00000000</v>
  </separator>
  <separator name="orbital magnetization" >
   <i type="logical" name="NUCIND"> F  </i>
   <v name="MAGPOS">      0.00000000      0.00000000      0.00000000</v>
   <i type="logical" name="LNICSALL"> T  </i>
   <i type="logical" name="ORBITALMAG"> F  </i>
   <i type="logical" name="LMAGBLOCH"> F  </i>
   <i type="logical" name="LCHIMAG"> F  </i>
   <i type="logical" name="LGAUGE"> T  </i>
   <i type="int" name="MAGATOM">     0</i>
   <v name="MAGDIPOL">      0.00000000      0.00000000      0.00000000</v>
   <v name="AVECCONST">      0.00000000      0.00000000      0.00000000</v>
  </separator>
  <separator name="response functions" >
   <i type="logical" name="LADDER"> F  </i>
   <i type="logical" name="LRPAFORCE"> F  </i>
   <i type="logical" name="LFXC"> F  </i>
   <i type="logical" name="LHARTREE"> T  </i>
   <i type="int" name="IBSE">     0</i>
   <v type="int" name="KPOINT">    -1     0     0     0</v>
   <i type="logical" name="LTCTE"> F  </i>
   <i type="logical" name="LTETE"> F  </i>
   <i type="logical" name="LTRIPLET"> F  </i>
   <i type="logical" name="LFXCEPS"> F  </i>
   <i type="logical" name="LFXHEG"> F  </i>
   <i type="int" name="NATURALO">     2</i>
   <i type="logical" name="L2ORDER"> F  </i>
   <i type="logical" name="LMP2LT"> F  </i>
   <i type="logical" name="LUSEW"> F  </i>
   <i name="ENCUTGW">     -2.00000000</i>
   <i name="ENCUTGWSOFT">     -2.00000000</i>
   <i name="ENCUTLF">     -1.00000000</i>
   <i type="int" name="LMAXMP2">    -1</i>
   <i name="SCISSOR">      0.00000000</i>
   <i type="int" name="NOMEGA">     0</i>
   <i type="int" name="NOMEGAR">     0</i>
   <i type="int" name="NBANDSGW">    -1</i>
   <i type="int" name="NBANDSO">    -1</i>
   <i type="int" name="NBANDSV">    -1</i>
   <i type="int" name="NELM">     1</i>
   <i type="int" name="NELMHF">     1</i>
   <i type="int" name="DIM">     3</i>
   <i type="int" name="ANTIRES">     0</i>
   <i name="OMEGAMAX">    -30.00000000</i>
   <i name="OMEGAMIN">    -30.00000000</i>
   <i name="OMEGATL">   -200.00000000</i>
   <i type="int" name="OMEGAGRID">   140</i>
   <i name="CSHIFT">     -0.10000000</i>
   <i type="logical" name="SELFENERGY"> F  </i>
   <i type="logical" name="LSPECTRAL"> F  </i>
   <i type="logical" name="LSPECTRALGW"> F  </i>
   <i type="logical" name="LSINGLES"> F  </i>
   <i type="logical" name="LFERMIGW"> F  </i>
   <i type="logical" name="ODDONLYGW"> F  </i>
   <i type="logical" name="EVENONLYGW"> F  </i>
   <i type="int" name="NKREDLFX">     1</i>
   <i type="int" name="NKREDLFY">     1</i>
   <i type="int" name="NKREDLFZ">     1</i>
   <i type="int" name="MAXMEM">  2800</i>
   <i type="int" name="TELESCOPE">     0</i>
   <i type="int" name="TAUPAR">     1</i>
   <i type="int" name="OMEGAPAR">    -1</i>
   <i name="LAMBDA">      1.00000000</i>
  </separator>
  <separator name="External order field" >
   <i name="OFIELD_KAPPA">      0.00000000</i>
   <v name="OFIELD_K">      0.00000000      0.00000000      0.00000000</v>
   <i name="OFIELD_Q6_NEAR">      0.00000000</i>
   <i name="OFIELD_Q6_FAR">      0.00000000</i>
   <i name="OFIELD_A">      0.00000000</i>
  </separator>
 </parameters>
 <atominfo>
  <atoms>       2 </atoms>
  <types>       1 </types>
  <array name="atoms" >
   <dimension dim="1">ion</dimension>
   <field type="string">element</field>
   <field type="int">atomtype</field>
   <set>
    <rc><c>C </c><c>   1</c></rc>
    <rc><c>C </c><c>   1</c></rc>
   </set>
  </array>
  <array name="atomtypes" >
   <dimension dim="1">type</dimension>
   <field type="int">atomspertype</field>
   <field type="string">element</field>
   <field>mass</field>
   <field>valence</field>
   <field type="string">pseudopotential</field>
   <set>
    <rc><c>   2</c><c>C </c><c>     12.01100000</c><c>      4.00000000</c><c>  PAW_PBE C 08Apr2002                   </c></rc>
   </set>
  </array>
 </atominfo>
 <structure name="initialpos" >
  <crystal>
   <varray name="basis" >
    <v>       2.13000000      -1.22975600       0.00000000 </v>
    <v>       2.13000000       1.22975600       0.00000000 </v>
    <v>       0.00000000       0.00000000      20.00000000 </v>
   </varray>
   <i name="volume">    104.77521120 </i>
   <varray name="rec_basis" >
    <v>       0.23474178      -0.40658472       0.00000000 </v>
    <v>       0.23474178       0.40658472       0.00000000 </v>
    <v>       0.00000000       0.00000000       0.05000000 </v>
   </varray>
  </crystal>
  <varray name="positions" >
   <v>       0.00000000       0.00000000       0.00000000 </v>
   <v>       0.33333300       0.33333300       0.00000000 </v>
  </varray>
 </structure>
 <calculation>
  <scstep>
   <time name="dav">    2.55    2.67</time>
   <time name="total">    2.68    2.81</time>
   <energy>
    <i name="alphaZ">      3.13611264 </i>
    <i name="ewald">   1303.03316907 </i>
    <i name="hartreedc">  -1515.21333446 </i>
    <i name="XCdc">     26.39530837 </i>
    <i name="pawpsdc">    217.04409276 </i>
    <i name="pawaedc">   -218.18290438 </i>
    <i name="eentropy">     -0.00007159 </i>
    <i name="bandstr">    -54.65177505 </i>
    <i name="atom">    294.30884690 </i>
    <i name="e_fr_energy">     55.86944427 </i>
    <i name="e_wo_entrp">     55.86951585 </i>
    <i name="e_0_energy">     55.86948006 </i>
   </energy>
  </scstep>
  <scstep>
   <time name="dav">    3.49    3.50</time>
   <time name="total">    3.49    3.50</time>
   <energy>
    <i name="e_fr_energy">    -14.12226905 </i>
    <i name="e_wo_entrp">    -14.12226883 </i>
    <i name="e_0_energy">    -14.12226894 </i>
   </energy>
  </scstep>
  <scstep>
   <time name="dav">    3.17    3.17</time>
   <time name="total">    3.17    3.18</time>
   <energy>
    <i name="e_fr_energy">    -18.72714987 </i>
    <i name="e_wo_entrp">    -18.72701637 </i>
    <i name="e_0_energy">    -18.72708312 </i>
   </energy>
  </scstep>
  <scstep>
   <time name="dav">    3.93    3.94</time>
   <time name="total">    3.93    3.94</time>
   <energy>
    <i name="e_fr_energy">    -18.76380725 </i>
    <i name="e_wo_entrp">    -18.76365680 </i>
    <i name="e_0_energy">    -18.76373203 </i>
   </energy>
  </scstep>
  <scstep>
   <time name="dav">    3.40    3.41</time>
   <time name="total">    3.64    3.65</time>
   <energy>
    <i name="e_fr_energy">    -18.76386561 </i>
    <i name="e_wo_entrp">    -18.76371516 </i>
    <i name="e_0_energy">    -18.76379038 </i>
   </energy>
  </scstep>
  <scstep>
   <time name="dav">    3.46    3.46</time>
   <time name="total">    3.80    3.81</time>
   <energy>
    <i name="e_fr_energy">    -17.76322570 </i>
    <i name="e_wo_entrp">    -17.76307525 </i>
    <i name="e_0_energy">    -17.76315048 </i>
   </energy>
  </scstep>
  <scstep>
   <time name="dav">    3.54    3.55</time>
   <time name="total">    3.88    3.89</time>
   <energy>
    <i name="e_fr_energy">    -17.37399033 </i>
    <i name="e_wo_entrp">    -17.37383988 </i>
    <i name="e_0_energy">    -17.37391511 </i>
   </energy>
  </scstep>
  <scstep>
   <time name="dav">    3.70    3.71</time>
   <time name="total">    4.04    4.06</time>
   <energy>
    <i name="e_fr_energy">    -17.36532015 </i>
    <i name="e_wo_entrp">    -17.36516970 </i>
    <i name="e_0_energy">    -17.36524493 </i>
   </energy>
  </scstep>
  <scstep>
   <time name="dav">    3.35    3.36</time>
   <time name="total">    3.69    3.70</time>
   <energy>
    <i name="e_fr_energy">    -17.36349966 </i>
    <i name="e_wo_entrp">    -17.36334921 </i>
    <i name="e_0_energy">    -17.36342444 </i>
   </energy>
  </scstep>
  <scstep>
   <time name="dav">    2.89    2.90</time>
   <time name="total">    3.23    3.24</time>
   <energy>
    <i name="e_fr_energy">    -17.35784703 </i>
    <i name="e_wo_entrp">    -17.35769658 </i>
    <i name="e_0_energy">    -17.35777180 </i>
   </energy>
  </scstep>
  <scstep>
   <time name="dav">    3.04    3.05</time>
   <time name="total">    3.38    3.39</time>
   <energy>
    <i name="e_fr_energy">    -17.35729973 </i>
    <i name="e_wo_entrp">    -17.35714928 </i>
    <i name="e_0_energy">    -17.35722450 </i>
   </energy>
  </scstep>
  <scstep>
   <time name="dav">    3.03    3.03</time>
   <time name="total">    3.36    3.37</time>
   <energy>
    <i name="e_fr_energy">    -17.35747110 </i>
    <i name="e_wo_entrp">    -17.35732065 </i>
    <i name="e_0_energy">    -17.35739588 </i>
   </energy>
  </scstep>
  <scstep>
   <time name="dav">    3.01    3.02</time>
   <time name="total">    3.35    3.35</time>
   <energy>
    <i name="e_fr_energy">    -17.35826600 </i>
    <i name="e_wo_entrp">    -17.35811555 </i>
    <i name="e_0_energy">    -17.35819077 </i>
   </energy>
  </scstep>
  <scstep>
   <time name="dav">    3.27    3.28</time>
   <time name="total">    3.60    3.61</time>
   <energy>
    <i name="e_fr_energy">    -17.35828531 </i>
    <i name="e_wo_entrp">    -17.35813486 </i>
    <i name="e_0_energy">    -17.35821009 </i>
   </energy>
  </scstep>
  <scstep>
   <time name="dav">    2.95    2.95</time>
   <time name="total">    3.28    3.29</time>
   <energy>
    <i name="e_fr_energy">    -17.35855156 </i>
    <i name="e_wo_entrp">    -17.35840111 </i>
    <i name="e_0_energy">    -17.35847634 </i>
   </energy>
  </scstep>
  <scstep>
   <time name="dav">    3.00    3.01</time>
   <time name="total">    3.34    3.37</time>
   <energy>
    <i name="e_fr_energy">    -17.35885435 </i>
    <i name="e_wo_entrp">    -17.35870390 </i>
    <i name="e_0_energy">    -17.35877912 </i>
   </energy>
  </scstep>
  <scstep>
   <time name="dav">    2.94    2.95</time>
   <time name="total">    3.29    3.32</time>
   <energy>
    <i name="e_fr_energy">    -17.35888651 </i>
    <i name="e_wo_entrp">    -17.35873606 </i>
    <i name="e_0_energy">    -17.35881129 </i>
   </energy>
  </scstep>
  <scstep>
   <time name="dav">    2.89    2.89</time>
   <time name="total">    3.22    3.23</time>
   <energy>
    <i name="e_fr_energy">    -17.35893571 </i>
    <i name="e_wo_entrp">    -17.35878526 </i>
    <i name="e_0_energy">    -17.35886049 </i>
   </energy>
  </scstep>
  <scstep>
   <time name="dav">    3.30    3.30</time>
   <time name="total">    3.63    3.65</time>
   <energy>
    <i name="e_fr_energy">    -17.35893833 </i>
    <i name="e_wo_entrp">    -17.35878788 </i>
    <i name="e_0_energy">    -17.35886311 </i>
   </energy>
  </scstep>
  <scstep>
   <time name="dav">    2.93    2.93</time>
   <time name="total">    3.26    3.27</time>
   <energy>
    <i name="e_fr_energy">    -17.35894018 </i>
    <i name="e_wo_entrp">    -17.35878973 </i>
    <i name="e_0_energy">    -17.35886496 </i>
   </energy>
  </scstep>
  <scstep>
   <time name="dav">    3.67    3.68</time>
   <time name="total">    4.01    4.02</time>
   <energy>
    <i name="e_fr_energy">    -17.35894026 </i>
    <i name="e_wo_entrp">    -17.35878981 </i>
    <i name="e_0_energy">    -17.35886503 </i>
   </energy>
  </scstep>
  <scstep>
   <time name="dav">    2.94    2.95</time>
   <time name="total">    3.28    3.29</time>
   <energy>
    <i name="e_fr_energy">    -17.35894029 </i>
    <i name="e_wo_entrp">    -17.35878985 </i>
    <i name="e_0_energy">    -17.35886507 </i>
   </energy>
  </scstep>
  <scstep>
   <time name="dav">    3.52    3.53</time>
   <time name="total">    3.62    3.63</time>
   <energy>
    <i name="alphaZ">      3.13611264 </i>
    <i name="ewald">   1303.03316907 </i>
    <i name="hartreedc">  -1551.10598718 </i>
    <i name="XCdc">     27.64806122 </i>
    <i name="pawpsdc">    864.74764321 </i>
    <i name="pawaedc">   -866.13218566 </i>
    <i name="eentropy">     -0.00015045 </i>
    <i name="bandstr">    -92.99445006 </i>
    <i name="atom">    294.30884690 </i>
    <i name="e_fr_energy">    -17.35894030 </i>
    <i name="e_wo_entrp">    -17.35878985 </i>
    <i name="e_0_energy">    -17.35886507 </i>
   </energy>
  </scstep>
  <structure>
   <crystal>
    <varray name="basis" >
     <v>       2.13000000      -1.22975600       0.00000000 </v>
     <v>       2.13000000       1.22975600       0.00000000 </v>
     <v>       0.00000000       0.00000000      20.00000000 </v>
    </varray>
    <i name="volume">    104.77521120 </i>
    <varray name="rec_basis" >
     <v>       0.23474178      -0.40658472       0.00000000 </v>
     <v>       0.23474178       0.40658472       0.00000000 </v>
     <v>       0.00000000       0.00000000       0.05000000 </v>
    </varray>
   </crystal>
   <varray name="positions" >
    <v>       0.00000000       0.00000000       0.00000000 </v>
    <v>       0.33333300       0.33333300       0.00000000 </v>
   </varray>
  </structure>
  <varray name="forces" >
   <v>      -0.00000000      -0.00000000       0.00000000 </v>
   <v>       0.00000000       0.00000000       0.00000000 </v>
  </varray>
  <varray name="stress" >
   <v>      27.24031980       0.00000000       0.00000000 </v>
   <v>       0.00000000      27.24031655      -0.00000000 </v>
   <v>       0.00000000      -0.00000000      -0.34821973 </v>
  </varray>
  <energy>
   <i name="e_fr_energy">    -17.35894030 </i>
   <i name="e_wo_entrp">    -17.35886507 </i>
   <i name="e_0_energy">     -0.00015045 </i>
  </energy>
  <time name="totalsc">   83.56   84.11</time>
  <eigenvalues>
   <array>
    <dimension dim="1">band</dimension>
    <dimension dim="2">kpoint</dimension>
    <dimension dim="3">spin</dimension>
    <field>eigene</field>
    <field>occ</field>
    <set>
     <set comment="spin 1">
      <set comment="kpoint 1">
       <r>  -22.1784    1.0000 </r>
       <r>  -10.2970    1.0000 </r>
       <r>   -5.5950    1.0000 </r>
       <r>   -5.5949    1.0000 </r>
       <r>    0.5302    0.0000 </r>
       <r>    1.3243    0.0000 </r>
       <r>    1.6849    0.0000 </r>
       <r>    2.5965    0.0000 </r>
      </set>
      <set comment="kpoint 2">
       <r>  -22.1759    1.0000 </r>
       <r>  -10.2941    1.0000 </r>
       <r>   -5.6054    1.0000 </r>
       <r>   -5.6005    1.0000 </r>
       <r>    0.5336    0.0000 </r>
       <r>    1.3277    0.0000 </r>
       <r>    1.6883    0.0000 </r>
       <r>    2.5999    0.0000 </r>
      </set>
      <set comment="kpoint 3">
       <r>  -22.1685    1.0000 </r>
       <r>  -10.2852    1.0000 </r>
       <r>   -5.6363    1.0000 </r>
       <r>   -5.6169    1.0000 </r>
       <r>    0.5437    0.0000 </r>
       <r>    1.3379    0.0000 </r>
       <r>    1.6986    0.0000 </r>
       <r>    2.6101    0.0000 </r>
      </set>
      <set comment="kpoint 4">
       <r>  -22.1561    1.0000 </r>
       <r>  -10.2704    1.0000 </r>
       <r>   -5.6876    1.0000 </r>
       <r>   -5.6441    1.0000 </r>
       <r>    0.5604    0.0000 </r>
       <r>    1.3550    0.0000 </r>
       <r>    1.7158    0.0000 </r>
       <r>    2.6272    0.0000 </r>
      </set>
      <set comment="kpoint 5">
       <r>  -22.1388    1.0000 </r>
       <r>  -10.2497    1.0000 </r>
       <r>   -5.7587    1.0000 </r>
       <r>   -5.6818    1.0000 </r>
       <r>    0.5839    0.0000 </r>
       <r>    1.3788    0.0000 </r>
       <r>    1.7399    0.0000 </r>
       <r>    2.6510    0.0000 </r>
      </set>
      <set comment="kpoint 6">
       <r>  -22.1165    1.0000 </r>
       <r>  -10.2230    1.0000 </r>
       <r>   -5.8490    1.0000 </r>
       <r>   -5.7292    1.0000 </r>
       <r>    0.6142    0.0000 </r>
       <r>    1.4094    0.0000 </r>
       <r>    1.7709    0.0000 </r>
       <r>    2.6818    0.0000 </r>
      </set>
      <set comment="kpoint 7">
       <r>  -22.0893    1.0000 </r>
       <r>  -10.1905    1.0000 </r>
       <r>   -5.9575    1.0000 </r>
       <r>   -5.7861    1.0000 </r>
       <r>    0.6511    0.0000 </r>
       <r>    1.4468    0.0000 </r>
       <r>    1.8087    0.0000 </r>
       <r>    2.7193    0.0000 </r>
      </set>
      <set comment="kpoint 8">
       <r>  -22.0571    1.0000 </r>
       <r>  -10.1520    1.0000 </r>
       <r>   -6.0835    1.0000 </r>
       <r>   -5.8515    1.0000 </r>
       <r>    0.6947    0.0000 </r>
       <r>    1.4910    0.0000 </r>
       <r>    1.8535    0.0000 </r>
       <r>    2.7636    0.0000 </r>
      </set>
      <set comment="kpoint 9">
       <r>  -22.0201    1.0000 </r>
       <r>  -10.1077    1.0000 </r>
       <r>   -6.2258    1.0000 </r>
       <r>   -5.9248    1.0000 </r>
       <r>    0.7451    0.0000 </r>
       <r>    1.5420    0.0000 </r>
       <r>    1.9051    0.0000 </r>
       <r>    2.8148    0.0000 </r>
      </set>
      <set comment="kpoint 10">
       <r>  -21.9780    1.0000 </r>
       <r>  -10.0575    1.0000 </r>
       <r>   -6.3834    1.0000 </r>
       <r>   -6.0053    1.0000 </r>
       <r>    0.8022    0.0000 </r>
       <r>    1.5998    0.0000 </r>
       <r>    1.9636    0.0000 </r>
       <r>    2.8727    0.0000 </r>
      </set>
      <set comment="kpoint 11">
       <r>  -21.9311    1.0000 </r>
       <r>  -10.0015    1.0000 </r>
       <r>   -6.5551    1.0000 </r>
       <r>   -6.0921    1.0000 </r>
       <r>    0.8660    0.0000 </r>
       <r>    1.6644    0.0000 </r>
       <r>    2.0290    0.0000 </r>
       <r>    2.9375    0.0000 </r>
      </set>
      <set comment="kpoint 12">
       <r>  -21.8792    1.0000 </r>
       <r>   -9.9397    1.0000 </r>
       <r>   -6.7400    1.0000 </r>
       <r>   -6.1844    1.0000 </r>
       <r>    0.9365    0.0000 </r>
       <r>    1.7357    0.0000 </r>
       <r>    2.1013    0.0000 </r>
       <r>    3.0091    0.0000 </r>
      </set>
      <set comment="kpoint 13">
       <r>  -21.8225    1.0000 </r>
       <r>   -9.8721    1.0000 </r>
       <r>   -6.9367    1.0000 </r>
       <r>   -6.2815    1.0000 </r>
       <r>    1.0138    0.0000 </r>
       <r>    1.8138    0.0000 </r>
       <r>    2.1804    0.0000 </r>
       <r>    3.0875    0.0000 </r>
      </set>
      <set comment="kpoint 14">
       <r>  -21.7608    1.0000 </r>
       <r>   -9.7988    1.0000 </r>
       <r>   -7.1443    1.0000 </r>
       <r>   -6.3826    1.0000 </r>
       <r>    1.0977    0.0000 </r>
       <r>    1.8987    0.0000 </r>
       <r>    2.2665    0.0000 </r>
       <r>    3.1726    0.0000 </r>
      </set>
      <set comment="kpoint 15">
       <r>  -21.6943    1.0000 </r>
       <r>   -9.7197    1.0000 </r>
       <r>   -7.3617    1.0000 </r>
       <r>   -6.4869    1.0000 </r>
       <r>    1.1884    0.0000 </r>
       <r>    1.9903    0.0000 </r>
       <r>    2.3594    0.0000 </r>
       <r>    3.2646    0.0000 </r>
      </set>
      <set comment="kpoint 16">
       <r>  -21.6229    1.0000 </r>
       <r>   -9.6349    1.0000 </r>
       <r>   -7.5880    1.0000 </r>
       <r>   -6.5938    1.0000 </r>
       <r>    1.2857    0.0000 </r>
       <r>    2.0887    0.0000 </r>
       <r>    2.4592    0.0000 </r>
       <r>    3.3633    0.0000 </r>
      </set>
      <set comment="kpoint 17">
       <r>  -21.5466    1.0000 </r>
       <r>   -9.5445    1.0000 </r>
       <r>   -7.8220    1.0000 </r>
       <r>   -6.7026    1.0000 </r>
       <r>    1.3898    0.0000 </r>
       <r>    2.1938    0.0000 </r>
       <r>    2.5659    0.0000 </r>
       <r>    3.4687    0.0000 </r>
      </set>
      <set comment="kpoint 18">
       <r>  -21.4655    1.0000 </r>
       <r>   -9.4485    1.0000 </r>
       <r>   -8.0630    1.0000 </r>
       <r>   -6.8127    1.0000 </r>
       <r>    1.5005    0.0000 </r>
       <r>    2.3056    0.0000 </r>
       <r>    2.6794    0.0000 </r>
       <r>    3.5809    0.0000 </r>
      </set>
      <set comment="kpoint 19">
       <r>  -21.3795    1.0000 </r>
       <r>   -9.3469    1.0000 </r>
       <r>   -8.3102    1.0000 </r>
       <r>   -6.9234    1.0000 </r>
       <r>    1.6180    0.0000 </r>
       <r>    2.4240    0.0000 </r>
       <r>    2.7999    0.0000 </r>
       <r>    3.6997    0.0000 </r>
      </set>
      <set comment="kpoint 20">
       <r>  -21.2887    1.0000 </r>
       <r>   -9.2399    1.0000 </r>
       <r>   -8.5626    1.0000 </r>
       <r>   -7.0344    1.0000 </r>
       <r>    1.7421    0.0000 </r>
       <r>    2.5491    0.0000 </r>
       <r>    2.9272    0.0000 </r>
       <r>    3.8251    0.0000 </r>
      </set>
      <set comment="kpoint 21">
       <r>  -21.1931    1.0000 </r>
       <r>   -9.1274    1.0000 </r>
       <r>   -8.8196    1.0000 </r>
       <r>   -7.1450    1.0000 </r>
       <r>    1.8728    0.0000 </r>
       <r>    2.6807    0.0000 </r>
       <r>    3.0614    0.0000 </r>
       <r>    3.9570    0.0000 </r>
      </set>
      <set comment="kpoint 22">
       <r>  -21.0928    1.0000 </r>
       <r>   -9.0805    1.0000 </r>
       <r>   -9.0096    1.0000 </r>
       <r>   -7.2548    1.0000 </r>
       <r>    2.0103    0.0000 </r>
       <r>    2.8187    0.0000 </r>
       <r>    3.2025    0.0000 </r>
       <r>    4.0951    0.0000 </r>
      </set>
      <set comment="kpoint 23">
       <r>  -20.9877    1.0000 </r>
       <r>   -9.3447    1.0000 </r>
       <r>   -8.8865    1.0000 </r>
       <r>   -7.3635    1.0000 </r>
       <r>    2.1544    0.0000 </r>
       <r>    2.9630    0.0000 </r>
       <r>    3.3504    0.0000 </r>
       <r>    4.2387    0.0000 </r>
      </set>
      <set comment="kpoint 24">
       <r>  -20.8778    1.0000 </r>
       <r>   -9.6116    1.0000 </r>
       <r>   -8.7582    1.0000 </r>
       <r>   -7.4706    1.0000 </r>
       <r>    2.3051    0.0000 </r>
       <r>    3.1132    0.0000 </r>
       <r>    3.5052    0.0000 </r>
       <r>    4.3856    0.0000 </r>
      </set>
      <set comment="kpoint 25">
       <r>  -20.7633    1.0000 </r>
       <r>   -9.8806    1.0000 </r>
       <r>   -8.6248    1.0000 </r>
       <r>   -7.5757    1.0000 </r>
       <r>    2.4624    0.0000 </r>
       <r>    3.2687    0.0000 </r>
       <r>    3.6669    0.0000 </r>
       <r>    4.5231    0.0000 </r>
      </set>
      <set comment="kpoint 26">
       <r>  -20.6440    1.0000 </r>
       <r>  -10.1512    1.0000 </r>
       <r>   -8.4865    1.0000 </r>
       <r>   -7.6787    1.0000 </r>
       <r>    2.6263    0.0000 </r>
       <r>    3.4275    0.0000 </r>
       <r>    3.8354    0.0000 </r>
       <r>    4.5110    0.0000 </r>
      </set>
      <set comment="kpoint 27">
       <r>  -20.5201    1.0000 </r>
       <r>  -10.4230    1.0000 </r>
       <r>   -8.3434    1.0000 </r>
       <r>   -7.7791    1.0000 </r>
       <r>    2.7968    0.0000 </r>
       <r>    3.5831    0.0000 </r>
       <r>    4.0108    0.0000 </r>
       <r>    4.2827    0.0000 </r>
      </set>
      <set comment="kpoint 28">
       <r>  -20.3916    1.0000 </r>
       <r>  -10.6955    1.0000 </r>
       <r>   -8.1955    1.0000 </r>
       <r>   -7.8767    1.0000 </r>
       <r>    2.9738    0.0000 </r>
       <r>    3.6975    0.0000 </r>
       <r>    4.0705    0.0000 </r>
       <r>    4.1930    0.0000 </r>
      </set>
      <set comment="kpoint 29">
       <r>  -20.2584    1.0000 </r>
       <r>  -10.9683    1.0000 </r>
       <r>   -8.0432    1.0000 </r>
       <r>   -7.9714    1.0000 </r>
       <r>    3.1573    0.0000 </r>
       <r>    3.6035    0.0000 </r>
       <r>    4.0668    0.0000 </r>
       <r>    4.3819    0.0000 </r>
      </set>
      <set comment="kpoint 30">
       <r>  -20.1208    1.0000 </r>
       <r>  -11.2410    1.0000 </r>
       <r>   -8.0628    1.0000 </r>
       <r>   -7.8865    1.0000 </r>
       <r>    3.3472    0.0000 </r>
       <r>    3.3561    0.0000 </r>
       <r>    4.2204    0.0000 </r>
       <r>    4.5774    0.0000 </r>
      </set>
      <set comment="kpoint 31">
       <r>  -19.9786    1.0000 </r>
       <r>  -11.5134    1.0000 </r>
       <r>   -8.1507    1.0000 </r>
       <r>   -7.7258    1.0000 </r>
       <r>    3.0810    0.0000 </r>
       <r>    3.5434    0.0000 </r>
       <r>    4.4074    0.0000 </r>
       <r>    4.7792    0.0000 </r>
      </set>
      <set comment="kpoint 32">
       <r>  -19.8320    1.0000 </r>
       <r>  -11.7849    1.0000 </r>
       <r>   -8.2351    1.0000 </r>
       <r>   -7.5612    1.0000 </r>
       <r>    2.7992    0.0000 </r>
       <r>    3.7459    0.0000 </r>
       <r>    4.6076    0.0000 </r>
       <r>    4.9854    0.0000 </r>
      </set>
      <set comment="kpoint 33">
       <r>  -19.6809    1.0000 </r>
       <r>  -12.0554    1.0000 </r>
       <r>   -8.3156    1.0000 </r>
       <r>   -7.3932    1.0000 </r>
       <r>    2.5157    0.0000 </r>
       <r>    3.9542    0.0000 </r>
       <r>    4.8169    0.0000 </r>
       <r>    5.1612    0.0000 </r>
      </set>
      <set comment="kpoint 34">
       <r>  -19.5255    1.0000 </r>
       <r>  -12.3245    1.0000 </r>
       <r>   -8.3923    1.0000 </r>
       <r>   -7.2220    1.0000 </r>
       <r>    2.2326    0.0000 </r>
       <r>    4.1680    0.0000 </r>
       <r>    5.0340    0.0000 </r>
       <r>    5.1608    0.0000 </r>
      </set>
      <set comment="kpoint 35">
       <r>  -19.3659    1.0000 </r>
       <r>  -12.5920    1.0000 </r>
       <r>   -8.4649    1.0000 </r>
       <r>   -7.0481    1.0000 </r>
       <r>    1.9514    0.0000 </r>
       <r>    4.3861    0.0000 </r>
       <r>    5.1351    0.0000 </r>
       <r>    5.2583    0.0000 </r>
      </set>
      <set comment="kpoint 36">
       <r>  -19.2021    1.0000 </r>
       <r>  -12.8575    1.0000 </r>
       <r>   -8.5332    1.0000 </r>
       <r>   -6.8720    1.0000 </r>
       <r>    1.6730    0.0000 </r>
       <r>    4.6050    0.0000 </r>
       <r>    5.1143    0.0000 </r>
       <r>    5.4895    0.0000 </r>
      </set>
      <set comment="kpoint 37">
       <r>  -19.0342    1.0000 </r>
       <r>  -13.1207    1.0000 </r>
       <r>   -8.5974    1.0000 </r>
       <r>   -6.6944    1.0000 </r>
       <r>    1.3987    0.0000 </r>
       <r>    4.8103    0.0000 </r>
       <r>    5.1145    0.0000 </r>
       <r>    5.7275    0.0000 </r>
      </set>
      <set comment="kpoint 38">
       <r>  -18.8624    1.0000 </r>
       <r>  -13.3815    1.0000 </r>
       <r>   -8.6571    1.0000 </r>
       <r>   -6.5161    1.0000 </r>
       <r>    1.1295    0.0000 </r>
       <r>    4.9376    0.0000 </r>
       <r>    5.2007    0.0000 </r>
       <r>    5.9720    0.0000 </r>
      </set>
      <set comment="kpoint 39">
       <r>  -18.6869    1.0000 </r>
       <r>  -13.6393    1.0000 </r>
       <r>   -8.7123    1.0000 </r>
       <r>   -6.3379    1.0000 </r>
       <r>    0.8668    0.0000 </r>
       <r>    4.9580    0.0000 </r>
       <r>    5.4019    0.0000 </r>
       <r>    6.2230    0.0000 </r>
      </set>
      <set comment="kpoint 40">
       <r>  -18.5078    1.0000 </r>
       <r>  -13.8940    1.0000 </r>
       <r>   -8.7630    1.0000 </r>
       <r>   -6.1611    1.0000 </r>
       <r>    0.6120    0.0000 </r>
       <r>    4.9472    0.0000 </r>
       <r>    5.6425    0.0000 </r>
       <r>    6.4804    0.0000 </r>
      </set>
      <set comment="kpoint 41">
       <r>  -18.3254    1.0000 </r>
       <r>  -14.1450    1.0000 </r>
       <r>   -8.8090    1.0000 </r>
       <r>   -5.9870    1.0000 </r>
       <r>    0.3667    0.0000 </r>
       <r>    4.9305    0.0000 </r>
       <r>    5.8974    0.0000 </r>
       <r>    6.7441    0.0000 </r>
      </set>
      <set comment="kpoint 42">
       <r>  -18.1403    1.0000 </r>
       <r>  -14.3919    1.0000 </r>
       <r>   -8.8504    1.0000 </r>
       <r>   -5.8175    1.0000 </r>
       <r>    0.1329    0.0000 </r>
       <r>    4.9130    0.0000 </r>
       <r>    6.1614    0.0000 </r>
       <r>    7.0139    0.0000 </r>
      </set>
      <set comment="kpoint 43">
       <r>  -17.9529    1.0000 </r>
       <r>  -14.6340    1.0000 </r>
       <r>   -8.8870    1.0000 </r>
       <r>   -5.6549    1.0000 </r>
       <r>   -0.0869    0.0000 </r>
       <r>    4.8965    0.0000 </r>
       <r>    6.4328    0.0000 </r>
       <r>    7.2971    0.0000 </r>
      </set>
      <set comment="kpoint 44">
       <r>  -17.7642    1.0000 </r>
       <r>  -14.8702    1.0000 </r>
       <r>   -8.9188    1.0000 </r>
       <r>   -5.5017    1.0000 </r>
       <r>   -0.2899    0.0000 </r>
       <r>    4.8815    0.0000 </r>
       <r>    6.7108    0.0000 </r>
       <r>    7.5715    0.0000 </r>
      </set>
      <set comment="kpoint 45">
       <r>  -17.5759    1.0000 </r>
       <r>  -15.0989    1.0000 </r>
       <r>   -8.9458    1.0000 </r>
       <r>   -5.3614    1.0000 </r>
       <r>   -0.4726    0.0000 </r>
       <r>    4.8686    0.0000 </r>
       <r>    6.9952    0.0000 </r>
       <r>    7.8589    0.0000 </r>
      </set>
      <set comment="kpoint 46">
       <r>  -17.3906    1.0000 </r>
       <r>  -15.3173    1.0000 </r>
       <r>   -8.9680    1.0000 </r>
       <r>   -5.2376    1.0000 </r>
       <r>   -0.6312    0.0000 </r>
       <r>    4.8578    0.0000 </r>
       <r>    7.2854    0.0000 </r>
       <r>    8.1516    0.0000 </r>
      </set>
      <set comment="kpoint 47">
       <r>  -17.2134    1.0000 </r>
       <r>  -15.5202    1.0000 </r>
       <r>   -8.9852    1.0000 </r>
       <r>   -5.1348    1.0000 </r>
       <r>   -0.7612    0.0000 </r>
       <r>    4.8493    0.0000 </r>
       <r>    7.5811    0.0000 </r>
       <r>    8.4493    0.0000 </r>
      </set>
      <set comment="kpoint 48">
       <r>  -17.0548    1.0000 </r>
       <r>  -15.6973    1.0000 </r>
       <r>   -8.9975    1.0000 </r>
       <r>   -5.0572    1.0000 </r>
       <r>   -0.8583    0.0000 </r>
       <r>    4.8433    0.0000 </r>
       <r>    7.8816    0.0000 </r>
       <r>    8.7507    0.0000 </r>
      </set>
      <set comment="kpoint 49">
       <r>  -16.9356    1.0000 </r>
       <r>  -15.8275    1.0000 </r>
       <r>   -9.0049    1.0000 </r>
       <r>   -5.0088    1.0000 </r>
       <r>   -0.9184    0.0000 </r>
       <r>    4.8396    0.0000 </r>
       <r>    8.1841    0.0000 </r>
       <r>    8.8343    0.0000 </r>
      </set>
      <set comment="kpoint 50">
       <r>  -16.8891    1.0000 </r>
       <r>  -15.8778    1.0000 </r>
       <r>   -9.0074    1.0000 </r>
       <r>   -4.9923    1.0000 </r>
       <r>   -0.9388    0.0000 </r>
       <r>    4.8384    0.0000 </r>
       <r>    8.4259    0.0000 </r>
       <r>    8.5879    0.0000 </r>
      </set>
      <set comment="kpoint 51">
       <r>  -16.8891    1.0000 </r>
       <r>  -15.8778    1.0000 </r>
       <r>   -9.0074    1.0000 </r>
       <r>   -4.9923    1.0000 </r>
       <r>   -0.9388    0.0000 </r>
       <r>    4.8384    0.0000 </r>
       <r>    8.4259    0.0000 </r>
       <r>    8.5879    0.0000 </r>
      </set>
      <set comment="kpoint 52">
       <r>  -16.8884    1.0000 </r>
       <r>  -15.8771    1.0000 </r>
       <r>   -9.0112    1.0000 </r>
       <r>   -4.9913    1.0000 </r>
       <r>   -0.9390    0.0000 </r>
       <r>    4.8434    0.0000 </r>
       <r>    8.4269    0.0000 </r>
       <r>    8.5890    0.0000 </r>
      </set>
      <set comment="kpoint 53">
       <r>  -16.8862    1.0000 </r>
       <r>  -15.8749    1.0000 </r>
       <r>   -9.0224    1.0000 </r>
       <r>   -4.9883    1.0000 </r>
       <r>   -0.9397    0.0000 </r>
       <r>    4.8586    0.0000 </r>
       <r>    8.4298    0.0000 </r>
       <r>    8.5921    0.0000 </r>
      </set>
      <set comment="kpoint 54">
       <r>  -16.8827    1.0000 </r>
       <r>  -15.8714    1.0000 </r>
       <r>   -9.0411    1.0000 </r>
       <r>   -4.9832    1.0000 </r>
       <r>   -0.9408    0.0000 </r>
       <r>    4.8838    0.0000 </r>
       <r>    8.4347    0.0000 </r>
       <r>    8.5973    0.0000 </r>
      </set>
      <set comment="kpoint 55">
       <r>  -16.8778    1.0000 </r>
       <r>  -15.8665    1.0000 </r>
       <r>   -9.0671    1.0000 </r>
       <r>   -4.9762    1.0000 </r>
       <r>   -0.9423    0.0000 </r>
       <r>    4.9189    0.0000 </r>
       <r>    8.4415    0.0000 </r>
       <r>    8.6045    0.0000 </r>
      </set>
      <set comment="kpoint 56">
       <r>  -16.8714    1.0000 </r>
       <r>  -15.8601    1.0000 </r>
       <r>   -9.1003    1.0000 </r>
       <r>   -4.9671    1.0000 </r>
       <r>   -0.9444    0.0000 </r>
       <r>    4.9638    0.0000 </r>
       <r>    8.4503    0.0000 </r>
       <r>    8.6139    0.0000 </r>
      </set>
      <set comment="kpoint 57">
       <r>  -16.8636    1.0000 </r>
       <r>  -15.8524    1.0000 </r>
       <r>   -9.1406    1.0000 </r>
       <r>   -4.9561    1.0000 </r>
       <r>   -0.9470    0.0000 </r>
       <r>    5.0184    0.0000 </r>
       <r>    8.4610    0.0000 </r>
       <r>    8.6252    0.0000 </r>
      </set>
      <set comment="kpoint 58">
       <r>  -16.8545    1.0000 </r>
       <r>  -15.8432    1.0000 </r>
       <r>   -9.1878    1.0000 </r>
       <r>   -4.9430    1.0000 </r>
       <r>   -0.9501    0.0000 </r>
       <r>    5.0824    0.0000 </r>
       <r>    8.4737    0.0000 </r>
       <r>    8.6387    0.0000 </r>
      </set>
      <set comment="kpoint 59">
       <r>  -16.8439    1.0000 </r>
       <r>  -15.8327    1.0000 </r>
       <r>   -9.2416    1.0000 </r>
       <r>   -4.9279    1.0000 </r>
       <r>   -0.9538    0.0000 </r>
       <r>    5.1557    0.0000 </r>
       <r>    8.4883    0.0000 </r>
       <r>    8.6542    0.0000 </r>
      </set>
      <set comment="kpoint 60">
       <r>  -16.8319    1.0000 </r>
       <r>  -15.8207    1.0000 </r>
       <r>   -9.3018    1.0000 </r>
       <r>   -4.9108    1.0000 </r>
       <r>   -0.9581    0.0000 </r>
       <r>    5.2378    0.0000 </r>
       <r>    8.5048    0.0000 </r>
       <r>    8.6718    0.0000 </r>
      </set>
      <set comment="kpoint 61">
       <r>  -16.8184    1.0000 </r>
       <r>  -15.8074    1.0000 </r>
       <r>   -9.3682    1.0000 </r>
       <r>   -4.8917    1.0000 </r>
       <r>   -0.9631    0.0000 </r>
       <r>    5.3286    0.0000 </r>
       <r>    8.5232    0.0000 </r>
       <r>    8.6914    0.0000 </r>
      </set>
      <set comment="kpoint 62">
       <r>  -16.8036    1.0000 </r>
       <r>  -15.7928    1.0000 </r>
       <r>   -9.4405    1.0000 </r>
       <r>   -4.8706    1.0000 </r>
       <r>   -0.9689    0.0000 </r>
       <r>    5.4277    0.0000 </r>
       <r>    8.5436    0.0000 </r>
       <r>    8.7131    0.0000 </r>
      </set>
      <set comment="kpoint 63">
       <r>  -16.7874    1.0000 </r>
       <r>  -15.7768    1.0000 </r>
       <r>   -9.5183    1.0000 </r>
       <r>   -4.8475    1.0000 </r>
       <r>   -0.9754    0.0000 </r>
       <r>    5.5349    0.0000 </r>
       <r>    8.5658    0.0000 </r>
       <r>    8.7368    0.0000 </r>
      </set>
      <set comment="kpoint 64">
       <r>  -16.7697    1.0000 </r>
       <r>  -15.7595    1.0000 </r>
       <r>   -9.6015    1.0000 </r>
       <r>   -4.8224    1.0000 </r>
       <r>   -0.9828    0.0000 </r>
       <r>    5.6498    0.0000 </r>
       <r>    8.5899    0.0000 </r>
       <r>    8.7625    0.0000 </r>
      </set>
      <set comment="kpoint 65">
       <r>  -16.7507    1.0000 </r>
       <r>  -15.7408    1.0000 </r>
       <r>   -9.6897    1.0000 </r>
       <r>   -4.7953    1.0000 </r>
       <r>   -0.9912    0.0000 </r>
       <r>    5.7720    0.0000 </r>
       <r>    8.6158    0.0000 </r>
       <r>    8.7902    0.0000 </r>
      </set>
      <set comment="kpoint 66">
       <r>  -16.7302    1.0000 </r>
       <r>  -15.7209    1.0000 </r>
       <r>   -9.7826    1.0000 </r>
       <r>   -4.7662    1.0000 </r>
       <r>   -1.0006    0.0000 </r>
       <r>    5.9012    0.0000 </r>
       <r>    8.6437    0.0000 </r>
       <r>    8.8200    0.0000 </r>
      </set>
      <set comment="kpoint 67">
       <r>  -16.7083    1.0000 </r>
       <r>  -15.6996    1.0000 </r>
       <r>   -9.8798    1.0000 </r>
       <r>   -4.7351    1.0000 </r>
       <r>   -1.0112    0.0000 </r>
       <r>    6.0370    0.0000 </r>
       <r>    8.6733    0.0000 </r>
       <r>    8.8517    0.0000 </r>
      </set>
      <set comment="kpoint 68">
       <r>  -16.6850    1.0000 </r>
       <r>  -15.6772    1.0000 </r>
       <r>   -9.9811    1.0000 </r>
       <r>   -4.7020    1.0000 </r>
       <r>   -1.0229    0.0000 </r>
       <r>    6.1792    0.0000 </r>
       <r>    8.7047    0.0000 </r>
       <r>    8.8854    0.0000 </r>
      </set>
      <set comment="kpoint 69">
       <r>  -16.6604    1.0000 </r>
       <r>  -15.6535    1.0000 </r>
       <r>  -10.0862    1.0000 </r>
       <r>   -4.6669    1.0000 </r>
       <r>   -1.0359    0.0000 </r>
       <r>    6.3271    0.0000 </r>
       <r>    8.7380    0.0000 </r>
       <r>    8.9211    0.0000 </r>
      </set>
      <set comment="kpoint 70">
       <r>  -16.6343    1.0000 </r>
       <r>  -15.6286    1.0000 </r>
       <r>  -10.1948    1.0000 </r>
       <r>   -4.6298    1.0000 </r>
       <r>   -1.0504    0.0000 </r>
       <r>    6.4806    0.0000 </r>
       <r>    8.7730    0.0000 </r>
       <r>    8.9588    0.0000 </r>
      </set>
      <set comment="kpoint 71">
       <r>  -16.6067    1.0000 </r>
       <r>  -15.6026    1.0000 </r>
       <r>  -10.3065    1.0000 </r>
       <r>   -4.5908    1.0000 </r>
       <r>   -1.0663    0.0000 </r>
       <r>    6.6392    0.0000 </r>
       <r>    8.8097    0.0000 </r>
       <r>    8.9984    0.0000 </r>
      </set>
      <set comment="kpoint 72">
       <r>  -16.5778    1.0000 </r>
       <r>  -15.5754    1.0000 </r>
       <r>  -10.4210    1.0000 </r>
       <r>   -4.5497    1.0000 </r>
       <r>   -1.0839    0.0000 </r>
       <r>    6.8026    0.0000 </r>
       <r>    8.8481    0.0000 </r>
       <r>    9.0718    0.0000 </r>
      </set>
      <set comment="kpoint 73">
       <r>  -16.5475    1.0000 </r>
       <r>  -15.5472    1.0000 </r>
       <r>  -10.5382    1.0000 </r>
       <r>   -4.5067    1.0000 </r>
       <r>   -1.1032    0.0000 </r>
       <r>    6.9702    0.0000 </r>
       <r>    8.8882    0.0000 </r>
       <r>    9.0732    0.0000 </r>
      </set>
      <set comment="kpoint 74">
       <r>  -16.5158    1.0000 </r>
       <r>  -15.5179    1.0000 </r>
       <r>  -10.6576    1.0000 </r>
       <r>   -4.4617    1.0000 </r>
       <r>   -1.1244    0.0000 </r>
       <r>    7.1418    0.0000 </r>
       <r>    8.9299    0.0000 </r>
       <r>    9.0299    0.0000 </r>
      </set>
      <set comment="kpoint 75">
       <r>  -16.4826    1.0000 </r>
       <r>  -15.4877    1.0000 </r>
       <r>  -10.7789    1.0000 </r>
       <r>   -4.4147    1.0000 </r>
       <r>   -1.1475    0.0000 </r>
       <r>    7.3168    0.0000 </r>
       <r>    8.9732    0.0000 </r>
       <r>    8.9827    0.0000 </r>
      </set>
      <set comment="kpoint 76">
       <r>  -16.4481    1.0000 </r>
       <r>  -15.4566    1.0000 </r>
       <r>  -10.9020    1.0000 </r>
       <r>   -4.3658    1.0000 </r>
       <r>   -1.1727    0.0000 </r>
       <r>    7.4949    0.0000 </r>
       <r>    8.9319    0.0000 </r>
       <r>    9.0181    0.0000 </r>
      </set>
      <set comment="kpoint 77">
       <r>  -16.4122    1.0000 </r>
       <r>  -15.4248    1.0000 </r>
       <r>  -11.0265    1.0000 </r>
       <r>   -4.3149    1.0000 </r>
       <r>   -1.2001    0.0000 </r>
       <r>    7.6755    0.0000 </r>
       <r>    8.8780    0.0000 </r>
       <r>    9.0644    0.0000 </r>
      </set>
      <set comment="kpoint 78">
       <r>  -16.3748    1.0000 </r>
       <r>  -15.3921    1.0000 </r>
       <r>  -11.1521    1.0000 </r>
       <r>   -4.2620    1.0000 </r>
       <r>   -1.2298    0.0000 </r>
       <r>    7.8582    0.0000 </r>
       <r>    8.8217    0.0000 </r>
       <r>    9.1122    0.0000 </r>
      </set>
      <set comment="kpoint 79">
       <r>  -16.3361    1.0000 </r>
       <r>  -15.3590    1.0000 </r>
       <r>  -11.2784    1.0000 </r>
       <r>   -4.2072    1.0000 </r>
       <r>   -1.2619    0.0000 </r>
       <r>    8.0423    0.0000 </r>
       <r>    8.7634    0.0000 </r>
       <r>    9.1613    0.0000 </r>
      </set>
      <set comment="kpoint 80">
       <r>  -16.2959    1.0000 </r>
       <r>  -15.3253    1.0000 </r>
       <r>  -11.4054    1.0000 </r>
       <r>   -4.1504    1.0000 </r>
       <r>   -1.2965    0.0000 </r>
       <r>    8.2273    0.0000 </r>
       <r>    8.7038    0.0000 </r>
       <r>    9.2117    0.0000 </r>
      </set>
      <set comment="kpoint 81">
       <r>  -16.2544    1.0000 </r>
       <r>  -15.2913    1.0000 </r>
       <r>  -11.5324    1.0000 </r>
       <r>   -4.0917    1.0000 </r>
       <r>   -1.3338    0.0000 </r>
       <r>    8.4125    0.0000 </r>
       <r>    8.6436    0.0000 </r>
       <r>    9.2634    0.0000 </r>
      </set>
      <set comment="kpoint 82">
       <r>  -16.2115    1.0000 </r>
       <r>  -15.2572    1.0000 </r>
       <r>  -11.6594    1.0000 </r>
       <r>   -4.0310    1.0000 </r>
       <r>   -1.3738    0.0000 </r>
       <r>    8.5833    0.0000 </r>
       <r>    8.5970    0.0000 </r>
       <r>    9.3161    0.0000 </r>
      </set>
      <set comment="kpoint 83">
       <r>  -16.1671    1.0000 </r>
       <r>  -15.2232    1.0000 </r>
       <r>  -11.7858    1.0000 </r>
       <r>   -3.9684    1.0000 </r>
       <r>   -1.4167    0.0000 </r>
       <r>    8.5236    0.0000 </r>
       <r>    8.7798    0.0000 </r>
       <r>    9.3699    0.0000 </r>
      </set>
      <set comment="kpoint 84">
       <r>  -16.1214    1.0000 </r>
       <r>  -15.1895    1.0000 </r>
       <r>  -11.9113    1.0000 </r>
       <r>   -3.9039    1.0000 </r>
       <r>   -1.4624    0.0000 </r>
       <r>    8.4650    0.0000 </r>
       <r>    8.9597    0.0000 </r>
       <r>    9.4247    0.0000 </r>
      </set>
      <set comment="kpoint 85">
       <r>  -16.0743    1.0000 </r>
       <r>  -15.1565    1.0000 </r>
       <r>  -12.0355    1.0000 </r>
       <r>   -3.8374    1.0000 </r>
       <r>   -1.5112    0.0000 </r>
       <r>    8.4081    0.0000 </r>
       <r>    9.1349    0.0000 </r>
       <r>    9.4802    0.0000 </r>
      </set>
      <set comment="kpoint 86">
       <r>  -16.0257    1.0000 </r>
       <r>  -15.1245    1.0000 </r>
       <r>  -12.1578    1.0000 </r>
       <r>   -3.7690    1.0000 </r>
       <r>   -1.5630    0.0000 </r>
       <r>    8.3533    0.0000 </r>
       <r>    9.3032    0.0000 </r>
       <r>    9.5364    0.0000 </r>
      </set>
      <set comment="kpoint 87">
       <r>  -15.9758    1.0000 </r>
       <r>  -15.0939    1.0000 </r>
       <r>  -12.2777    1.0000 </r>
       <r>   -3.6987    1.0000 </r>
       <r>   -1.6179    0.0000 </r>
       <r>    8.3010    0.0000 </r>
       <r>    9.4616    0.0000 </r>
       <r>    9.5931    0.0000 </r>
      </set>
      <set comment="kpoint 88">
       <r>  -15.9245    1.0000 </r>
       <r>  -15.0654    1.0000 </r>
       <r>  -12.3945    1.0000 </r>
       <r>   -3.6265    1.0000 </r>
       <r>   -1.6759    0.0000 </r>
       <r>    8.2517    0.0000 </r>
       <r>    9.6062    0.0000 </r>
       <r>    9.6502    0.0000 </r>
      </set>
      <set comment="kpoint 89">
       <r>  -15.8718    1.0000 </r>
       <r>  -15.0395    1.0000 </r>
       <r>  -12.5076    1.0000 </r>
       <r>   -3.5524    1.0000 </r>
       <r>   -1.7371    0.0000 </r>
       <r>    8.2056    0.0000 </r>
       <r>    9.7074    0.0000 </r>
       <r>    9.7338    0.0000 </r>
      </set>
      <set comment="kpoint 90">
       <r>  -15.8178    1.0000 </r>
       <r>  -15.0171    1.0000 </r>
       <r>  -12.6159    1.0000 </r>
       <r>   -3.4765    1.0000 </r>
       <r>   -1.8015    0.0000 </r>
       <r>    8.1630    0.0000 </r>
       <r>    9.7646    0.0000 </r>
       <r>    9.8432    0.0000 </r>
      </set>
      <set comment="kpoint 91">
       <r>  -15.7623    1.0000 </r>
       <r>  -14.9989    1.0000 </r>
       <r>  -12.7186    1.0000 </r>
       <r>   -3.3986    1.0000 </r>
       <r>   -1.8691    0.0000 </r>
       <r>    8.1242    0.0000 </r>
       <r>    9.8216    0.0000 </r>
       <r>    9.9365    0.0000 </r>
      </set>
      <set comment="kpoint 92">
       <r>  -15.7055    1.0000 </r>
       <r>  -14.9861    1.0000 </r>
       <r>  -12.8146    1.0000 </r>
       <r>   -3.3188    1.0000 </r>
       <r>   -1.9399    0.0000 </r>
       <r>    8.0893    0.0000 </r>
       <r>    9.8780    0.0000 </r>
       <r>   10.0172    0.0000 </r>
      </set>
      <set comment="kpoint 93">
       <r>  -15.6472    1.0000 </r>
       <r>  -14.9798    1.0000 </r>
       <r>  -12.9025    1.0000 </r>
       <r>   -3.2372    1.0000 </r>
       <r>   -2.0138    0.0000 </r>
       <r>    8.0584    0.0000 </r>
       <r>    9.9337    0.0000 </r>
       <r>   10.0882    0.0000 </r>
      </set>
      <set comment="kpoint 94">
       <r>  -15.5876    1.0000 </r>
       <r>  -14.9812    1.0000 </r>
       <r>  -12.9812    1.0000 </r>
       <r>   -3.1537    1.0000 </r>
       <r>   -2.0908    0.0000 </r>
       <r>    8.0318    0.0000 </r>
       <r>    9.9884    0.0000 </r>
       <r>   10.1509    0.0000 </r>
      </set>
      <set comment="kpoint 95">
       <r>  -15.5267    1.0000 </r>
       <r>  -14.9915    1.0000 </r>
       <r>  -13.0494    1.0000 </r>
       <r>   -3.0684    1.0000 </r>
       <r>   -2.1709    0.0000 </r>
       <r>    8.0094    0.0000 </r>
       <r>   10.0417    0.0000 </r>
       <r>   10.2054    0.0000 </r>
      </set>
      <set comment="kpoint 96">
       <r>  -15.4643    1.0000 </r>
       <r>  -15.0117    1.0000 </r>
       <r>  -13.1060    1.0000 </r>
       <r>   -2.9812    1.0000 </r>
       <r>   -2.2540    0.0000 </r>
       <r>    7.9912    0.0000 </r>
       <r>   10.0933    0.0000 </r>
       <r>   10.2508    0.0000 </r>
      </set>
      <set comment="kpoint 97">
       <r>  -15.4006    1.0000 </r>
       <r>  -15.0427    1.0000 </r>
       <r>  -13.1500    1.0000 </r>
       <r>   -2.8922    1.0000 </r>
       <r>   -2.3399    0.0000 </r>
       <r>    7.9773    0.0000 </r>
       <r>   10.1429    0.0000 </r>
       <r>   10.2847    0.0000 </r>
      </set>
      <set comment="kpoint 98">
       <r>  -15.3355    1.0000 </r>
       <r>  -15.0847    1.0000 </r>
       <r>  -13.1812    1.0000 </r>
       <r>   -2.8013    1.0000 </r>
       <r>   -2.4287    0.0000 </r>
       <r>    7.9675    0.0000 </r>
       <r>   10.1901    0.0000 </r>
       <r>   10.3034    0.0000 </r>
      </set>
      <set comment="kpoint 99">
       <r>  -15.2690    1.0000 </r>
       <r>  -15.1377    1.0000 </r>
       <r>  -13.1995    1.0000 </r>
       <r>   -2.7087    1.0000 </r>
       <r>   -2.5202    0.0000 </r>
       <r>    7.9617    0.0000 </r>
       <r>   10.2346    0.0000 </r>
       <r>   10.3022    0.0000 </r>
      </set>
      <set comment="kpoint 100">
       <r>  -15.2013    1.0000 </r>
       <r>  -15.2012    1.0000 </r>
       <r>  -13.2055    1.0000 </r>
       <r>   -2.6143    0.5013 </r>
       <r>   -2.6142    0.4987 </r>
       <r>    7.9598    0.0000 </r>
       <r>   10.2761    0.0000 </r>
       <r>   10.2761    0.0000 </r>
      </set>
      <set comment="kpoint 101">
       <r>  -15.2013    1.0000 </r>
       <r>  -15.2012    1.0000 </r>
       <r>  -13.2055    1.0000 </r>
       <r>   -2.6143    0.5013 </r>
       <r>   -2.6142    0.4987 </r>
       <r>    7.9598    0.0000 </r>
       <r>   10.2761    0.0000 </r>
       <r>   10.2761    0.0000 </r>
      </set>
      <set comment="kpoint 102">
       <r>  -15.3561    1.0000 </r>
       <r>  -15.0615    1.0000 </r>
       <r>  -13.1837    1.0000 </r>
       <r>   -2.8098    1.0000 </r>
       <r>   -2.4200    0.0000 </r>
       <r>    7.9669    0.0000 </r>
       <r>   10.1412    0.0000 </r>
       <r>   10.3485    0.0000 </r>
      </set>
      <set comment="kpoint 103">
       <r>  -15.5403    1.0000 </r>
       <r>  -14.9164    1.0000 </r>
       <r>  -13.1244    1.0000 </r>
       <r>   -3.0142    1.0000 </r>
       <r>   -2.2186    0.0000 </r>
       <r>    7.9863    0.0000 </r>
       <r>    9.9133    0.0000 </r>
       <r>   10.4051    0.0000 </r>
      </set>
      <set comment="kpoint 104">
       <r>  -15.7454    1.0000 </r>
       <r>  -14.7660    1.0000 </r>
       <r>  -13.0361    1.0000 </r>
       <r>   -3.2266    1.0000 </r>
       <r>   -2.0103    0.0000 </r>
       <r>    8.0147    0.0000 </r>
       <r>    9.6273    0.0000 </r>
       <r>   10.4445    0.0000 </r>
      </set>
      <set comment="kpoint 105">
       <r>  -15.9641    1.0000 </r>
       <r>  -14.6101    1.0000 </r>
       <r>  -12.9256    1.0000 </r>
       <r>   -3.4457    1.0000 </r>
       <r>   -1.7951    0.0000 </r>
       <r>    8.0473    0.0000 </r>
       <r>    9.3091    0.0000 </r>
       <r>   10.4661    0.0000 </r>
      </set>
      <set comment="kpoint 106">
       <r>  -16.1912    1.0000 </r>
       <r>  -14.4490    1.0000 </r>
       <r>  -12.7979    1.0000 </r>
       <r>   -3.6706    1.0000 </r>
       <r>   -1.5731    0.0000 </r>
       <r>    8.0769    0.0000 </r>
       <r>    8.9742    0.0000 </r>
       <r>   10.4704    0.0000 </r>
      </set>
      <set comment="kpoint 107">
       <r>  -16.4232    1.0000 </r>
       <r>  -14.2826    1.0000 </r>
       <r>  -12.6567    1.0000 </r>
       <r>   -3.9000    1.0000 </r>
       <r>   -1.3446    0.0000 </r>
       <r>    8.0933    0.0000 </r>
       <r>    8.6315    0.0000 </r>
       <r>   10.1511    0.0000 </r>
      </set>
      <set comment="kpoint 108">
       <r>  -16.6574    1.0000 </r>
       <r>  -14.1109    1.0000 </r>
       <r>  -12.5044    1.0000 </r>
       <r>   -4.1330    1.0000 </r>
       <r>   -1.1096    0.0000 </r>
       <r>    8.0823    0.0000 </r>
       <r>    8.2864    0.0000 </r>
       <r>    9.7668    0.0000 </r>
      </set>
      <set comment="kpoint 109">
       <r>  -16.8919    1.0000 </r>
       <r>  -13.9341    1.0000 </r>
       <r>  -12.3429    1.0000 </r>
       <r>   -4.3685    1.0000 </r>
       <r>   -0.8682    0.0000 </r>
       <r>    7.9423    0.0000 </r>
       <r>    8.0271    0.0000 </r>
       <r>    9.3893    0.0000 </r>
      </set>
      <set comment="kpoint 110">
       <r>  -17.1254    1.0000 </r>
       <r>  -13.7521    1.0000 </r>
       <r>  -12.1734    1.0000 </r>
       <r>   -4.6056    1.0000 </r>
       <r>   -0.6207    0.0000 </r>
       <r>    7.6012    0.0000 </r>
       <r>    7.9142    0.0000 </r>
       <r>    9.0199    0.0000 </r>
      </set>
      <set comment="kpoint 111">
       <r>  -17.3569    1.0000 </r>
       <r>  -13.5652    1.0000 </r>
       <r>  -11.9969    1.0000 </r>
       <r>   -4.8435    1.0000 </r>
       <r>   -0.3672    0.0000 </r>
       <r>    7.2648    0.0000 </r>
       <r>    7.7422    0.0000 </r>
       <r>    8.6590    0.0000 </r>
      </set>
      <set comment="kpoint 112">
       <r>  -17.5856    1.0000 </r>
       <r>  -13.3732    1.0000 </r>
       <r>  -11.8144    1.0000 </r>
       <r>   -5.0812    1.0000 </r>
       <r>   -0.1079    0.0000 </r>
       <r>    6.9340    0.0000 </r>
       <r>    7.5226    0.0000 </r>
       <r>    8.3070    0.0000 </r>
      </set>
      <set comment="kpoint 113">
       <r>  -17.8110    1.0000 </r>
       <r>  -13.1763    1.0000 </r>
       <r>  -11.6264    1.0000 </r>
       <r>   -5.3181    1.0000 </r>
       <r>    0.1569    0.0000 </r>
       <r>    6.6095    0.0000 </r>
       <r>    7.2716    0.0000 </r>
       <r>    7.9638    0.0000 </r>
      </set>
      <set comment="kpoint 114">
       <r>  -18.0324    1.0000 </r>
       <r>  -12.9745    1.0000 </r>
       <r>  -11.4335    1.0000 </r>
       <r>   -5.5535    1.0000 </r>
       <r>    0.4271    0.0000 </r>
       <r>    6.2920    0.0000 </r>
       <r>    7.0027    0.0000 </r>
       <r>    7.6296    0.0000 </r>
      </set>
      <set comment="kpoint 115">
       <r>  -18.2497    1.0000 </r>
       <r>  -12.7681    1.0000 </r>
       <r>  -11.2363    1.0000 </r>
       <r>   -5.7868    1.0000 </r>
       <r>    0.7024    0.0000 </r>
       <r>    5.9817    0.0000 </r>
       <r>    6.7252    0.0000 </r>
       <r>    7.3044    0.0000 </r>
      </set>
      <set comment="kpoint 116">
       <r>  -18.4624    1.0000 </r>
       <r>  -12.5570    1.0000 </r>
       <r>  -11.0351    1.0000 </r>
       <r>   -6.0173    1.0000 </r>
       <r>    0.9826    0.0000 </r>
       <r>    5.6791    0.0000 </r>
       <r>    6.4451    0.0000 </r>
       <r>    6.9882    0.0000 </r>
      </set>
      <set comment="kpoint 117">
       <r>  -18.6704    1.0000 </r>
       <r>  -12.3414    1.0000 </r>
       <r>  -10.8305    1.0000 </r>
       <r>   -6.2446    1.0000 </r>
       <r>    1.2672    0.0000 </r>
       <r>    5.3844    0.0000 </r>
       <r>    6.1659    0.0000 </r>
       <r>    6.6811    0.0000 </r>
      </set>
      <set comment="kpoint 118">
       <r>  -18.8733    1.0000 </r>
       <r>  -12.1214    1.0000 </r>
       <r>  -10.6229    1.0000 </r>
       <r>   -6.4683    1.0000 </r>
       <r>    1.5561    0.0000 </r>
       <r>    5.0977    0.0000 </r>
       <r>    5.8901    0.0000 </r>
       <r>    6.3832    0.0000 </r>
      </set>
      <set comment="kpoint 119">
       <r>  -19.0710    1.0000 </r>
       <r>  -11.8971    1.0000 </r>
       <r>  -10.4126    1.0000 </r>
       <r>   -6.6878    1.0000 </r>
       <r>    1.8489    0.0000 </r>
       <r>    4.8192    0.0000 </r>
       <r>    5.6193    0.0000 </r>
       <r>    6.0943    0.0000 </r>
      </set>
      <set comment="kpoint 120">
       <r>  -19.2633    1.0000 </r>
       <r>  -11.6688    1.0000 </r>
       <r>  -10.2001    1.0000 </r>
       <r>   -6.9029    1.0000 </r>
       <r>    2.1451    0.0000 </r>
       <r>    4.5490    0.0000 </r>
       <r>    5.3545    0.0000 </r>
       <r>    5.8146    0.0000 </r>
      </set>
      <set comment="kpoint 121">
       <r>  -19.4501    1.0000 </r>
       <r>  -11.4366    1.0000 </r>
       <r>   -9.9858    1.0000 </r>
       <r>   -7.1131    1.0000 </r>
       <r>    2.4445    0.0000 </r>
       <r>    4.2873    0.0000 </r>
       <r>    5.0964    0.0000 </r>
       <r>    5.5439    0.0000 </r>
      </set>
      <set comment="kpoint 122">
       <r>  -19.6313    1.0000 </r>
       <r>  -11.2007    1.0000 </r>
       <r>   -9.7702    1.0000 </r>
       <r>   -7.3182    1.0000 </r>
       <r>    2.7464    0.0000 </r>
       <r>    4.0340    0.0000 </r>
       <r>    4.8456    0.0000 </r>
       <r>    5.2825    0.0000 </r>
      </set>
      <set comment="kpoint 123">
       <r>  -19.8067    1.0000 </r>
       <r>  -10.9613    1.0000 </r>
       <r>   -9.5537    1.0000 </r>
       <r>   -7.5178    1.0000 </r>
[...]
       <r>   -9.8212    1.0000 </r>
       <r>   -7.0091    1.0000 </r>
       <r>   -6.4361    1.0000 </r>
       <r>    1.0721    0.0000 </r>
       <r>    1.8727    0.0000 </r>
       <r>    2.2401    0.0000 </r>
       <r>    3.1466    0.0000 </r>
      </set>
      <set comment="kpoint 140">
       <r>  -21.8488    1.0000 </r>
       <r>   -9.9035    1.0000 </r>
       <r>   -6.7936    1.0000 </r>
       <r>   -6.2970    1.0000 </r>
       <r>    0.9780    0.0000 </r>
       <r>    1.7776    0.0000 </r>
       <r>    2.1437    0.0000 </r>
       <r>    3.0511    0.0000 </r>
      </set>
      <set comment="kpoint 141">
       <r>  -21.9113    1.0000 </r>
       <r>   -9.9780    1.0000 </r>
       <r>   -6.5895    1.0000 </r>
       <r>   -6.1687    1.0000 </r>
       <r>    0.8929    0.0000 </r>
       <r>    1.6915    0.0000 </r>
       <r>    2.0565    0.0000 </r>
       <r>    2.9648    0.0000 </r>
      </set>
      <set comment="kpoint 142">
       <r>  -21.9673    1.0000 </r>
       <r>  -10.0448    1.0000 </r>
       <r>   -6.3987    1.0000 </r>
       <r>   -6.0520    1.0000 </r>
       <r>    0.8168    0.0000 </r>
       <r>    1.6145    0.0000 </r>
       <r>    1.9785    0.0000 </r>
       <r>    2.8875    0.0000 </r>
      </set>
      <set comment="kpoint 143">
       <r>  -22.0168    1.0000 </r>
       <r>  -10.1038    1.0000 </r>
       <r>   -6.2233    1.0000 </r>
       <r>   -5.9474    1.0000 </r>
       <r>    0.7496    0.0000 </r>
       <r>    1.5465    0.0000 </r>
       <r>    1.9097    0.0000 </r>
       <r>    2.8193    0.0000 </r>
      </set>
      <set comment="kpoint 144">
       <r>  -22.0596    1.0000 </r>
       <r>  -10.1550    1.0000 </r>
       <r>   -6.0653    1.0000 </r>
       <r>   -5.8555    1.0000 </r>
       <r>    0.6914    0.0000 </r>
       <r>    1.4876    0.0000 </r>
       <r>    1.8500    0.0000 </r>
       <r>    2.7602    0.0000 </r>
      </set>
      <set comment="kpoint 145">
       <r>  -22.0959    1.0000 </r>
       <r>  -10.1983    1.0000 </r>
       <r>   -5.9271    1.0000 </r>
       <r>   -5.7768    1.0000 </r>
       <r>    0.6421    0.0000 </r>
       <r>    1.4377    0.0000 </r>
       <r>    1.7996    0.0000 </r>
       <r>    2.7102    0.0000 </r>
      </set>
      <set comment="kpoint 146">
       <r>  -22.1256    1.0000 </r>
       <r>  -10.2339    1.0000 </r>
       <r>   -5.8105    1.0000 </r>
       <r>   -5.7119    1.0000 </r>
       <r>    0.6019    0.0000 </r>
       <r>    1.3969    0.0000 </r>
       <r>    1.7583    0.0000 </r>
       <r>    2.6692    0.0000 </r>
      </set>
      <set comment="kpoint 147">
       <r>  -22.1487    1.0000 </r>
       <r>  -10.2615    1.0000 </r>
       <r>   -5.7176    1.0000 </r>
       <r>   -5.6609    1.0000 </r>
       <r>    0.5705    0.0000 </r>
       <r>    1.3652    0.0000 </r>
       <r>    1.7261    0.0000 </r>
       <r>    2.6374    0.0000 </r>
      </set>
      <set comment="kpoint 148">
       <r>  -22.1652    1.0000 </r>
       <r>  -10.2812    1.0000 </r>
       <r>   -5.6499    1.0000 </r>
       <r>   -5.6244    1.0000 </r>
       <r>    0.5481    0.0000 </r>
       <r>    1.3425    0.0000 </r>
       <r>    1.7032    0.0000 </r>
       <r>    2.6147    0.0000 </r>
      </set>
      <set comment="kpoint 149">
       <r>  -22.1751    1.0000 </r>
       <r>  -10.2931    1.0000 </r>
       <r>   -5.6088    1.0000 </r>
       <r>   -5.6023    1.0000 </r>
       <r>    0.5347    0.0000 </r>
       <r>    1.3289    0.0000 </r>
       <r>    1.6894    0.0000 </r>
       <r>    2.6010    0.0000 </r>
      </set>
      <set comment="kpoint 150">
       <r>  -22.1784    1.0000 </r>
       <r>  -10.2970    1.0000 </r>
       <r>   -5.5950    1.0000 </r>
       <r>   -5.5949    1.0000 </r>
       <r>    0.5302    0.0000 </r>
       <r>    1.3243    0.0000 </r>
       <r>    1.6849    0.0000 </r>
       <r>    2.5965    0.0000 </r>
      </set>
     </set>
    </set>
   </array>
  </eigenvalues>
  <separator name="orbital magnetization" >
   <v name="MAGDIPOLOUT">      0.00000000      0.00000000      0.00000000</v>
  </separator>
  <dos>
   <i name="efermi">     -2.61424194 </i>
   <total>
    <array>
     <dimension dim="1">gridpoints</dimension>
     <dimension dim="2">spin</dimension>
     <field>energy</field>
     <field>total</field>
     <field>integrated</field>
     <set>
      <set comment="spin 1">
       <r>   -23.8109     0.0000     0.0000 </r>
       <r>   -23.6911     0.0000     0.0000 </r>
       <r>   -23.5714     0.0000     0.0000 </r>
       <r>   -23.4517     0.0000     0.0000 </r>
       <r>   -23.3320     0.0000     0.0000 </r>
       <r>   -23.2123     0.0000     0.0000 </r>
       <r>   -23.0926     0.0000     0.0000 </r>
       <r>   -22.9729     0.0000     0.0000 </r>
       <r>   -22.8532     0.0000     0.0000 </r>
       <r>   -22.7334     0.0000     0.0000 </r>
       <r>   -22.6137     0.0000     0.0000 </r>
       <r>   -22.4940     0.0000     0.0000 </r>
       <r>   -22.3743     0.0000     0.0000 </r>
       <r>   -22.2546     0.0000     0.0000 </r>
       <r>   -22.1349     0.9782     0.1171 </r>
       <r>   -22.0152     0.4838     0.2179 </r>
       <r>   -21.8955     0.3340     0.2800 </r>
       <r>   -21.7758     0.3041     0.3297 </r>
       <r>   -21.6560     0.2228     0.3733 </r>
       <r>   -21.5363     0.1415     0.4169 </r>
       <r>   -21.4166     0.2226     0.4533 </r>
       <r>   -21.2969     0.1252     0.4816 </r>
       <r>   -21.1772     0.2214     0.5198 </r>
       <r>   -21.0575     0.2228     0.5467 </r>
       <r>   -20.9378     0.2228     0.5733 </r>
       <r>   -20.8181     0.2228     0.6000 </r>
       <r>   -20.6983     0.2228     0.6267 </r>
       <r>   -20.5786     0.2216     0.6532 </r>
       <r>   -20.4589     0.1213     0.6679 </r>
       <r>   -20.3392     0.1114     0.6933 </r>
       <r>   -20.2195     0.2228     0.7200 </r>
       <r>   -20.0998     0.2226     0.7466 </r>
       <r>   -19.9801     0.0798     0.7562 </r>
       <r>   -19.8604     0.0000     0.7733 </r>
       <r>   -19.7406     0.1114     0.8000 </r>
       <r>   -19.6209     0.2148     0.8257 </r>
       <r>   -19.5012     0.1113     0.8400 </r>
       <r>   -19.3815     0.1129     0.8535 </r>
       <r>   -19.2618     0.0649     0.8744 </r>
       <r>   -19.1421     0.1114     0.8933 </r>
       <r>   -19.0224     0.2176     0.9194 </r>
       <r>   -18.9027     0.0000     0.9200 </r>
       <r>   -18.7829     0.1114     0.9467 </r>
       <r>   -18.6632     0.2053     0.9712 </r>
       <r>   -18.5435     0.0000     0.9733 </r>
       <r>   -18.4238     0.1114     1.0000 </r>
       <r>   -18.3041     0.1112     1.0133 </r>
       <r>   -18.1844     0.1114     1.0267 </r>
       <r>   -18.0647     0.1114     1.0400 </r>
       <r>   -17.9450     0.0968     1.0649 </r>
       <r>   -17.8252     0.0024     1.0670 </r>
       <r>   -17.7055     0.1114     1.0933 </r>
       <r>   -17.5858     0.0633     1.1009 </r>
       <r>   -17.4661     0.0000     1.1200 </r>
       <r>   -17.3464     0.2151     1.1457 </r>
       <r>   -17.2267     0.0034     1.1471 </r>
       <r>   -17.1070     0.1109     1.1733 </r>
       <r>   -16.9873     0.1114     1.1867 </r>
       <r>   -16.8675     0.9948     1.3058 </r>
       <r>   -16.7478     0.5192     1.4222 </r>
       <r>   -16.6281     0.4242     1.5041 </r>
       <r>   -16.5084     0.3176     1.5580 </r>
       <r>   -16.3887     0.3369     1.6137 </r>
       <r>   -16.2690     0.2249     1.6536 </r>
       <r>   -16.1493     0.3335     1.7066 </r>
       <r>   -16.0296     0.1442     1.7373 </r>
       <r>   -15.9099     0.3320     1.7864 </r>
       <r>   -15.7901     1.0769     1.9956 </r>
       <r>   -15.6704     0.7617     2.1312 </r>
       <r>   -15.5507     0.4877     2.2184 </r>
       <r>   -15.4310     0.3551     2.3225 </r>
       <r>   -15.3113     0.5324     2.4237 </r>
       <r>   -15.1916     0.7845     2.5339 </r>
       <r>   -15.0719     0.5811     2.6296 </r>
       <r>   -14.9522     0.7796     2.7733 </r>
       <r>   -14.8324     0.1114     2.8000 </r>
       <r>   -14.7127     0.1114     2.8133 </r>
       <r>   -14.5930     0.2219     2.8399 </r>
       <r>   -14.4733     0.0000     2.8400 </r>
       <r>   -14.3536     0.1114     2.8667 </r>
       <r>   -14.2339     0.1114     2.8800 </r>
       <r>   -14.1142     0.1473     2.8976 </r>
       <r>   -13.9945     0.0000     2.9067 </r>
       <r>   -13.8747     0.2224     2.9333 </r>
       <r>   -13.7550     0.0381     2.9379 </r>
       <r>   -13.6353     0.0796     2.9562 </r>
       <r>   -13.5156     0.1114     2.9733 </r>
       <r>   -13.3959     0.0024     2.9736 </r>
       <r>   -13.2762     0.0000     3.0000 </r>
       <r>   -13.1565     0.6882     3.0824 </r>
       <r>   -13.0368     0.2701     3.1523 </r>
       <r>   -12.9170     0.3237     3.1988 </r>
       <r>   -12.7973     0.2814     3.2470 </r>
       <r>   -12.6776     0.1116     3.2800 </r>
       <r>   -12.5579     0.2725     3.3260 </r>
       <r>   -12.4382     0.2228     3.3600 </r>
       <r>   -12.3185     0.4236     3.4107 </r>
       <r>   -12.1988     0.1114     3.4267 </r>
       <r>   -12.0791     0.2228     3.4667 </r>
       <r>   -11.9593     0.2228     3.5067 </r>
       <r>   -11.8396     0.2228     3.5333 </r>
       <r>   -11.7199     0.2228     3.5733 </r>
       <r>   -11.6002     0.3341     3.6133 </r>
       <r>   -11.4805     0.2228     3.6400 </r>
       <r>   -11.3608     0.3341     3.6800 </r>
       <r>   -11.2411     0.1947     3.7033 </r>
       <r>   -11.1214     0.2228     3.7467 </r>
       <r>   -11.0016     0.2227     3.7733 </r>
       <r>   -10.8819     0.2225     3.8133 </r>
       <r>   -10.7622     0.2217     3.8399 </r>
       <r>   -10.6425     0.3326     3.8798 </r>
       <r>   -10.5228     0.1097     3.9065 </r>
       <r>   -10.4031     0.4346     3.9587 </r>
       <r>   -10.2834     0.6475     4.0375 </r>
       <r>   -10.1637     0.8018     4.1893 </r>
       <r>   -10.0440     0.5032     4.2869 </r>
       <r>    -9.9242     0.6669     4.3732 </r>
       <r>    -9.8045     0.4678     4.4427 </r>
       <r>    -9.6848     0.4182     4.5301 </r>
       <r>    -9.5651     0.4517     4.5874 </r>
       <r>    -9.4454     0.3245     4.6655 </r>
       <r>    -9.3257     0.4387     4.7459 </r>
       <r>    -9.2060     0.3211     4.8118 </r>
       <r>    -9.0863     0.4667     4.8959 </r>
       <r>    -8.9665     1.1953     5.0631 </r>
       <r>    -8.8468     0.6340     5.1692 </r>
       <r>    -8.7271     0.3354     5.2402 </r>
       <r>    -8.6074     0.2311     5.3077 </r>
       <r>    -8.4877     0.2766     5.3664 </r>
       <r>    -8.3680     0.2228     5.4400 </r>
       <r>    -8.2483     0.4366     5.5056 </r>
       <r>    -8.1286     0.3340     5.5600 </r>
       <r>    -8.0088     0.5569     5.6267 </r>
       <r>    -7.8891     0.2595     5.6711 </r>
       <r>    -7.7694     0.2132     5.7322 </r>
       <r>    -7.6497     0.5235     5.7960 </r>
       <r>    -7.5300     0.3388     5.8406 </r>
       <r>    -7.4103     0.3350     5.8934 </r>
       <r>    -7.2906     0.3343     5.9467 </r>
       <r>    -7.1709     0.2228     6.0000 </r>
       <r>    -7.0511     0.2607     6.0579 </r>
       <r>    -6.9314     0.2121     6.1054 </r>
       <r>    -6.8117     0.1736     6.1674 </r>
       <r>    -6.6920     0.4280     6.2379 </r>
       <r>    -6.5723     0.3304     6.2929 </r>
       <r>    -6.4526     0.3338     6.3466 </r>
       <r>    -6.3329     0.4188     6.4101 </r>
       <r>    -6.2132     0.4328     6.4785 </r>
       <r>    -6.0934     0.2788     6.5267 </r>
       <r>    -5.9737     0.4434     6.6131 </r>
       <r>    -5.8540     0.3541     6.6824 </r>
       <r>    -5.7343     0.5843     6.7900 </r>
       <r>    -5.6146     0.9935     6.9456 </r>
       <r>    -5.4949     0.2042     7.0778 </r>
       <r>    -5.3752     0.0028     7.0803 </r>
       <r>    -5.2555     0.1120     7.1067 </r>
       <r>    -5.1358     0.0496     7.1259 </r>
       <r>    -5.0160     0.2398     7.1620 </r>
       <r>    -4.8963     0.6947     7.3232 </r>
       <r>    -4.7766     0.4529     7.4009 </r>
       <r>    -4.6569     0.3254     7.4523 </r>
       <r>    -4.5372     0.3299     7.5062 </r>
       <r>    -4.4175     0.1502     7.5380 </r>
       <r>    -4.2978     0.3333     7.5866 </r>
       <r>    -4.1781     0.1114     7.6133 </r>
       <r>    -4.0583     0.2228     7.6533 </r>
       <r>    -3.9386     0.1114     7.6800 </r>
       <r>    -3.8189     0.1109     7.7199 </r>
       <r>    -3.6992     0.1642     7.7397 </r>
       <r>    -3.5795     0.1114     7.7733 </r>
       <r>    -3.4598     0.1130     7.8002 </r>
       <r>    -3.3401     0.1115     7.8267 </r>
       <r>    -3.2204     0.2008     7.8640 </r>
       <r>    -3.1006     0.1114     7.8800 </r>
       <r>    -2.9809     0.1686     7.9135 </r>
       <r>    -2.8612     0.1114     7.9333 </r>
       <r>    -2.7415     0.2228     7.9600 </r>
       <r>    -2.6218     0.0636     7.9809 </r>
       <r>    -2.5021     0.1108     8.0399 </r>
       <r>    -2.3824     0.2228     8.0667 </r>
       <r>    -2.2627     0.1236     8.0815 </r>
       <r>    -2.1429     0.2228     8.1200 </r>
       <r>    -2.0232     0.1253     8.1350 </r>
       <r>    -1.9035     0.1114     8.1733 </r>
       <r>    -1.7838     0.2159     8.2125 </r>
       <r>    -1.6641     0.2175     8.2394 </r>
       <r>    -1.5444     0.3337     8.2799 </r>
       <r>    -1.4247     0.1257     8.3084 </r>
       <r>    -1.3050     0.3471     8.3616 </r>
       <r>    -1.1852     0.3363     8.4136 </r>
       <r>    -1.0655     0.5076     8.5008 </r>
       <r>    -0.9458     1.4209     8.7034 </r>
       <r>    -0.8261     0.2228     8.8267 </r>
       <r>    -0.7064     0.1114     8.8400 </r>
       <r>    -0.5867     0.2228     8.8667 </r>
       <r>    -0.4670     0.0878     8.8772 </r>
       <r>    -0.3473     0.1111     8.8933 </r>
       <r>    -0.2275     0.1114     8.9067 </r>
       <r>    -0.1078     0.0565     8.9134 </r>
       <r>     0.0119     0.0000     8.9333 </r>
       <r>     0.1316     0.0473     8.9390 </r>
       <r>     0.2513     0.0000     8.9600 </r>
       <r>     0.3710     0.0813     8.9697 </r>
       <r>     0.4907     0.1114     8.9867 </r>
       <r>     0.6104     0.9580     9.1280 </r>
       <r>     0.7301     0.4477     9.2136 </r>
       <r>     0.8499     0.2249     9.2669 </r>
       <r>     0.9696     0.2394     9.3220 </r>
       <r>     1.0893     0.2349     9.3748 </r>
       <r>     1.2090     0.3339     9.4266 </r>
       <r>     1.3287     0.6273     9.5018 </r>
       <r>     1.4484     0.8383     9.6737 </r>
       <r>     1.5681     0.6631     9.7727 </r>
       <r>     1.6878     0.8372     9.8869 </r>
       <r>     1.8076     0.8354    10.0733 </r>
       <r>     1.9273     0.8902    10.2132 </r>
       <r>     2.0470     0.6775    10.3211 </r>
       <r>     2.1667     0.7776    10.4264 </r>
       <r>     2.2864     0.4461    10.5067 </r>
       <r>     2.4061     0.3348    10.5867 </r>
       <r>     2.5258     0.6597    10.6923 </r>
       <r>     2.6455     1.3429    10.8674 </r>
       <r>     2.7653     0.7073    11.0180 </r>
       <r>     2.8850     0.5962    11.1514 </r>
       <r>     3.0047     0.7182    11.2593 </r>
       <r>     3.1244     0.7874    11.3743 </r>
       <r>     3.2441     0.3526    11.4555 </r>
       <r>     3.3638     0.8542    11.5956 </r>
       <r>     3.4835     0.2551    11.6439 </r>
       <r>     3.6032     0.5008    11.7533 </r>
       <r>     3.7230     0.6603    11.8524 </r>
       <r>     3.8427     0.3163    11.9179 </r>
       <r>     3.9624     0.5331    11.9838 </r>
       <r>     4.0821     0.5512    12.0660 </r>
       <r>     4.2018     0.3228    12.1320 </r>
       <r>     4.3215     0.3534    12.2156 </r>
       <r>     4.4412     0.6683    12.3067 </r>
       <r>     4.5609     0.4269    12.3578 </r>
       <r>     4.6807     0.3341    12.4267 </r>
       <r>     4.8004     0.3322    12.4664 </r>
       <r>     4.9201     1.2791    12.6998 </r>
       <r>     5.0398     0.5241    12.8227 </r>
       <r>     5.1595     0.8396    12.9272 </r>
       <r>     5.2792     0.3698    12.9909 </r>
       <r>     5.3989     0.3695    13.0442 </r>
       <r>     5.5186     0.1126    13.0801 </r>
       <r>     5.6384     0.1482    13.1244 </r>
       <r>     5.7581     0.2255    13.1737 </r>
       <r>     5.8778     0.1162    13.2006 </r>
       <r>     5.9975     0.2213    13.2665 </r>
       <r>     6.1172     0.1113    13.2933 </r>
       <r>     6.2369     0.4428    13.3463 </r>
       <r>     6.3566     0.2228    13.3733 </r>
       <r>     6.4763     0.2845    13.4207 </r>
       <r>     6.5960     0.0032    13.4404 </r>
       <r>     6.7158     0.3171    13.4913 </r>
       <r>     6.8355     0.1114    13.5333 </r>
       <r>     6.9552     0.1131    13.5469 </r>
       <r>     7.0749     0.3341    13.6133 </r>
       <r>     7.1946     0.1114    13.6267 </r>
       <r>     7.3143     0.5876    13.6970 </r>
       <r>     7.4340     0.0000    13.7067 </r>
       <r>     7.5537     0.2234    13.7334 </r>
       <r>     7.6735     0.2659    13.7918 </r>
       <r>     7.7932     0.1114    13.8133 </r>
       <r>     7.9129     0.3818    13.8590 </r>
       <r>     8.0326     1.3839    14.0457 </r>
       <r>     8.1523     0.6241    14.1680 </r>
       <r>     8.2720     0.3362    14.2403 </r>
       <r>     8.3917     0.1127    14.2935 </r>
       <r>     8.5114     0.9931    14.4922 </r>
       <r>     8.6312     1.5010    14.7130 </r>
       <r>     8.7509     0.9512    14.9005 </r>
       <r>     8.8706     0.6867    15.0555 </r>
       <r>     8.9903     0.8871    15.1995 </r>
       <r>     9.1100     0.3765    15.2984 </r>
       <r>     9.2297     0.2221    15.3466 </r>
       <r>     9.3494     0.3343    15.4000 </r>
       <r>     9.4691     0.3250    15.4522 </r>
       <r>     9.5889     0.1428    15.4838 </r>
       <r>     9.7086     0.1744    15.5409 </r>
       <r>     9.8283     0.3170    15.5979 </r>
       <r>     9.9480     0.4372    15.6657 </r>
       <r>    10.0677     0.3343    15.7067 </r>
       <r>    10.1874     0.4851    15.7914 </r>
       <r>    10.3071     0.9418    15.9261 </r>
       <r>    10.4268     0.2233    15.9601 </r>
       <r>    10.5466     0.1114    16.0000 </r>
       <r>    10.6663     0.0000    16.0000 </r>
       <r>    10.7860     0.0000    16.0000 </r>
       <r>    10.9057     0.0000    16.0000 </r>
       <r>    11.0254     0.0000    16.0000 </r>
       <r>    11.1451     0.0000    16.0000 </r>
       <r>    11.2648     0.0000    16.0000 </r>
       <r>    11.3845     0.0000    16.0000 </r>
       <r>    11.5043     0.0000    16.0000 </r>
       <r>    11.6240     0.0000    16.0000 </r>
       <r>    11.7437     0.0000    16.0000 </r>
       <r>    11.8634     0.0000    16.0000 </r>
       <r>    11.9831     0.0000    16.0000 </r>
       <r>    12.1028     0.0000    16.0000 </r>
      </set>
     </set>
    </array>
   </total>
  </dos>
 </calculation>
 <structure name="finalpos" >
  <crystal>
   <varray name="basis" >
    <v>       2.13000000      -1.22975600       0.00000000 </v>
    <v>       2.13000000       1.22975600       0.00000000 </v>
    <v>       0.00000000       0.00000000      20.00000000 </v>
   </varray>
   <i name="volume">    104.77521120 </i>
   <varray name="rec_basis" >
    <v>       0.23474178      -0.40658472       0.00000000 </v>
    <v>       0.23474178       0.40658472       0.00000000 </v>
    <v>       0.00000000       0.00000000       0.05000000 </v>
   </varray>
  </crystal>
  <varray name="positions" >
   <v>       0.00000000       0.00000000       0.00000000 </v>
   <v>       0.33333300       0.33333300       0.00000000 </v>
  </varray>
 </structure>
</modeling>
