nqpoint: 303    
npath: 3      
segment_nqpoint:
- 101
- 101
- 101
reciprocal_lattice:
- [   0.23474178,  -0.40658472,   0.00000000 ] # a*
- [   0.23474178,   0.40658472,   0.00000000 ] # b*
- [   0.00000000,   0.00000000,   0.05000000 ] # c*
natom: 2      
lattice:
- [     2.130000000000000,    -1.229756000000000,     0.000000000000000 ] # a
- [     2.130000000000000,     1.229756000000000,     0.000000000000000 ] # b
- [     0.000000000000000,     0.000000000000000,    20.000000000000000 ] # c
points:
- symbol: C  # 1
  coordinates: [  0.000000000000000,  0.000000000000000,  0.000000000000000 ]
  mass: 12.010700
- symbol: C  # 2
  coordinates: [  0.333333000000000,  0.333333000000000,  0.000000000000000 ]
  mass: 12.010700
supercell_matrix:
- [    9,    0,    0 ]
- [    0,    9,    0 ]
- [    0,    0,    1 ]

phonon:
- q-position: [    0.0000000,    0.0000000,    0.0000000 ]
  distance:    0.0000000
  band:
  - # 1
    frequency:   -0.0085107058
  - # 2
    frequency:   -0.0085107054
  - # 3
    frequency:    0.0046571623
  - # 4
    frequency:   25.8653860311
  - # 5
    frequency:   45.4082390012
  - # 6
    frequency:   45.4082413475

- q-position: [    0.0050000,    0.0050000,    0.0000000 ]
  distance:    0.0023474
  band:
  - # 1
    frequency:   -0.0364886703
  - # 2
    frequency:    0.3409248399
  - # 3
    frequency:    0.5389341442
  - # 4
    frequency:   25.8651971697
  - # 5
    frequency:   45.4086604369
  - # 6
    frequency:   45.4102611863

- q-position: [    0.0100000,    0.0100000,    0.0000000 ]
  distance:    0.0046948
  band:
  - # 1
    frequency:   -0.0729602730
  - # 2
    frequency:    0.6818740551
  - # 3
    frequency:    1.0778370469
  - # 4
    frequency:   25.8646287933
  - # 5
    frequency:   45.4099137100
  - # 6
    frequency:   45.4163199186

- q-position: [    0.0150000,    0.0150000,    0.0000000 ]
  distance:    0.0070423
  band:
  - # 1
    frequency:   -0.1084026439
  - # 2
    frequency:    1.0225181481
  - # 3
    frequency:    1.6164536511
  - # 4
    frequency:   25.8636755324
  - # 5
    frequency:   45.4119876281
  - # 6
    frequency:   45.4263933347

- q-position: [    0.0200000,    0.0200000,    0.0000000 ]
  distance:    0.0093897
  band:
  - # 1
    frequency:   -0.1424016742
  - # 2
    frequency:    1.3627492344
  - # 3
    frequency:    2.1546692185
  - # 4
    frequency:   25.8623284572
  - # 5
    frequency:   45.4148599586
  - # 6
    frequency:   45.4404448352

- q-position: [    0.0250000,    0.0250000,    0.0000000 ]
  distance:    0.0117371
  band:
  - # 1
    frequency:   -0.1744530571
  - # 2
    frequency:    1.7024386766
  - # 3
    frequency:    2.6923560630
  - # 4
    frequency:   25.8605751074
  - # 5
    frequency:   45.4184997207
  - # 6
    frequency:   45.4584233945

- q-position: [    0.0300000,    0.0300000,    0.0000000 ]
  distance:    0.0140845
  band:
  - # 1
    frequency:   -0.2039971843
  - # 2
    frequency:    2.0414549589
  - # 3
    frequency:    3.2293849152
  - # 4
    frequency:   25.8583995332
  - # 5
    frequency:   45.4228673293
  - # 6
    frequency:   45.4802637734

- q-position: [    0.0350000,    0.0350000,    0.0000000 ]
  distance:    0.0164319
  band:
  - # 1
    frequency:   -0.2304059628
  - # 2
    frequency:    2.3796663823
  - # 3
    frequency:    3.7656266859
  - # 4
    frequency:   25.8557823478
  - # 5
    frequency:   45.4279147783
  - # 6
    frequency:   45.5058867879

- q-position: [    0.0400000,    0.0400000,    0.0000000 ]
  distance:    0.0187793
  band:
  - # 1
    frequency:   -0.2529553610
  - # 2
    frequency:    2.7169418647
  - # 3
    frequency:    4.3009530284
  - # 4
    frequency:   25.8527007909
  - # 5
    frequency:   45.4335858626
  - # 6
    frequency:   45.5351996346

- q-position: [    0.0450000,    0.0450000,    0.0000000 ]
  distance:    0.0211268
  band:
  - # 1
    frequency:   -0.2707811830
  - # 2
    frequency:    3.0531513190
  - # 3
    frequency:    4.8352366338
  - # 4
    frequency:   25.8491288027
  - # 5
    frequency:   45.4398164367
  - # 6
    frequency:   45.5680962691

- q-position: [    0.0500000,    0.0500000,    0.0000000 ]
  distance:    0.0234742
  band:
  - # 1
    frequency:   -0.2828058197
  - # 2
    frequency:    3.3881659067
  - # 3
    frequency:    5.3683514451
  - # 4
    frequency:   25.8450371087
  - # 5
    frequency:   45.4465347087
  - # 6
    frequency:   45.6044578340

- q-position: [    0.0550000,    0.0550000,    0.0000000 ]
  distance:    0.0258216
  band:
  - # 1
    frequency:   -0.2876078157
  - # 2
    frequency:    3.7218582456
  - # 3
    frequency:    5.9001728417
  - # 4
    frequency:   25.8403933141
  - # 5
    frequency:   45.4536615689
  - # 6
    frequency:   45.6441531348

- q-position: [    0.0600000,    0.0600000,    0.0000000 ]
  distance:    0.0281690
  band:
  - # 1
    frequency:   -0.2831646002
  - # 2
    frequency:    4.0541025992
  - # 3
    frequency:    6.4305778095
  - # 4
    frequency:   25.8351620075
  - # 5
    frequency:   45.4611109488
  - # 6
    frequency:   45.6870391587

- q-position: [    0.0650000,    0.0650000,    0.0000000 ]
  distance:    0.0305164
  band:
  - # 1
    frequency:   -0.2662650061
  - # 2
    frequency:    4.3847750581
  - # 3
    frequency:    6.9594451046
  - # 4
    frequency:   25.8293048738
  - # 5
    frequency:   45.4687902107
  - # 6
    frequency:   45.7329616337

- q-position: [    0.0700000,    0.0700000,    0.0000000 ]
  distance:    0.0328638
  band:
  - # 1
    frequency:   -0.2308162296
  - # 2
    frequency:    4.7137537164
  - # 3
    frequency:    7.4866554121
  - # 4
    frequency:   25.8227808153
  - # 5
    frequency:   45.4766005647
  - # 6
    frequency:   45.7817556235

- q-position: [    0.0750000,    0.0750000,    0.0000000 ]
  distance:    0.0352113
  band:
  - # 1
    frequency:   -0.1600735948
  - # 2
    frequency:    5.0409188475
  - # 3
    frequency:    8.0120915009
  - # 4
    frequency:   25.8155460803
  - # 5
    frequency:   45.4844375103
  - # 6
    frequency:   45.8332461540

- q-position: [    0.0800000,    0.0800000,    0.0000000 ]
  distance:    0.0375587
  band:
  - # 1
    frequency:    0.1177361508
  - # 2
    frequency:    5.3661530769
  - # 3
    frequency:    8.5356383759
  - # 4
    frequency:   25.8075543993
  - # 5
    frequency:   45.4921913009
  - # 6
    frequency:   45.8872488686

- q-position: [    0.0850000,    0.0850000,    0.0000000 ]
  distance:    0.0399061
  band:
  - # 1
    frequency:    0.2590023109
  - # 2
    frequency:    5.6893415542
  - # 3
    frequency:    9.0571834267
  - # 4
    frequency:   25.7987571274
  - # 5
    frequency:   45.4997474291
  - # 6
    frequency:   45.9435707057

- q-position: [    0.0900000,    0.0900000,    0.0000000 ]
  distance:    0.0422535
  band:
  - # 1
    frequency:    0.3688315159
  - # 2
    frequency:    6.0103721240
  - # 3
    frequency:    9.5766165724
  - # 4
    frequency:   25.7891033928
  - # 5
    frequency:   45.5069871290
  - # 6
    frequency:   46.0020105963

- q-position: [    0.0950000,    0.0950000,    0.0000000 ]
  distance:    0.0446009
  band:
  - # 1
    frequency:    0.4720345232
  - # 2
    frequency:    6.3291354946
  - # 3
    frequency:   10.0938304035
  - # 4
    frequency:   25.7785402503
  - # 5
    frequency:   45.5137878943
  - # 6
    frequency:   46.0623601774

- q-position: [    0.1000000,    0.1000000,    0.0000000 ]
  distance:    0.0469484
  band:
  - # 1
    frequency:    0.5741086758
  - # 2
    frequency:    6.6455254050
  - # 3
    frequency:   10.6087203191
  - # 4
    frequency:   25.7670128401
  - # 5
    frequency:   45.5200240090
  - # 6
    frequency:   46.1244045151

- q-position: [    0.1050000,    0.1050000,    0.0000000 ]
  distance:    0.0492958
  band:
  - # 1
    frequency:    0.6772375780
  - # 2
    frequency:    6.9594387884
  - # 3
    frequency:   11.1211846603
  - # 4
    frequency:   25.7544645495
  - # 5
    frequency:   45.5255670885
  - # 6
    frequency:   46.1879228362

- q-position: [    0.1100000,    0.1100000,    0.0000000 ]
  distance:    0.0516432
  band:
  - # 1
    frequency:    0.7824995699
  - # 2
    frequency:    7.2707759328
  - # 3
    frequency:   11.6311248385
  - # 4
    frequency:   25.7408371794
  - # 5
    frequency:   45.5302866287
  - # 6
    frequency:   46.2526892620

- q-position: [    0.1150000,    0.1150000,    0.0000000 ]
  distance:    0.0539906
  band:
  - # 1
    frequency:    0.8904924157
  - # 2
    frequency:    7.5794406381
  - # 3
    frequency:   12.1384454582
  - # 4
    frequency:   25.7260711125
  - # 5
    frequency:   45.5340505600
  - # 6
    frequency:   46.3184735429

- q-position: [    0.1200000,    0.1200000,    0.0000000 ]
  distance:    0.0563380
  band:
  - # 1
    frequency:    1.0015701070
  - # 2
    frequency:    7.8853403671
  - # 3
    frequency:   12.6430544348
  - # 4
    frequency:   25.7101054843
  - # 5
    frequency:   45.5367258061
  - # 6
    frequency:   46.3850417879

- q-position: [    0.1250000,    0.1250000,    0.0000000 ]
  distance:    0.0586854
  band:
  - # 1
    frequency:    1.1159495165
  - # 2
    frequency:    8.1883863917
  - # 3
    frequency:   13.1448631059
  - # 4
    frequency:   25.6928783555
  - # 5
    frequency:   45.5381788424
  - # 6
    frequency:   46.4521571882

- q-position: [    0.1300000,    0.1300000,    0.0000000 ]
  distance:    0.0610329
  band:
  - # 1
    frequency:    1.2337643488
  - # 2
    frequency:    8.4884939327
  - # 3
    frequency:   13.6437863360
  - # 4
    frequency:   25.6743268861
  - # 5
    frequency:   45.5382762542
  - # 6
    frequency:   46.5195807298

- q-position: [    0.1350000,    0.1350000,    0.0000000 ]
  distance:    0.0633803
  band:
  - # 1
    frequency:    1.3550948342
  - # 2
    frequency:    8.7855822917
  - # 3
    frequency:   14.1397426142
  - # 4
    frequency:   25.6543875094
  - # 5
    frequency:   45.5368852925
  - # 6
    frequency:   46.5870718938

- q-position: [    0.1400000,    0.1400000,    0.0000000 ]
  distance:    0.0657277
  band:
  - # 1
    frequency:    1.4799851611
  - # 2
    frequency:    9.0795749746
  - # 3
    frequency:   14.6326541443
  - # 4
    frequency:   25.6329961069
  - # 5
    frequency:   45.5338744241
  - # 6
    frequency:   46.6543893410

- q-position: [    0.1450000,    0.1450000,    0.0000000 ]
  distance:    0.0680751
  band:
  - # 1
    frequency:    1.6084542451
  - # 2
    frequency:    9.3703998063
  - # 3
    frequency:   15.1224469272
  - # 4
    frequency:   25.6100881826
  - # 5
    frequency:   45.5291138762
  - # 6
    frequency:   46.7212915787

- q-position: [    0.1500000,    0.1500000,    0.0000000 ]
  distance:    0.0704225
  band:
  - # 1
    frequency:    1.7405026637
  - # 2
    frequency:    9.6579890344
  - # 3
    frequency:   15.6090508345
  - # 4
    frequency:   25.5855990368
  - # 5
    frequency:   45.5224761729
  - # 6
    frequency:   46.7875376081

- q-position: [    0.1550000,    0.1550000,    0.0000000 ]
  distance:    0.0727700
  band:
  - # 1
    frequency:    1.8761172787
  - # 2
    frequency:    9.9422794220
  - # 3
    frequency:   16.0923996734
  - # 4
    frequency:   25.5594639392
  - # 5
    frequency:   45.5138366620
  - # 6
    frequency:   46.8528875498

- q-position: [    0.1600000,    0.1600000,    0.0000000 ]
  distance:    0.0751174
  band:
  - # 1
    frequency:    2.0152744075
  - # 2
    frequency:   10.2232123273
  - # 3
    frequency:   16.5724312419
  - # 4
    frequency:   25.5316182999
  - # 5
    frequency:   45.5030740317
  - # 6
    frequency:   46.9171032462

- q-position: [    0.1650000,    0.1650000,    0.0000000 ]
  distance:    0.0774648
  band:
  - # 1
    frequency:    2.1579420541
  - # 2
    frequency:   10.5007337703
  - # 3
    frequency:   17.0490873751
  - # 4
    frequency:   25.5019978399
  - # 5
    frequency:   45.4900708153
  - # 6
    frequency:   46.9799488402

- q-position: [    0.1700000,    0.1700000,    0.0000000 ]
  distance:    0.0798122
  band:
  - # 1
    frequency:    2.3040815112
  - # 2
    frequency:   10.7747944849
  - # 3
    frequency:   17.5223139801
  - # 4
    frequency:   25.4705387593
  - # 5
    frequency:   45.4747138830
  - # 6
    frequency:   47.0411913270

- q-position: [    0.1750000,    0.1750000,    0.0000000 ]
  distance:    0.0821596
  band:
  - # 1
    frequency:    2.4536485335
  - # 2
    frequency:   11.0453499545
  - # 3
    frequency:   17.9920610614
  - # 4
    frequency:   25.4371779033
  - # 5
    frequency:   45.4568949202
  - # 6
    frequency:   47.1006010810

- q-position: [    0.1800000,    0.1800000,    0.0000000 ]
  distance:    0.0845070
  band:
  - # 1
    frequency:    2.6065942090
  - # 2
    frequency:   11.3123604315
  - # 3
    frequency:   18.4582827348
  - # 4
    frequency:   25.4018529263
  - # 5
    frequency:   45.4365108911
  - # 6
    frequency:   47.1579523546

- q-position: [    0.1850000,    0.1850000,    0.0000000 ]
  distance:    0.0868545
  band:
  - # 1
    frequency:    2.7628656160
  - # 2
    frequency:   11.5757909388
  - # 3
    frequency:   18.9209372301
  - # 4
    frequency:   25.3645024542
  - # 5
    frequency:   45.4134644878
  - # 6
    frequency:   47.2130237502

- q-position: [    0.1900000,    0.1900000,    0.0000000 ]
  distance:    0.0892019
  band:
  - # 1
    frequency:    2.9224063227
  - # 2
    frequency:   11.8356112521
  - # 3
    frequency:   19.3799868825
  - # 4
    frequency:   25.3250662436
  - # 5
    frequency:   45.3876645630
  - # 6
    frequency:   47.2655986635

- q-position: [    0.1950000,    0.1950000,    0.0000000 ]
  distance:    0.0915493
  band:
  - # 1
    frequency:    3.0851567722
  - # 2
    frequency:   12.0917958626
  - # 3
    frequency:   19.8353981122
  - # 4
    frequency:   25.2834853392
  - # 5
    frequency:   45.3590265466
  - # 6
    frequency:   47.3154656994

- q-position: [    0.2000000,    0.2000000,    0.0000000 ]
  distance:    0.0938967
  band:
  - # 1
    frequency:    3.2510545791
  - # 2
    frequency:   12.3443239182
  - # 3
    frequency:   20.2871413914
  - # 4
    frequency:   25.2397022289
  - # 5
    frequency:   45.3274728471
  - # 6
    frequency:   47.3624190597

- q-position: [    0.2050000,    0.2050000,    0.0000000 ]
  distance:    0.0962441
  band:
  - # 1
    frequency:    3.4200347600
  - # 2
    frequency:   12.5931791437
  - # 3
    frequency:   20.7351911995
  - # 4
    frequency:   25.1936609965
  - # 5
    frequency:   45.2929332344
  - # 6
    frequency:   47.4062589027

- q-position: [    0.2100000,    0.2100000,    0.0000000 ]
  distance:    0.0985915
  band:
  - # 1
    frequency:    3.5920299122
  - # 2
    frequency:   12.8383497375
  - # 3
    frequency:   21.1795259661
  - # 4
    frequency:   25.1453074728
  - # 5
    frequency:   45.2553452073
  - # 6
    frequency:   47.4467916753

- q-position: [    0.2150000,    0.2150000,    0.0000000 ]
  distance:    0.1009390
  band:
  - # 1
    frequency:    3.7669703509
  - # 2
    frequency:   13.0798282447
  - # 3
    frequency:   21.6201280006
  - # 4
    frequency:   25.0945893841
  - # 5
    frequency:   45.2146543433
  - # 6
    frequency:   47.4838304174

- q-position: [    0.2200000,    0.2200000,    0.0000000 ]
  distance:    0.1032864
  band:
  - # 1
    frequency:    3.9447842144
  - # 2
    frequency:   13.3176114063
  - # 3
    frequency:   22.0569834103
  - # 4
    frequency:   25.0414565000
  - # 5
    frequency:   45.1708146314
  - # 6
    frequency:   47.5171950402

- q-position: [    0.2250000,    0.2250000,    0.0000000 ]
  distance:    0.1056338
  band:
  - # 1
    frequency:    4.1253975419
  - # 2
    frequency:   13.5516999830
  - # 3
    frequency:   22.4900820046
  - # 4
    frequency:   24.9858607793
  - # 5
    frequency:   45.1237887880
  - # 6
    frequency:   47.5467125770

- q-position: [    0.2300000,    0.2300000,    0.0000000 ]
  distance:    0.1079812
  band:
  - # 1
    frequency:    4.3087343287
  - # 2
    frequency:   13.7820985531
  - # 3
    frequency:   22.9194171874
  - # 4
    frequency:   24.9277565148
  - # 5
    frequency:   45.0735485554
  - # 6
    frequency:   47.5722174087

- q-position: [    0.2350000,    0.2350000,    0.0000000 ]
  distance:    0.1103286
  band:
  - # 1
    frequency:    4.4947165629
  - # 2
    frequency:   14.0088152851
  - # 3
    frequency:   23.3449858362
  - # 4
    frequency:   24.8671004787
  - # 5
    frequency:   45.0200749842
  - # 6
    frequency:   47.5935514650

- q-position: [    0.2400000,    0.2400000,    0.0000000 ]
  distance:    0.1126761
  band:
  - # 1
    frequency:    4.6832642448
  - # 2
    frequency:   14.2318616831
  - # 3
    frequency:   23.7667881690
  - # 4
    frequency:   24.8038520667
  - # 5
    frequency:   44.9633586977
  - # 6
    frequency:   47.6105643995

- q-position: [    0.2450000,    0.2450000,    0.0000000 ]
  distance:    0.1150235
  band:
  - # 1
    frequency:    4.8742953914
  - # 2
    frequency:   14.4512523055
  - # 3
    frequency:   24.1848275985
  - # 4
    frequency:   24.7379734439
  - # 5
    frequency:   44.9034001401
  - # 6
    frequency:   47.6231137427

- q-position: [    0.2500000,    0.2500000,    0.0000000 ]
  distance:    0.1173709
  band:
  - # 1
    frequency:    5.0677260273
  - # 2
    frequency:   14.6670044576
  - # 3
    frequency:   24.5991105736
  - # 4
    frequency:   24.6694296918
  - # 5
    frequency:   44.8402098079
  - # 6
    frequency:   47.6310650317

- q-position: [    0.2550000,    0.2550000,    0.0000000 ]
  distance:    0.1197183
  band:
  - # 1
    frequency:    5.2634701619
  - # 2
    frequency:   14.8791378568
  - # 3
    frequency:   24.5981889572
  - # 4
    frequency:   25.0096464087
  - # 5
    frequency:   44.7738084644
  - # 6
    frequency:   47.6342919177

- q-position: [    0.2600000,    0.2600000,    0.0000000 ]
  distance:    0.1220657
  band:
  - # 1
    frequency:    5.4614397543
  - # 2
    frequency:   15.0876742715
  - # 3
    frequency:   24.5242226050
  - # 4
    frequency:   25.4164471014
  - # 5
    frequency:   44.7042273373
  - # 6
    frequency:   47.6326762529

- q-position: [    0.2650000,    0.2650000,    0.0000000 ]
  distance:    0.1244131
  band:
  - # 1
    frequency:    5.6615446645
  - # 2
    frequency:   15.2926371351
  - # 3
    frequency:   24.4475053750
  - # 4
    frequency:   25.8195271373
  - # 5
    frequency:   44.6315083000
  - # 6
    frequency:   47.6261081575

- q-position: [    0.2700000,    0.2700000,    0.0000000 ]
  distance:    0.1267606
  band:
  - # 1
    frequency:    5.8636925914
  - # 2
    frequency:   15.4940511331
  - # 3
    frequency:   24.3680155446
  - # 4
    frequency:   26.2189032838
  - # 5
    frequency:   44.5557040351
  - # 6
    frequency:   47.6144860676

- q-position: [    0.2750000,    0.2750000,    0.0000000 ]
  distance:    0.1291080
  band:
  - # 1
    frequency:    6.0677889971
  - # 2
    frequency:   15.6919417678
  - # 3
    frequency:   24.2857350987
  - # 4
    frequency:   26.6145943717
  - # 5
    frequency:   44.4768781814
  - # 6
    frequency:   47.5977167649

- q-position: [    0.2800000,    0.2800000,    0.0000000 ]
  distance:    0.1314554
  band:
  - # 1
    frequency:    6.2737370149
  - # 2
    frequency:   15.8863348984
  - # 3
    frequency:   24.2006499085
  - # 4
    frequency:   27.0066210660
  - # 5
    frequency:   44.3951054633
  - # 6
    frequency:   47.5757153903

- q-position: [    0.2850000,    0.2850000,    0.0000000 ]
  distance:    0.1338028
  band:
  - # 1
    frequency:    6.4814373409
  - # 2
    frequency:   16.0772562610
  - # 3
    frequency:   24.1127499209
  - # 4
    frequency:   27.3950056247
  - # 5
    frequency:   44.3104718016
  - # 6
    frequency:   47.5484054417

- q-position: [    0.2900000,    0.2900000,    0.0000000 ]
  distance:    0.1361502
  band:
  - # 1
    frequency:    6.6907881077
  - # 2
    frequency:   16.2647309678
  - # 3
    frequency:   24.0220293624
  - # 4
    frequency:   27.7797716468
  - # 5
    frequency:   44.2230744061
  - # 6
    frequency:   47.5157187576

- q-position: [    0.2950000,    0.2950000,    0.0000000 ]
  distance:    0.1384977
  band:
  - # 1
    frequency:    6.9016847354
  - # 2
    frequency:   16.4487829897
  - # 3
    frequency:   23.9284869574
  - # 4
    frequency:   28.1609438089
  - # 5
    frequency:   44.1330218491
  - # 6
    frequency:   47.4775954878

- q-position: [    0.3000000,    0.3000000,    0.0000000 ]
  distance:    0.1408451
  band:
  - # 1
    frequency:    7.1140197608
  - # 2
    frequency:   16.6294346233
  - # 3
    frequency:   23.8321261670
  - # 4
    frequency:   28.5385475903
  - # 5
    frequency:   44.0404341174
  - # 6
    frequency:   47.4339840534

- q-position: [    0.3050000,    0.3050000,    0.0000000 ]
  distance:    0.1431925
  band:
  - # 1
    frequency:    7.3276826382
  - # 2
    frequency:   16.8067059462
  - # 3
    frequency:   23.7329554501
  - # 4
    frequency:   28.9126089871
  - # 5
    frequency:   43.9454426439
  - # 6
    frequency:   47.3848410965

- q-position: [    0.3100000,    0.3100000,    0.0000000 ]
  distance:    0.1455399
  band:
  - # 1
    frequency:    7.5425595094
  - # 2
    frequency:   16.9806142636
  - # 3
    frequency:   23.6309885512
  - # 4
    frequency:   29.2831542135
  - # 5
    frequency:   43.8481903148
  - # 6
    frequency:   47.3301314234

- q-position: [    0.3150000,    0.3150000,    0.0000000 ]
  distance:    0.1478873
  band:
  - # 1
    frequency:    7.7585329382
  - # 2
    frequency:   17.1511735494
  - # 3
    frequency:   23.5262448215
  - # 4
    frequency:   29.6502093911
  - # 5
    frequency:   43.7488314528
  - # 6
    frequency:   47.2698279413

- q-position: [    0.3200000,    0.3200000,    0.0000000 ]
  distance:    0.1502347
  band:
  - # 1
    frequency:    7.9754816030
  - # 2
    frequency:   17.3183938873
  - # 3
    frequency:   23.4187495773
  - # 4
    frequency:   30.0138002247
  - # 5
    frequency:   43.6475317728
  - # 6
    frequency:   47.2039115930

- q-position: [    0.3250000,    0.3250000,    0.0000000 ]
  distance:    0.1525822
  band:
  - # 1
    frequency:    8.1932799414
  - # 2
    frequency:   17.4822809148
  - # 3
    frequency:   23.3085345033
  - # 4
    frequency:   30.3739516626
  - # 5
    frequency:   43.5444683082
  - # 6
    frequency:   47.1323712907

- q-position: [    0.3300000,    0.3300000,    0.0000000 ]
  distance:    0.1549296
  band:
  - # 1
    frequency:    8.4117977381
  - # 2
    frequency:   17.6428352774
  - # 3
    frequency:   23.1956381099
  - # 4
    frequency:   30.7306875408
  - # 5
    frequency:   43.4398293050
  - # 6
    frequency:   47.0552038544

- q-position: [    0.3350000,    0.3350000,    0.0000000 ]
  distance:    0.1572770
  band:
  - # 1
    frequency:    8.6308996475
  - # 2
    frequency:   17.8000520969
  - # 3
    frequency:   23.0801062534
  - # 4
    frequency:   31.0840302079
  - # 5
    frequency:   43.3338140806
  - # 6
    frequency:   46.9724139565

- q-position: [    0.3400000,    0.3400000,    0.0000000 ]
  distance:    0.1596244
  band:
  - # 1
    frequency:    8.8504446386
  - # 2
    frequency:   17.9539204603
  - # 3
    frequency:   22.9619927298
  - # 4
    frequency:   31.4340001278
  - # 5
    frequency:   43.2266328430
  - # 6
    frequency:   46.8840140793

- q-position: [    0.3450000,    0.3450000,    0.0000000 ]
  distance:    0.1619718
  band:
  - # 1
    frequency:    9.0702853498
  - # 2
    frequency:   18.1044229374
  - # 3
    frequency:   22.8413599582
  - # 4
    frequency:   31.7806154552
  - # 5
    frequency:   43.1185064680
  - # 6
    frequency:   46.7900244906

- q-position: [    0.3500000,    0.3500000,    0.0000000 ]
  distance:    0.1643192
  band:
  - # 1
    frequency:    9.2902673362
  - # 2
    frequency:   18.2515351324
  - # 3
    frequency:   22.7182797676
  - # 4
    frequency:   32.1238915795
  - # 5
    frequency:   43.0096662275
  - # 6
    frequency:   46.6904732445

- q-position: [    0.3550000,    0.3550000,    0.0000000 ]
  distance:    0.1666667
  band:
  - # 1
    frequency:    9.5102281917
  - # 2
    frequency:   18.3952252786
  - # 3
    frequency:   22.5928343082
  - # 4
    frequency:   32.4638406286
  - # 5
    frequency:   42.9003534666
  - # 6
    frequency:   46.5853962169

- q-position: [    0.3600000,    0.3600000,    0.0000000 ]
  distance:    0.1690141
  band:
  - # 1
    frequency:    9.7299965213
  - # 2
    frequency:   18.5354538834
  - # 3
    frequency:   22.4651171092
  - # 4
    frequency:   32.8004709237
  - # 5
    frequency:   42.7908192220
  - # 6
    frequency:   46.4748371859

- q-position: [    0.3650000,    0.3650000,    0.0000000 ]
  distance:    0.1713615
  band:
  - # 1
    frequency:    9.9493907374
  - # 2
    frequency:   18.6721734334
  - # 3
    frequency:   22.3352343113
  - # 4
    frequency:   33.1337863718
  - # 5
    frequency:   42.6813237778
  - # 6
    frequency:   46.3588479729

- q-position: [    0.3700000,    0.3700000,    0.0000000 ]
  distance:    0.1737089
  band:
  - # 1
    frequency:   10.1682176473
  - # 2
    frequency:   18.8053281669
  - # 3
    frequency:   22.2033061066
  - # 4
    frequency:   33.4637857803
  - # 5
    frequency:   42.5721361512
  - # 6
    frequency:   46.2374886609

- q-position: [    0.3750000,    0.3750000,    0.0000000 ]
  distance:    0.1760563
  band:
  - # 1
    frequency:   10.3862707923
  - # 2
    frequency:   18.9348539239
  - # 3
    frequency:   22.0694684239
  - # 4
    frequency:   33.7904620700
  - # 5
    frequency:   42.4635335030
  - # 6
    frequency:   46.1108279146

- q-position: [    0.3800000,    0.3800000,    0.0000000 ]
  distance:    0.1784038
  band:
  - # 1
    frequency:   10.6033284928
  - # 2
    frequency:   19.0606780829
  - # 3
    frequency:   21.9338749078
  - # 4
    frequency:   34.1138013598
  - # 5
    frequency:   42.3558004659
  - # 6
    frequency:   45.9789434325

- q-position: [    0.3850000,    0.3850000,    0.0000000 ]
  distance:    0.1807512
  band:
  - # 1
    frequency:   10.8191515444
  - # 2
    frequency:   19.1827195924
  - # 3
    frequency:   21.7966992443
  - # 4
    frequency:   34.4337818825
  - # 5
    frequency:   42.2492283844
  - # 6
    frequency:   45.8419225710

- q-position: [    0.3900000,    0.3900000,    0.0000000 ]
  distance:    0.1830986
  band:
  - # 1
    frequency:   11.0334805011
  - # 2
    frequency:   19.3008891074
  - # 3
    frequency:   21.6581378985
  - # 4
    frequency:   34.7503726796
  - # 5
    frequency:   42.1441144609
  - # 6
    frequency:   45.6998631952

- q-position: [    0.3950000,    0.3950000,    0.0000000 ]
  distance:    0.1854460
  band:
  - # 1
    frequency:   11.2460324705
  - # 2
    frequency:   19.4150892381
  - # 3
    frequency:   21.5184133381
  - # 4
    frequency:   35.0635320057
  - # 5
    frequency:   42.0407608010
  - # 6
    frequency:   45.5528748268

- q-position: [    0.4000000,    0.4000000,    0.0000000 ]
  distance:    0.1877934
  band:
  - # 1
    frequency:   11.4564973356
  - # 2
    frequency:   19.5252149182
  - # 3
    frequency:   21.3777778301
  - # 4
    frequency:   35.3732053443
  - # 5
    frequency:   41.9394733544
  - # 6
    frequency:   45.4010801894

- q-position: [    0.4050000,    0.4050000,    0.0000000 ]
  distance:    0.1901408
  band:
  - # 1
    frequency:   11.6645333069
  - # 2
    frequency:   19.6311538996
  - # 3
    frequency:   21.2365179051
  - # 4
    frequency:   35.6793229009
  - # 5
    frequency:   41.8405607464
  - # 6
    frequency:   45.2446172847

- q-position: [    0.4100000,    0.4100000,    0.0000000 ]
  distance:    0.1924883
  band:
  - # 1
    frequency:   11.8697617007
  - # 2
    frequency:   19.7327873779
  - # 3
    frequency:   21.0949595948
  - # 4
    frequency:   35.9817963879
  - # 5
    frequency:   41.7443329990
  - # 6
    frequency:   45.0836421897

- q-position: [    0.4150000,    0.4150000,    0.0000000 ]
  distance:    0.1948357
  band:
  - # 1
    frequency:   12.0717608362
  - # 2
    frequency:   19.8299907518
  - # 3
    frequency:   20.9534745488
  - # 4
    frequency:   36.2805148325
  - # 5
    frequency:   41.6511001386
  - # 6
    frequency:   44.9183328412

- q-position: [    0.4200000,    0.4200000,    0.0000000 ]
  distance:    0.1971831
  band:
  - # 1
    frequency:   12.2700589527
  - # 2
    frequency:   19.9226345163
  - # 3
    frequency:   20.8124871317
  - # 4
    frequency:   36.5753390301
  - # 5
    frequency:   41.5611706938
  - # 6
    frequency:   44.7488941897

- q-position: [    0.4250000,    0.4250000,    0.0000000 ]
  distance:    0.1995305
  band:
  - # 1
    frequency:   12.4641260724
  - # 2
    frequency:   20.0105852889
  - # 3
    frequency:   20.6724825718
  - # 4
    frequency:   36.8660940865
  - # 5
    frequency:   41.4748500858
  - # 6
    frequency:   44.5755652777

- q-position: [    0.4300000,    0.4300000,    0.0000000 ]
  distance:    0.2018779
  band:
  - # 1
    frequency:   12.6533647952
  - # 2
    frequency:   20.0937069614
  - # 3
    frequency:   20.5340161787
  - # 4
    frequency:   37.1525592318
  - # 5
    frequency:   41.3924389190
  - # 6
    frequency:   44.3986290629

- q-position: [    0.4350000,    0.4350000,    0.0000000 ]
  distance:    0.2042254
  band:
  - # 1
    frequency:   12.8371001136
  - # 2
    frequency:   20.1718619720
  - # 3
    frequency:   20.3977235382
  - # 4
    frequency:   37.4344536790
  - # 5
    frequency:   41.3142311814
  - # 6
    frequency:   44.2184262126

- q-position: [    0.4400000,    0.4400000,    0.0000000 ]
  distance:    0.2065728
  band:
  - # 1
    frequency:   13.0145685228
  - # 2
    frequency:   20.2449126813
  - # 3
    frequency:   20.2643314122
  - # 4
    frequency:   37.7114166622
  - # 5
    frequency:   41.2405123686
  - # 6
    frequency:   44.0353747367

- q-position: [    0.4450000,    0.4450000,    0.0000000 ]