    4    4    1    1
  0.2619380E+02  0.2459512E-09  0.2459512E-09  0.2000000E-08  0.5000000E-15
  1.000000000000000E-004
  CAR 
 C:graphene                              
     16     48     12
 
  0.3742002E-15  0.3742002E-15  0.1262379E-14  0.2267574E-02
    1      -20.795743   1.000000
    2      -20.792649   1.000000
    3       -8.925503   1.000000
    4       -8.851013   1.000000
    5       -4.247788   1.000000
    6       -4.247730   1.000000
    7       -4.247683   1.000000
    8       -4.247625   1.000000
    9        1.799692   0.000000
   10        2.450444   0.000000
   11        2.928368   0.000000
   12        3.888941   0.000000
 
  0.4761905E-01  0.3771171E-15  0.1262379E-14  0.1360544E-01
    1      -20.741902   1.000000
    2      -20.738823   1.000000
    3       -8.860961   1.000000
    4       -8.786723   1.000000
    5       -4.468621   1.000000
    6       -4.468521   1.000000
    7       -4.364616   1.000000
    8       -4.364507   1.000000
    9        1.871914   0.000000
   10        2.523564   0.000000
   11        3.001830   0.000000
   12        3.962275   0.000000
 
  0.9523810E-01  0.3768972E-15  0.1262379E-14  0.1360544E-01
    1      -20.580552   1.000000
    2      -20.577526   1.000000
    3       -8.667825   1.000000
    4       -8.594335   1.000000
    5       -5.088462   1.000000
    6       -5.088350   1.000000
    7       -4.684368   1.000000
    8       -4.684287   1.000000
    9        2.088640   0.000000
   10        2.742898   0.000000
   11        3.222089   0.000000
   12        4.182122   0.000000
 
  0.1428571E+00  0.3593300E-15  0.1262379E-14  0.1360544E-01
    1      -20.312270   1.000000
    2      -20.309318   1.000000
    3       -8.347788   1.000000
    4       -8.275602   1.000000
    5       -6.007880   1.000000
    6       -6.007603   1.000000
    7       -5.135995   1.000000
    8       -5.135869   1.000000
    9        2.449839   0.000000
   10        3.108202   0.000000
   11        3.588626   0.000000
   12        4.547860   0.000000
 
  0.1904762E+00  0.3695184E-15  0.1262379E-14  0.1360544E-01
    1      -19.938053   1.000000
    2      -19.935205   1.000000
    3       -7.903964   1.000000
    4       -7.833689   1.000000
    5       -7.120559   1.000000
    6       -7.120067   1.000000
    7       -5.644732   1.000000
    8       -5.644585   1.000000
    9        2.955072   0.000000
   10        3.618649   0.000000
   11        4.099895   0.000000
   12        5.057407   0.000000
 
  0.2380952E+00  0.1267399E-14  0.1262379E-14  0.1360544E-01
    1      -19.459406   1.000000
    2      -19.456691   1.000000
    3       -8.340225   1.000000
    4       -8.339573   1.000000
    5       -7.341675   1.000000
    6       -7.273963   1.000000
    7       -6.151739   1.000000
    8       -6.151524   1.000000
    9        3.603195   0.000000
   10        4.271304   0.000000
   11        4.748221   0.000000
   12        5.689964   0.000000
 
  0.2857143E+00  0.3625559E-15  0.1262379E-14  0.1360544E-01
    1      -18.878592   1.000000
    2      -18.876033   1.000000
    3       -9.604179   1.000000
    4       -9.603398   1.000000
    5       -6.670009   1.000000
    6       -6.616100   1.000000
    7       -6.615853   1.000000
    8       -6.605653   1.000000
    9        4.388460   0.000000
   10        4.948774   0.000000
   11        4.984339   0.000000
   12        5.217932   0.000000
 
  0.3333333E+00  0.3588666E-15  0.1262379E-14  0.1360544E-01
    1      -18.199084   1.000000
    2      -18.196697   1.000000
    3      -10.867823   1.000000
    4      -10.866898   1.000000
    5       -7.010988   1.000000
    6       -7.010734   1.000000
    7       -5.905436   1.000000
    8       -5.845476   1.000000
    9        3.688579   0.000000
   10        3.743055   0.000000
   11        5.323753   0.000000
   12        6.017534   0.000000
 
  0.3809524E+00  0.3551772E-15  0.1262379E-14  0.1360544E-01
    1      -17.427008   1.000000
    2      -17.424813   1.000000
    3      -12.097703   1.000000
    4      -12.096596   1.000000
    5       -7.319135   1.000000
    6       -7.318885   1.000000
    7       -5.081654   1.000000
    8       -5.027423   1.000000
    9        2.406216   0.000000
   10        2.463402   0.000000
   11        6.274151   0.000000
   12        6.391701   0.000000
 
  0.4285714E+00  0.3810475E-15  0.1262379E-14  0.1360544E-01
    1      -16.577495   1.000000
    2      -16.575485   1.000000
    3      -13.261084   1.000000
    4      -13.259766   1.000000
    5       -7.529745   1.000000
    6       -7.529504   1.000000
    7       -4.278565   1.000000
    8       -4.231722   1.000000
    9        1.278531   0.000000
   10        1.342984   0.000000
   11        6.288372   0.000000
   12        6.296640   0.000000
 
  0.4761905E+00  0.3496025E-15  0.1262379E-14  0.1360544E-01
    1      -15.732616   1.000000
    2      -15.730803   1.000000
    3      -14.265318   1.000000
    4      -14.263826   1.000000
    5       -7.636484   1.000000
    6       -7.636261   1.000000
    7       -3.702098   1.000000
    8       -3.662849   1.000000
    9        0.534727   0.000000
   10        0.607050   0.000000
   11        6.238650   0.000000
   12        6.243874   0.000000
 
  0.9523810E-01  0.4761905E-01  0.1262379E-14  0.1360544E-01
    1      -20.634304   1.000000
    2      -20.631262   1.000000
    3       -8.732125   1.000000
    4       -8.658376   1.000000
    5       -4.873587   1.000000
    6       -4.873472   1.000000
    7       -4.598412   1.000000
    8       -4.598313   1.000000
    9        2.016404   0.000000
   10        2.669803   0.000000
   11        3.148696   0.000000
   12        4.108871   0.000000
 
  0.1428571E+00  0.4761905E-01  0.1262379E-14  0.2721088E-01
    1      -20.419494   1.000000
    2      -20.416511   1.000000
    3       -8.475499   1.000000
    4       -8.402786   1.000000
    5       -5.610422   1.000000
    6       -5.610220   1.000000
    7       -5.017451   1.000000
    8       -5.017349   1.000000
    9        2.305459   0.000000
   10        2.962192   0.000000
   11        3.442149   0.000000
   12        4.401733   0.000000
 
  0.1904762E+00  0.4761905E-01  0.1262379E-14  0.2721088E-01
    1      -20.098246   1.000000
    2      -20.095356   1.000000
    3       -8.093442   1.000000
    4       -8.022348   1.000000
    5       -6.596539   1.000000
    6       -6.596153   1.000000
    7       -5.528374   1.000000
    8       -5.528221   1.000000
    9        2.738863   0.000000
   10        3.400275   0.000000
   11        3.881335   0.000000
   12        4.839839   0.000000
 
  0.2380952E+00  0.4761905E-01  0.1262379E-14  0.2721088E-01
    1      -19.671818   1.000000
    2      -19.669043   1.000000
    3       -7.741380   1.000000
    4       -7.740828   1.000000
    5       -7.590040   1.000000
    6       -7.521164   1.000000
    7       -6.058222   1.000000
    8       -6.058022   1.000000
    9        3.315881   0.000000
   10        3.982642   0.000000
   11        4.463342   0.000000
   12        5.418429   0.000000
 
  0.2857143E+00  0.4761905E-01  0.1262379E-14  0.2721088E-01
    1      -19.142080   1.000000
    2      -19.139442   1.000000
    3       -8.969370   1.000000
    4       -8.968657   1.000000
    5       -6.972191   1.000000
    6       -6.906257   1.000000
    7       -6.558086   1.000000
    8       -6.557843   1.000000
    9        4.034584   0.000000
   10        4.700753   0.000000
   11        5.148084   0.000000
   12        5.706316   0.000000
 
  0.3333333E+00  0.4761905E-01  0.1262379E-14  0.2721088E-01
    1      -18.511842   1.000000
    2      -18.509373   1.000000
    3      -10.224586   1.000000
    4      -10.223752   1.000000
    5       -6.996416   1.000000
    6       -6.996141   1.000000
    7       -6.251894   1.000000
    8       -6.189788   1.000000
    9        4.309957   0.000000
   10        4.363907   0.000000
   11        4.902563   0.000000
   12        5.598052   0.000000
 
  0.3809524E+00  0.4761905E-01  0.1262379E-14  0.2721088E-01
    1      -17.785647   1.000000
    2      -17.783366   1.000000
    3      -11.466460   1.000000
    4      -11.465462   1.000000
    5       -7.353061   1.000000
    6       -7.352799   1.000000
    7       -5.452092   1.000000
    8       -5.394994   1.000000
    9        3.013783   0.000000
   10        3.066052   0.000000
   11        5.888520   0.000000
   12        6.548462   0.000000
 
  0.4285714E+00  0.4761905E-01  0.1262379E-14  0.2721088E-01
    1      -16.972644   1.000000
    2      -16.970549   1.000000
    3      -12.662200   1.000000
    4      -12.660980   1.000000
    5       -7.615336   1.000000
    6       -7.615074   1.000000
    7       -4.623234   1.000000
    8       -4.572625   1.000000
    9        1.798156   0.000000
   10        1.856534   0.000000
   11        6.558019   0.000000
   12        6.583078   0.000000
 
  0.4761905E+00  0.4761905E-01  0.1262379E-14  0.2721088E-01
    1      -16.103477   1.000000
    2      -16.101573   1.000000
    3      -13.766347   1.000000
    4      -13.764954   1.000000
    5       -7.775476   1.000000
    6       -7.775223   1.000000
    7       -3.893389   1.000000
    8       -3.850732   1.000000
    9        0.825868   0.000000
   10        0.892636   0.000000
   11        6.500524   0.000000
   12        6.507196   0.000000
 
 -0.4761905E+00  0.4761905E-01  0.1262379E-14  0.1360544E-01
    1      -15.484502   1.000000
    2      -15.482729   1.000000
    3      -14.464514   1.000000
    4      -14.462979   1.000000
    5       -7.829294   1.000000
    6       -7.829036   1.000000
    7       -3.564832   1.000000
    8       -3.527106   1.000000
    9        0.414852   0.000000
   10        0.486767   0.000000
   11        6.474900   0.000000
   12        6.480485   0.000000
 
  0.1904762E+00  0.9523810E-01  0.1262379E-14  0.1360544E-01
    1      -20.151714   1.000000
    2      -20.148814   1.000000
    3       -8.156791   1.000000
    4       -8.085407   1.000000
    5       -6.352608   1.000000
    6       -6.352289   1.000000
    7       -5.557890   1.000000
    8       -5.557761   1.000000
    9        2.666879   0.000000
   10        3.327511   0.000000
   11        3.808417   0.000000
   12        4.767210   0.000000
 
  0.2380952E+00  0.9523810E-01  0.1262379E-14  0.2721088E-01
    1      -19.778274   1.000000
    2      -19.775466   1.000000
    3       -7.714821   1.000000
    4       -7.645371   1.000000
    5       -7.295464   1.000000
    6       -7.295000   1.000000
    7       -6.166595   1.000000
    8       -6.166357   1.000000
    9        3.172414   0.000000
   10        3.838112   0.000000
   11        4.319591   0.000000
   12        5.277059   0.000000
 
  0.2857143E+00  0.9523810E-01  0.1262379E-14  0.2721088E-01
    1      -19.300748   1.000000
    2      -19.298072   1.000000
    3       -8.395313   1.000000
    4       -8.394719   1.000000
    5       -7.154869   1.000000
    6       -7.087997   1.000000
    7       -6.743621   1.000000
    8       -6.743333   1.000000
    9        3.820916   0.000000
   10        4.491504   0.000000
   11        4.969057   0.000000
   12        5.896849   0.000000
 
  0.3333333E+00  0.9523810E-01  0.1262379E-14  0.2721088E-01
    1      -18.721525   1.000000
    2      -18.719000   1.000000
    3       -9.583106   1.000000
    4       -9.582359   1.000000
    5       -7.249412   1.000000
    6       -7.249064   1.000000
    7       -6.485759   1.000000
    8       -6.422257   1.000000
    9        4.603347   0.000000
   10        4.836736   0.000000
   11        4.859631   0.000000
   12        5.314617   0.000000
 
  0.3809524E+00  0.9523810E-01  0.1262379E-14  0.2721088E-01
    1      -18.044247   1.000000
    2      -18.041911   1.000000
    3      -10.798922   1.000000
    4      -10.798025   1.000000
    5       -7.667539   1.000000
    6       -7.667197   1.000000
    7       -5.723508   1.000000
    8       -5.664336   1.000000
    9        3.563175   0.000000
   10        3.605580   0.000000
   11        5.542611   0.000000
   12        6.236876   0.000000
 
  0.4285714E+00  0.9523810E-01  0.1262379E-14  0.2721088E-01
    1      -17.275312   1.000000
    2      -17.273153   1.000000
    3      -11.998255   1.000000
    4      -11.997161   1.000000
    5       -7.988339   1.000000
    6       -7.987964   1.000000
    7       -4.900405   1.000000
    8       -4.846858   1.000000
    9        2.324201   0.000000
   10        2.372715   0.000000
   11        6.598728   0.000000
   12        7.232050   0.000000
 
  0.4761905E+00  0.9523810E-01  0.1262379E-14  0.2721088E-01
    1      -16.430290   1.000000
    2      -16.428316   1.000000
    3      -13.141618   1.000000
    4      -13.140337   1.000000
    5       -8.205435   1.000000
    6       -8.205066   1.000000
    7       -4.093506   1.000000
    8       -4.047141   1.000000
    9        1.222999   0.000000
   10        1.279753   0.000000
   11        7.208248   0.000000
   12        7.226508   0.000000
 
 -0.4761905E+00  0.9523810E-01  0.1262379E-14  0.2721088E-01
    1      -15.591905   1.000000
    2      -15.590105   1.000000
    3      -14.132392   1.000000
    4      -14.130904   1.000000
    5       -8.314934   1.000000
    6       -8.314556   1.000000
    7       -3.507566   1.000000
    8       -3.468650   1.000000
    9        0.484931   0.000000
   10        0.549793   0.000000
   11        7.167185   0.000000
   12        7.175186   0.000000
 
  0.2857143E+00  0.1428571E+00  0.1262379E-14  0.1360544E-01
    1      -19.353731   1.000000
    2      -19.351039   1.000000
    3       -8.110602   1.000000
    4       -8.110074   1.000000
    5       -7.215962   1.000000
    6       -7.148781   1.000000
    7       -6.905548   1.000000
    8       -6.905234   1.000000
    9        3.749629   0.000000
   10        4.420670   0.000000
   11        4.901765   0.000000
   12        5.858250   0.000000
 
  0.3333333E+00  0.1428571E+00  0.1262379E-14  0.2721088E-01
    1      -18.826704   1.000000
    2      -18.824157   1.000000
    3       -9.077077   1.000000
    4       -9.076444   1.000000
    5       -7.582246   1.000000
    6       -7.581854   1.000000
    7       -6.603550   1.000000
    8       -6.539349   1.000000
    9        4.468667   0.000000
   10        5.120434   0.000000
   11        5.142695   0.000000
   12        5.194939   0.000000
 
  0.3809524E+00  0.1428571E+00  0.1262379E-14  0.2721088E-01
    1      -18.200299   1.000000
    2      -18.197920   1.000000
    3      -10.168780   1.000000
    4      -10.167979   1.000000
    5       -8.125142   1.000000
    6       -8.124687   1.000000
    7       -5.888901   1.000000
    8       -5.828514   1.000000
    9        3.966627   0.000000
   10        3.995778   0.000000
   11        5.329328   0.000000
   12        6.015268   0.000000
 
  0.4285714E+00  0.1428571E+00  0.1262379E-14  0.2721088E-01
    1      -17.479494   1.000000
    2      -17.477289   1.000000
    3      -11.314242   1.000000
    4      -11.313270   1.000000
    5       -8.536263   1.000000
    6       -8.535791   1.000000
    7       -5.093191   1.000000
    8       -5.037637   1.000000
    9        2.773079   0.000000
   10        2.809136   0.000000
   11        6.324779   0.000000
   12        7.017332   0.000000
 
  0.4761905E+00  0.1428571E+00  0.1262379E-14  0.2721088E-01
    1      -16.674133   1.000000
    2      -16.672122   1.000000
    3      -12.451623   1.000000
    4      -12.450478   1.000000
    5       -8.826012   1.000000
    6       -8.825534   1.000000
    7       -4.262332   1.000000
    8       -4.212968   1.000000
    9        1.635462   0.000000
   10        1.679508   0.000000
   11        7.445623   0.000000
   12        8.116936   0.000000
 
 -0.4761905E+00  0.1428571E+00  0.1262379E-14  0.2721088E-01
    1      -15.815857   1.000000
    2      -15.814020   1.000000
    3      -13.519162   1.000000
    4      -13.517800   1.000000
    5       -8.998975   1.000000
    6       -8.998475   1.000000
    7       -3.517043   1.000000
    8       -3.475171   1.000000
    9        0.696588   0.000000
   10        0.749372   0.000000
   11        8.201060   0.000000
   12        8.224007   0.000000
 
 -0.4285714E+00  0.1428571E+00  0.1262379E-14  0.1360544E-01
    1      -15.208263   1.000000
    2      -15.206567   1.000000
    3      -14.198054   1.000000
    4      -14.196558   1.000000
    5       -9.056576   1.000000
    6       -9.056059   1.000000
    7       -3.171689   1.000000
    8       -3.134622   1.000000
    9        0.285044   0.000000
   10        0.343068   0.000000
   11        8.185398   0.000000
   12        8.198637   0.000000
 
  0.3809524E+00  0.1904762E+00  0.1262379E-14  0.1360544E-01
    1      -18.252451   1.000000
    2      -18.250056   1.000000
    3       -9.839324   1.000000
    4       -9.838611   1.000000
    5       -8.404434   1.000000
    6       -8.403921   1.000000
    7       -5.944444   1.000000
    8       -5.883643   1.000000
    9        4.119380   0.000000
   10        4.141328   0.000000
   11        5.257249   0.000000
   12        5.938927   0.000000
 
  0.4285714E+00  0.1904762E+00  0.1262379E-14  0.2721088E-01
    1      -17.582225   1.000000
    2      -17.579995   1.000000
    3      -10.749142   1.000000
    4      -10.748293   1.000000
    5       -9.052468   1.000000
    6       -9.051854   1.000000
    7       -5.191801   1.000000
    8       -5.135270   1.000000
    9        3.040237   0.000000
   10        3.066304   0.000000
   11        6.182337   0.000000
   12        6.867322   0.000000
 
  0.4761905E+00  0.1904762E+00  0.1262379E-14  0.2721088E-01
    1      -16.823307   1.000000
    2      -16.821270   1.000000
    3      -11.774953   1.000000
    4      -11.773936   1.000000
    5       -9.492278   1.000000
    6       -9.491620   1.000000
    7       -4.373207   1.000000
    8       -4.321938   1.000000
    9        1.955187   0.000000
   10        1.987263   0.000000
   11        7.237167   0.000000
   12        7.919987   0.000000
 
 -0.4761905E+00  0.1904762E+00  0.1262379E-14  0.2721088E-01
    1      -15.992459   1.000000
    2      -15.990598   1.000000
    3      -12.823328   1.000000
    4      -12.822113   1.000000
    5       -9.763537   1.000000
    6       -9.762856   1.000000
    7       -3.554170   1.000000
    8       -3.509400   1.000000
    9        0.946431   0.000000
   10        0.985867   0.000000
   11        8.402825   0.000000
   12        9.059848   0.000000
 
 -0.4285714E+00  0.1904762E+00  0.1262379E-14  0.2721088E-01
    1      -15.172471   1.000000
    2      -15.170787   1.000000
    3      -13.762173   1.000000
    4      -13.760778   1.000000
    5       -9.894048   1.000000
    6       -9.893357   1.000000
    7       -2.930332   1.000000
    8       -2.892418   1.000000
    9        0.223607   0.000000
   10        0.270422   0.000000
   11        9.403075   0.000000
   12        9.449948   0.000000
 
  0.4761905E+00  0.2380952E+00  0.1262379E-14  0.1360544E-01
    1      -16.873418   1.000000
    2      -16.871372   1.000000
    3      -11.404107   1.000000
    4      -11.403196   1.000000
    5       -9.864965   1.000000
    6       -9.864212   1.000000
    7       -4.411663   1.000000
    8       -4.359765   1.000000
    9        2.077480   0.000000
   10        2.104353   0.000000
   11        7.165273   0.000000
   12        7.842160   0.000000
 
 -0.4761905E+00  0.2380952E+00  0.1262379E-14  0.2721088E-01
    1      -16.085281   1.000000
    2      -16.083409   1.000000
    3      -12.218364   1.000000
    4      -12.217293   1.000000
    5      -10.412785   1.000000
    6      -10.411944   1.000000
    7       -3.582524   1.000000
    8       -3.536070   1.000000
    9        1.114142   0.000000
   10        1.144421   0.000000
   11        8.256335   0.000000
   12        8.896532   0.000000
 
 -0.4285714E+00  0.2380952E+00  0.1262379E-14  0.2721088E-01
    1      -15.250278   1.000000
    2      -15.248578   1.000000
    3      -13.124292   1.000000
    4      -13.123054   1.000000
    5      -10.697927   1.000000
    6      -10.697055   1.000000
    7       -2.797038   1.000000
    8       -2.756896   1.000000
    9        0.245579   0.000000
   10        0.281164   0.000000
   11        9.273749   0.000000
   12        9.701616   0.000000
 
 -0.3809524E+00  0.2380952E+00  0.1262379E-14  0.1360544E-01
    1      -14.656967   1.000000
    2      -14.655422   1.000000
    3      -13.750932   1.000000
    4      -13.749555   1.000000
    5      -10.785151   1.000000
    6      -10.784283   1.000000
    7       -2.391313   1.000000
    8       -2.355553   1.000000
    9       -0.188442   0.000000
   10       -0.148736   0.000000
   11        9.503218   0.000000
   12       10.082892   0.000000
 
 -0.4285714E+00  0.2857143E+00  0.1262379E-14  0.1360544E-01
    1      -15.284892   1.000000
    2      -15.283190   1.000000
    3      -12.744902   1.000000
    4      -12.743766   1.000000
    5      -11.127916   1.000000
    6      -11.126909   1.000000
    7       -2.756364   1.000000
    8       -2.715138   1.000000
    9        0.266817   0.000000
   10        0.297558   0.000000
   11        9.144328   0.000000
   12        9.607487   0.000000
 
 -0.3809524E+00  0.2857143E+00  0.1262379E-14  0.2721088E-01
    1      -14.493306   1.000000
    2      -14.491787   1.000000
    3      -13.408894   1.000000
    4      -13.407606   1.000000
    5      -11.482790   1.000000
    6      -11.481748   1.000000
    7       -2.015984   1.000000
    8       -1.979858   1.000000
    9       -0.480386   0.000000
   10       -0.446925   0.000000
   11        9.241550   0.000000
   12        9.798324   0.000000
 
 -0.3333333E+00  0.3333333E+00  0.1262379E-14  0.4535147E-02
    1      -13.833660   1.000000
    2      -13.833627   1.000000
    3      -13.832294   1.000000
    4      -13.832261   1.000000
    5      -11.824498   1.000000
    6      -11.823391   1.000000
    7       -1.237021   0.991376
    8       -1.236995   0.991289
    9       -1.203370   0.008712
   10       -1.203343   0.008624
   11        9.147740   0.000000
   12        9.686503   0.000000
