       N       E                     dE             d eps       ncg     rms          rms(c)
DAV:   1     0.125016101366E+03    0.12502E+03   -0.80191E+03  1152   0.149E+03
DAV:   2    -0.258131879666E+02   -0.15083E+03   -0.13774E+03  1884   0.245E+02
DAV:   3    -0.392176861458E+02   -0.13404E+02   -0.13301E+02  1440   0.840E+01
DAV:   4    -0.395196240621E+02   -0.30194E+00   -0.30115E+00  1496   0.152E+01
DAV:   5    -0.395284084664E+02   -0.87844E-02   -0.87750E-02  1432   0.250E+00    0.902E+00
DAV:   6    -0.376459050435E+02    0.18825E+01   -0.17284E+00  1396   0.921E+00    0.529E+00
DAV:   7    -0.369399697038E+02    0.70594E+00   -0.23151E+00  1412   0.105E+01    0.138E+00
DAV:   8    -0.369401542013E+02   -0.18450E-03   -0.70127E-02  1412   0.191E+00    0.133E-01
DAV:   9    -0.369388406332E+02    0.13136E-02   -0.21005E-03  1496   0.369E-01    0.920E-02
DAV:  10    -0.369336124071E+02    0.52282E-02   -0.37653E-03  1320   0.369E-01    0.872E-02
DAV:  11    -0.369325947770E+02    0.10176E-02   -0.46538E-04  1400   0.150E-01    0.588E-02
DAV:  12    -0.369282692474E+02    0.43255E-02   -0.22675E-03  1196   0.281E-01    0.395E-02
DAV:  13    -0.369283729832E+02   -0.10374E-03   -0.14097E-04  1344   0.829E-02    0.442E-02
DAV:  14    -0.369294450658E+02   -0.10721E-02   -0.23674E-04  1276   0.954E-02    0.189E-02
DAV:  15    -0.369304218289E+02   -0.97676E-03   -0.17687E-04  1312   0.753E-02    0.259E-02
DAV:  16    -0.369305936825E+02   -0.17185E-03   -0.34175E-05  1348   0.397E-02    0.438E-03
DAV:  17    -0.369306609411E+02   -0.67259E-04   -0.28744E-06  1300   0.166E-02    0.217E-03
DAV:  18    -0.369306685105E+02   -0.75694E-05   -0.39275E-07  1380   0.515E-03    0.568E-04
DAV:  19    -0.369306722330E+02   -0.37225E-05   -0.11659E-07  1332   0.199E-03    0.257E-04
DAV:  20    -0.369306729579E+02   -0.72491E-06   -0.66882E-09   976   0.594E-04    0.131E-04
DAV:  21    -0.369306732723E+02   -0.31442E-06   -0.10838E-08  1188   0.471E-04    0.537E-05
DAV:  22    -0.369306732795E+02   -0.72287E-08   -0.49461E-10   948   0.141E-04
   1 F= -.36930673E+02 E0= -.36930673E+02  d E =-.183290E-07
