       N       E                     dE             d eps       ncg     rms          rms(c)
DAV:   1     0.126569598005E+03    0.12657E+03   -0.80156E+03  1152   0.149E+03
DAV:   2    -0.249882241607E+02   -0.15156E+03   -0.13819E+03  1844   0.245E+02
DAV:   3    -0.391967331710E+02   -0.14209E+02   -0.13945E+02  1448   0.855E+01
DAV:   4    -0.394985041157E+02   -0.30177E+00   -0.30101E+00  1480   0.151E+01
DAV:   5    -0.395069120023E+02   -0.84079E-02   -0.83924E-02  1468   0.245E+00    0.902E+00
DAV:   6    -0.376272451272E+02    0.18797E+01   -0.17445E+00  1376   0.925E+00    0.529E+00
DAV:   7    -0.369430217588E+02    0.68422E+00   -0.22973E+00  1420   0.105E+01    0.137E+00
DAV:   8    -0.369412281135E+02    0.17936E-02   -0.77106E-02  1468   0.198E+00    0.128E-01
DAV:   9    -0.369394992142E+02    0.17289E-02   -0.24278E-03  1448   0.394E-01    0.920E-02
DAV:  10    -0.369325138139E+02    0.69854E-02   -0.41392E-03  1372   0.386E-01    0.103E-01
DAV:  11    -0.369311047220E+02    0.14091E-02   -0.45170E-04  1344   0.148E-01    0.524E-02
DAV:  12    -0.369275650287E+02    0.35397E-02   -0.17786E-03  1212   0.263E-01    0.364E-02
DAV:  13    -0.369271754528E+02    0.38958E-03   -0.22555E-04  1276   0.106E-01    0.326E-02
DAV:  14    -0.369285505461E+02   -0.13751E-02   -0.52051E-04  1264   0.130E-01    0.229E-02
DAV:  15    -0.369292561298E+02   -0.70558E-03   -0.10255E-04  1364   0.730E-02    0.240E-02
DAV:  16    -0.369295087789E+02   -0.25265E-03   -0.14420E-05  1328   0.308E-02    0.438E-03
DAV:  17    -0.369296079397E+02   -0.99161E-04   -0.24632E-06  1312   0.138E-02    0.360E-03
DAV:  18    -0.369296308959E+02   -0.22956E-04   -0.11330E-06  1316   0.739E-03    0.695E-04
DAV:  19    -0.369296340489E+02   -0.31530E-05   -0.88957E-08  1336   0.222E-03    0.928E-04
DAV:  20    -0.369296341342E+02   -0.85329E-07   -0.78339E-09   988   0.830E-04    0.358E-05
DAV:  21    -0.369296341388E+02   -0.46261E-08   -0.95111E-10   900   0.328E-04
   1 F= -.36929634E+02 E0= -.36929634E+02  d E =-.278782E-23
