 vasp.5.4.4.18Apr17-6-g9f103f2a35 (build May 31 2018 21:15:54) complex          
  
 executed on          c7_intel_O1 date 2020.07.23  19:12:09
 running on    4 total cores
 distrk:  each k-point on    4 cores,    1 groups
 distr:  one band on NCORES_PER_BAND=   1 cores,    4 groups


--------------------------------------------------------------------------------------------------------


 INCAR:
 POTCAR:    PAW_PBE C 08Apr2002                   
 POTCAR:    PAW_PBE C 08Apr2002                   
   VRHFIN =C: s2p2                                                              
   LEXCH  = PE                                                                  
   EATOM  =   147.1560 eV,   10.8157 Ry                                         
                                                                                
   TITEL  = PAW_PBE C 08Apr2002                                                 
   LULTRA =        F    use ultrasoft PP ?                                      
   IUNSCR =        1    unscreen: 0-lin 1-nonlin 2-no                           
   RPACOR =    1.200    partial core radius                                     
   POMASS =   12.011; ZVAL   =    4.000    mass and valenz                      
   RCORE  =    1.500    outmost cutoff radius                                   
   RWIGS  =    1.630; RWIGS  =    0.863    wigner-seitz radius (au A)           
   ENMAX  =  400.000; ENMIN  =  300.000 eV                                      
   ICORE  =        2    local potential                                         
   LCOR   =        T    correct aug charges                                     
   LPAW   =        T    paw PP                                                  
   EAUG   =  644.873                                                            
   DEXC   =    0.000                                                            
   RMAX   =    1.529    core radius for proj-oper                               
   RAUG   =    1.300    factor for augmentation sphere                          
   RDEP   =    1.501    radius for radial grids                                 
   RDEPT  =    1.300    core radius for aug-charge                              
                                                                                
   Atomic configuration                                                         
    4 entries                                                                   
     n  l   j            E        occ.                                          
     1  0  0.50      -273.3789   2.0000                                         
     2  0  0.50       -13.7508   2.0000                                         
     2  1  0.50        -5.2854   2.0000                                         
     3  2  1.50        -5.4423   0.0000                                         
   Description                                                                  
     l       E           TYP  RCUT    TYP  RCUT                                 
     0    -13.7508458     23  1.200                                             
     0     -8.2022199     23  1.200                                             
     1     -5.2854383     23  1.500                                             
     1     34.0145650     23  1.500                                             
     2     -5.4423304      7  1.500                                             
  local pseudopotential read in
  partial core-charges read in
  partial kinetic energy density read in
  atomic valenz-charges read in
  non local Contribution for L=           0  read in
    real space projection operators read in
  non local Contribution for L=           0  read in
    real space projection operators read in
  non local Contribution for L=           1  read in
    real space projection operators read in
  non local Contribution for L=           1  read in
    real space projection operators read in
    PAW grid and wavefunctions read in
 
   number of l-projection  operators is LMAX  =           4
   number of lm-projection operators is LMMAX =           8
 
  PAW_PBE C 08Apr2002                   :
 energy of atom  1       EATOM= -147.1560
 kinetic energy error for atom=    0.0016 (will be added to EATOM!!)
 
 
 POSCAR: C2_bilayer                              
  positions in direct lattice
  No initial velocities read in
 exchange correlation table for  LEXCH =        8
   RHO(1)=    0.500       N(1)  =     2000
   RHO(2)=  100.500       N(2)  =     4000
 


--------------------------------------------------------------------------------------------------------


 ion  position               nearest neighbor table
   1  0.000  0.000  0.000-   2 1.42   2 1.42   2 1.42
   2  0.333  0.333  0.000-   1 1.42   1 1.42   1 1.42
   3  0.000  0.000  0.160-   4 1.42   4 1.42   4 1.42
   4  0.333  0.333  0.160-   3 1.42   3 1.42   3 1.42
 
  LATTYP: Found a hexagonal cell.
 ALAT       =     2.4595120000
 C/A-ratio  =     8.1316944174
  
  Lattice vectors:
  
 A1 = (   0.0000000000,  -2.4595120000,   0.0000000000)
 A2 = (  -2.1300000000,   1.2297560000,   0.0000000000)
 A3 = (   0.0000000000,   0.0000000000, -20.0000000000)


Analysis of symmetry for initial positions (statically):
=====================================================================
 Subroutine PRICEL returns:
 Original cell was already a primitive cell.
 

 Routine SETGRP: Setting up the symmetry group for a 
 hexagonal supercell.


 Subroutine GETGRP returns: Found 24 space group operations
 (whereof  6 operations were pure point group operations)
 out of a pool of 24 trial point group operations.


The static configuration has the point symmetry C_3v.
 The point group associated with its full space group is D_6h.


Analysis of symmetry for dynamics (positions and initial velocities):
=====================================================================
 Subroutine PRICEL returns:
 Original cell was already a primitive cell.
 

 Routine SETGRP: Setting up the symmetry group for a 
 hexagonal supercell.


 Subroutine GETGRP returns: Found 24 space group operations
 (whereof  6 operations were pure point group operations)
 out of a pool of 24 trial point group operations.


The dynamic configuration has the point symmetry C_3v.
 The point group associated with its full space group is D_6h.


 Subroutine INISYM returns: Found 24 space group operations
 (whereof  6 operations are pure point group operations),
 and found     1 'primitive' translations

 
 
 KPOINTS: k grid                                  

Automatic generation of k-mesh.
Space group operators:
 irot       det(A)        alpha          n_x          n_y          n_z        tau_x        tau_y        tau_z
    1     1.000000     0.000000     1.000000     0.000000     0.000000     0.000000     0.000000     0.000000
    2     1.000000   120.000000     0.000000     0.000000     1.000000     0.000000     0.000000     0.000000
    3     1.000000   120.000000     0.000000     0.000000    -1.000000     0.000000     0.000000     0.000000
    4    -1.000000   180.000000    -0.000000     1.000000     0.000000     0.000000     0.000000     0.000000
    5    -1.000000   180.000000     0.866025    -0.500000     0.000000     0.000000     0.000000     0.000000
    6    -1.000000   180.000000     0.866025     0.500000     0.000000     0.000000     0.000000     0.000000
    7    -1.000000     0.000000     1.000000     0.000000     0.000000     0.333333    -0.666667    -0.840000
    8     1.000000    60.000000     0.000000     0.000000     1.000000     0.333333    -0.666667     0.000000
    9    -1.000000    60.000000     0.000000     0.000000     1.000000    -0.000001    -0.000000    -0.840000
   10    -1.000000   120.000000     0.000000     0.000000     1.000000     0.333333    -0.666667    -0.840000
   11     1.000000   180.000000     0.000000     0.000000     1.000000     0.333333    -0.666667     0.000000
   12    -1.000000   180.000000     0.000000     0.000000     1.000000     0.000000     0.000000    -0.840000
   13    -1.000000   120.000000     0.000000     0.000000    -1.000000     0.333333    -0.666667    -0.840000
   14     1.000000    60.000000     0.000000     0.000000    -1.000000     0.333333    -0.666667     0.000000
   15    -1.000000    60.000000     0.000000     0.000000    -1.000000    -0.000000    -0.000001    -0.840000
   16     1.000000   180.000000    -0.000000     1.000000     0.000000     0.333333    -0.666667    -0.840000
   17     1.000000   180.000000     0.500000    -0.866025     0.000000    -0.000000    -0.000001    -0.840000
   18    -1.000000   180.000000     0.500000    -0.866025     0.000000     0.333333    -0.666667     0.000000
   19     1.000000   180.000000     0.866025    -0.500000     0.000000     0.333333    -0.666667    -0.840000
   20     1.000000   180.000000     1.000000     0.000000     0.000000     0.000000     0.000000    -0.840000
   21    -1.000000   180.000000     1.000000     0.000000     0.000000     0.333333    -0.666667     0.000000
   22     1.000000   180.000000     0.866025     0.500000     0.000000     0.333333    -0.666667    -0.840000
   23     1.000000   180.000000    -0.500000    -0.866025     0.000000    -0.000001    -0.000000    -0.840000
   24    -1.000000   180.000000    -0.500000    -0.866025     0.000000     0.333333    -0.666667     0.000000
 
 Subroutine IBZKPT returns following result:
 ===========================================
 
 Found     48 irreducible k-points:
 
 Following reciprocal coordinates:
            Coordinates               Weight
  0.000000  0.000000  0.000000      1.000000
  0.047619  0.000000  0.000000      6.000000
  0.095238  0.000000  0.000000      6.000000
  0.142857  0.000000  0.000000      6.000000
  0.190476  0.000000  0.000000      6.000000
  0.238095  0.000000  0.000000      6.000000
  0.285714  0.000000  0.000000      6.000000
  0.333333  0.000000  0.000000      6.000000
  0.380952  0.000000  0.000000      6.000000
  0.428571  0.000000  0.000000      6.000000
  0.476190  0.000000  0.000000      6.000000
  0.095238  0.047619  0.000000      6.000000
  0.142857  0.047619  0.000000     12.000000
  0.190476  0.047619  0.000000     12.000000
  0.238095  0.047619  0.000000     12.000000
  0.285714  0.047619  0.000000     12.000000
  0.333333  0.047619  0.000000     12.000000
  0.380952  0.047619  0.000000     12.000000
  0.428571  0.047619  0.000000     12.000000
  0.476190  0.047619  0.000000     12.000000
 -0.476190  0.047619  0.000000      6.000000
  0.190476  0.095238  0.000000      6.000000
  0.238095  0.095238  0.000000     12.000000
  0.285714  0.095238  0.000000     12.000000
  0.333333  0.095238  0.000000     12.000000
  0.380952  0.095238  0.000000     12.000000
  0.428571  0.095238  0.000000     12.000000
  0.476190  0.095238  0.000000     12.000000
 -0.476190  0.095238  0.000000     12.000000
  0.285714  0.142857  0.000000      6.000000
  0.333333  0.142857  0.000000     12.000000
  0.380952  0.142857  0.000000     12.000000
  0.428571  0.142857  0.000000     12.000000
  0.476190  0.142857  0.000000     12.000000
 -0.476190  0.142857  0.000000     12.000000
 -0.428571  0.142857  0.000000      6.000000
  0.380952  0.190476  0.000000      6.000000
  0.428571  0.190476  0.000000     12.000000
  0.476190  0.190476  0.000000     12.000000
 -0.476190  0.190476  0.000000     12.000000
 -0.428571  0.190476  0.000000     12.000000
  0.476190  0.238095  0.000000      6.000000
 -0.476190  0.238095  0.000000     12.000000
 -0.428571  0.238095  0.000000     12.000000
 -0.380952  0.238095  0.000000      6.000000
 -0.428571  0.285714  0.000000      6.000000
 -0.380952  0.285714  0.000000     12.000000
 -0.333333  0.333333  0.000000      2.000000
 
 Following cartesian coordinates:
            Coordinates               Weight
  0.000000  0.000000  0.000000      1.000000
  0.011178 -0.019361  0.000000      6.000000
  0.022356 -0.038722  0.000000      6.000000
  0.033535 -0.058084  0.000000      6.000000
  0.044713 -0.077445  0.000000      6.000000
  0.055891 -0.096806  0.000000      6.000000
  0.067069 -0.116167  0.000000      6.000000
  0.078247 -0.135528  0.000000      6.000000
  0.089425 -0.154889  0.000000      6.000000
  0.100604 -0.174251  0.000000      6.000000
  0.111782 -0.193612  0.000000      6.000000
  0.033535 -0.019361  0.000000      6.000000
  0.044713 -0.038722  0.000000     12.000000
  0.055891 -0.058084  0.000000     12.000000
  0.067069 -0.077445  0.000000     12.000000
  0.078247 -0.096806  0.000000     12.000000
  0.089425 -0.116167  0.000000     12.000000
  0.100604 -0.135528  0.000000     12.000000
  0.111782 -0.154889  0.000000     12.000000
  0.122960 -0.174251  0.000000     12.000000
 -0.100604  0.212973  0.000000      6.000000
  0.067069 -0.038722  0.000000      6.000000
  0.078247 -0.058084  0.000000     12.000000
  0.089425 -0.077445  0.000000     12.000000
  0.100604 -0.096806  0.000000     12.000000
  0.111782 -0.116167  0.000000     12.000000
  0.122960 -0.135528  0.000000     12.000000
  0.134138 -0.154889  0.000000     12.000000
 -0.089425  0.232334  0.000000     12.000000
  0.100604 -0.058084  0.000000      6.000000
  0.111782 -0.077445  0.000000     12.000000
  0.122960 -0.096806  0.000000     12.000000
  0.134138 -0.116167  0.000000     12.000000
  0.145316 -0.135528  0.000000     12.000000
 -0.078247  0.251695  0.000000     12.000000
 -0.067069  0.232334  0.000000      6.000000
  0.134138 -0.077445  0.000000      6.000000
  0.145316 -0.096806  0.000000     12.000000
  0.156495 -0.116167  0.000000     12.000000
 -0.067069  0.271056  0.000000     12.000000
 -0.055891  0.251695  0.000000     12.000000
  0.167673 -0.096806  0.000000      6.000000
 -0.055891  0.290418  0.000000     12.000000
 -0.044713  0.271056  0.000000     12.000000
 -0.033535  0.251695  0.000000      6.000000
 -0.033535  0.290418  0.000000      6.000000
 -0.022356  0.271056  0.000000     12.000000
  0.000000  0.271056  0.000000      2.000000
 


--------------------------------------------------------------------------------------------------------




 Dimension of arrays:
   k-points           NKPTS =     48   k-points in BZ     NKDIM =     48   number of bands    NBANDS=     12
   number of dos      NEDOS =    301   number of ions     NIONS =      4
   non local maximal  LDIM  =      4   non local SUM 2l+1 LMDIM =      8
   total plane-waves  NPLWV = 110592
   max r-space proj   IRMAX =      1   max aug-charges    IRDMAX=  99836
   dimension x,y,z NGX =    24 NGY =   24 NGZ =  192
   dimension x,y,z NGXF=    48 NGYF=   48 NGZF=  384
   support grid    NGXF=    96 NGYF=   96 NGZF=  768
   ions per type =               4
   NGX,Y,Z   is equivalent  to a cutoff of  16.22, 16.22, 15.96 a.u.
   NGXF,Y,Z  is equivalent  to a cutoff of  32.44, 32.44, 31.92 a.u.

 SYSTEM =  C:graphene                              
 POSCAR =  C2_bilayer                              

 Startparameter for this run:
   NWRITE =      2    write-flag & timer
   PREC   = accura    normal or accurate (medium, high low for compatibility)
   ISTART =      0    job   : 0-new  1-cont  2-samecut
   ICHARG =      2    charge: 1-file 2-atom 10-const
   ISPIN  =      1    spin polarized calculation?
   LNONCOLLINEAR =      F non collinear calculations
   LSORBIT =      F    spin-orbit coupling
   INIWAV =      1    electr: 0-lowe 1-rand  2-diag
   LASPH  =      F    aspherical Exc in radial PAW
   METAGGA=      F    non-selfconsistent MetaGGA calc.

 Electronic Relaxation 1
   ENCUT  =  800.0 eV  58.80 Ry    7.67 a.u.   5.67  5.67 46.12*2*pi/ulx,y,z
   ENINI  =  800.0     initial cutoff
   ENAUG  =  644.9 eV  augmentation charge cutoff
   NELM   =     60;   NELMIN=  5; NELMDL= -5     # of ELM steps 
   EDIFF  = 0.1E-07   stopping-criterion for ELM
   LREAL  =      F    real-space projection
   NLSPLINE    = F    spline interpolate recip. space projectors
   LCOMPAT=      F    compatible to vasp.4.4
   GGA_COMPAT  = T    GGA compatible to vasp.4.4-vasp.4.6
   LMAXPAW     = -100 max onsite density
   LMAXMIX     =    2 max onsite mixed and CHGCAR
   VOSKOWN=      0    Vosko Wilk Nusair interpolation
   ROPT   =    0.00000
 Ionic relaxation
   EDIFFG = 0.1E-06   stopping-criterion for IOM
   NSW    =      1    number of steps for IOM
   NBLOCK =      1;   KBLOCK =      1    inner block; outer block 
   IBRION =     -1    ionic relax: 0-MD 1-quasi-New 2-CG
   NFREE  =      0    steps in history (QN), initial steepest desc. (CG)
   ISIF   =      2    stress and relaxation
   IWAVPR =     10    prediction:  0-non 1-charg 2-wave 3-comb
   ISYM   =      2    0-nonsym 1-usesym 2-fastsym
   LCORR  =      T    Harris-Foulkes like correction to forces

   POTIM  = 0.5000    time-step for ionic-motion
   TEIN   =    0.0    initial temperature
   TEBEG  =    0.0;   TEEND  =   0.0 temperature during run
   SMASS  =  -3.00    Nose mass-parameter (am)
   estimated Nose-frequenzy (Omega)   =  0.10E-29 period in steps =****** mass=  -0.138E-27a.u.
   SCALEE = 1.0000    scale energy and forces
   NPACO  =    256;   APACO  = 16.0  distance and # of slots for P.C.
   PSTRESS=    0.0 pullay stress

  Mass of Ions in am
   POMASS =  12.01
  Ionic Valenz
   ZVAL   =   4.00
  Atomic Wigner-Seitz radii
   RWIGS  =  -1.00
  virtual crystal weights 
   VCA    =   1.00
   NELECT =      16.0000    total number of electrons
   NUPDOWN=      -1.0000    fix difference up-down

 DOS related values:
   EMIN   =  10.00;   EMAX   =-10.00  energy-range for DOS
   EFERMI =   0.00
   ISMEAR =     0;   SIGMA  =   0.01  broadening in eV -4-tet -1-fermi 0-gaus

 Electronic relaxation 2 (details)
   IALGO  =     38    algorithm
   LDIAG  =      T    sub-space diagonalisation (order eigenvalues)
   LSUBROT=      F    optimize rotation matrix (better conditioning)
   TURBO    =      0    0=normal 1=particle mesh
   IRESTART =      0    0=no restart 2=restart with 2 vectors
   NREBOOT  =      0    no. of reboots
   NMIN     =      0    reboot dimension
   EREF     =   0.00    reference energy to select bands
   IMIX   =      4    mixing-type and parameters
     AMIX     =   0.40;   BMIX     =  1.00
     AMIX_MAG =   1.60;   BMIX_MAG =  1.00
     AMIN     =   0.01
     WC   =   100.;   INIMIX=   1;  MIXPRE=   1;  MAXMIX= -45

 Intra band minimization:
   WEIMIN = 0.0000     energy-eigenvalue tresh-hold
   EBREAK =  0.21E-09  absolut break condition
   DEPER  =   0.30     relativ break condition  

   TIME   =   0.40     timestep for ELM

  volume/ion in A,a.u.               =      26.19       176.76
  Fermi-wavevector in a.u.,A,eV,Ry     =   0.875041  1.653589 10.417948  0.765698
  Thomas-Fermi vector in A             =   1.994657
 
 Write flags
   LWAVE        =      F    write WAVECAR
   LDOWNSAMPLE  =      F    k-point downsampling of WAVECAR
   LCHARG       =      T    write CHGCAR
   LVTOT        =      F    write LOCPOT, total local potential
   LVHAR        =      F    write LOCPOT, Hartree potential only
   LELF         =      F    write electronic localiz. function (ELF)
   LORBIT       =      0    0 simple, 1 ext, 2 COOP (PROOUT), +10 PAW based schemes


 Dipole corrections
   LMONO  =      F    monopole corrections only (constant potential shift)
   LDIPOL =      F    correct potential (dipole corrections)
   IDIPOL =      0    1-x, 2-y, 3-z, 4-all directions 
   EPSILON=  1.0000000 bulk dielectric constant

 Exchange correlation treatment:
   GGA     =    --    GGA type
   LEXCH   =     8    internal setting for exchange type
   VOSKOWN=      0    Vosko Wilk Nusair interpolation
   LHFCALC =     F    Hartree Fock is set to
   LHFONE  =     F    Hartree Fock one center treatment
   AEXX    =    0.0000 exact exchange contribution

 Linear response parameters
   LEPSILON=     F    determine dielectric tensor
   LRPA    =     F    only Hartree local field effects (RPA)
   LNABLA  =     F    use nabla operator in PAW spheres
   LVEL    =     F    velocity operator in full k-point grid
   LINTERFAST=   F  fast interpolation
   KINTER  =     0    interpolate to denser k-point grid
   CSHIFT  =0.1000    complex shift for real part using Kramers Kronig
   OMEGAMAX=  -1.0    maximum frequency
   DEG_THRESHOLD= 0.2000000E-02 threshold for treating states as degnerate
   RTIME   =   -0.100 relaxation time in fs
  (WPLASMAI=    0.000 imaginary part of plasma frequency in eV, 0.658/RTIME)
   DFIELD  = 0.0000000 0.0000000 0.0000000 field for delta impulse in time
 
 Orbital magnetization related:
   ORBITALMAG=     F  switch on orbital magnetization
   LCHIMAG   =     F  perturbation theory with respect to B field
   DQ        =  0.001000  dq finite difference perturbation B field
   LLRAUG    =     F  two centre corrections for induced B field



--------------------------------------------------------------------------------------------------------


 Static calculation
 charge density and potential will be updated during run
 non-spin polarized calculation
 Variant of blocked Davidson
 Davidson routine will perform the subspace rotation
 perform sub-space diagonalisation
    after iterative eigenvector-optimisation
 modified Broyden-mixing scheme, WC =      100.0
 initial mixing is a Kerker type mixing with AMIX =  0.4000 and BMIX =      1.0000
 Hartree-type preconditioning will be used
 using additional bands            4
 reciprocal scheme for non local part
 use partial core corrections
 calculate Harris-corrections to forces 
   (improved forces if not selfconsistent)
 use gradient corrections 
 use of overlap-Matrix (Vanderbilt PP)
 Gauss-broadening in eV      SIGMA  =   0.01


--------------------------------------------------------------------------------------------------------


  energy-cutoff  :      800.00
  volume of cell :      104.78
      direct lattice vectors                 reciprocal lattice vectors
     2.130000000 -1.229756000  0.000000000     0.234741784 -0.406584721  0.000000000
     2.130000000  1.229756000  0.000000000     0.234741784  0.406584721  0.000000000
     0.000000000  0.000000000 20.000000000     0.000000000  0.000000000  0.050000000

  length of vectors
     2.459512110  2.459512110 20.000000000     0.469483589  0.469483589  0.050000000


 
 k-points in units of 2pi/SCALE and weight: k grid                                  
   0.00000000  0.00000000  0.00000000       0.002
   0.01117818 -0.01936118  0.00000000       0.014
   0.02235636 -0.03872235  0.00000000       0.014
   0.03353454 -0.05808353  0.00000000       0.014
   0.04471272 -0.07744471  0.00000000       0.014
   0.05589090 -0.09680589  0.00000000       0.014
   0.06706908 -0.11616706  0.00000000       0.014
   0.07824726 -0.13552824  0.00000000       0.014
   0.08942544 -0.15488942  0.00000000       0.014
   0.10060362 -0.17425059  0.00000000       0.014
   0.11178180 -0.19361177  0.00000000       0.014
   0.03353454 -0.01936118  0.00000000       0.014
   0.04471272 -0.03872235  0.00000000       0.027
   0.05589090 -0.05808353  0.00000000       0.027
   0.06706908 -0.07744471  0.00000000       0.027
   0.07824726 -0.09680589  0.00000000       0.027
   0.08942544 -0.11616706  0.00000000       0.027
   0.10060362 -0.13552824  0.00000000       0.027
   0.11178180 -0.15488942  0.00000000       0.027
   0.12295998 -0.17425059  0.00000000       0.027
  -0.10060362  0.21297295  0.00000000       0.014
   0.06706908 -0.03872235  0.00000000       0.014
   0.07824726 -0.05808353  0.00000000       0.027
   0.08942544 -0.07744471  0.00000000       0.027
   0.10060362 -0.09680589  0.00000000       0.027
   0.11178180 -0.11616706  0.00000000       0.027
   0.12295998 -0.13552824  0.00000000       0.027
   0.13413816 -0.15488942  0.00000000       0.027
  -0.08942544  0.23233413  0.00000000       0.027
   0.10060362 -0.05808353  0.00000000       0.014
   0.11178180 -0.07744471  0.00000000       0.027
   0.12295998 -0.09680589  0.00000000       0.027
   0.13413816 -0.11616706  0.00000000       0.027
   0.14531634 -0.13552824  0.00000000       0.027
  -0.07824726  0.25169530  0.00000000       0.027
  -0.06706908  0.23233413  0.00000000       0.014
   0.13413816 -0.07744471  0.00000000       0.014
   0.14531634 -0.09680589  0.00000000       0.027
   0.15649452 -0.11616706  0.00000000       0.027
  -0.06706908  0.27105648  0.00000000       0.027
  -0.05589090  0.25169530  0.00000000       0.027
   0.16767270 -0.09680589  0.00000000       0.014
  -0.05589090  0.29041766  0.00000000       0.027
  -0.04471272  0.27105648  0.00000000       0.027
  -0.03353454  0.25169530  0.00000000       0.014
  -0.03353454  0.29041766  0.00000000       0.014
  -0.02235636  0.27105648  0.00000000       0.027
   0.00000000  0.27105648  0.00000000       0.005
 
 k-points in reciprocal lattice and weights: k grid                                  
   0.00000000  0.00000000  0.00000000       0.002
   0.04761905  0.00000000  0.00000000       0.014
   0.09523810  0.00000000  0.00000000       0.014
   0.14285714  0.00000000  0.00000000       0.014
   0.19047619  0.00000000  0.00000000       0.014
   0.23809524  0.00000000  0.00000000       0.014
   0.28571429  0.00000000  0.00000000       0.014
   0.33333333  0.00000000  0.00000000       0.014
   0.38095238  0.00000000  0.00000000       0.014
   0.42857143  0.00000000  0.00000000       0.014
   0.47619048  0.00000000  0.00000000       0.014
   0.09523810  0.04761905  0.00000000       0.014
   0.14285714  0.04761905  0.00000000       0.027
   0.19047619  0.04761905  0.00000000       0.027
   0.23809524  0.04761905  0.00000000       0.027
   0.28571429  0.04761905  0.00000000       0.027
   0.33333333  0.04761905  0.00000000       0.027
   0.38095238  0.04761905  0.00000000       0.027
   0.42857143  0.04761905  0.00000000       0.027
   0.47619048  0.04761905  0.00000000       0.027
  -0.47619048  0.04761905  0.00000000       0.014
   0.19047619  0.09523810  0.00000000       0.014
   0.23809524  0.09523810  0.00000000       0.027
   0.28571429  0.09523810  0.00000000       0.027
   0.33333333  0.09523810  0.00000000       0.027
   0.38095238  0.09523810  0.00000000       0.027
   0.42857143  0.09523810  0.00000000       0.027
   0.47619048  0.09523810  0.00000000       0.027
  -0.47619048  0.09523810  0.00000000       0.027
   0.28571429  0.14285714  0.00000000       0.014
   0.33333333  0.14285714  0.00000000       0.027
   0.38095238  0.14285714  0.00000000       0.027
   0.42857143  0.14285714  0.00000000       0.027
   0.47619048  0.14285714  0.00000000       0.027
  -0.47619048  0.14285714  0.00000000       0.027
  -0.42857143  0.14285714  0.00000000       0.014
   0.38095238  0.19047619  0.00000000       0.014
   0.42857143  0.19047619  0.00000000       0.027
   0.47619048  0.19047619  0.00000000       0.027
  -0.47619048  0.19047619  0.00000000       0.027
  -0.42857143  0.19047619  0.00000000       0.027
   0.47619048  0.23809524  0.00000000       0.014
  -0.47619048  0.23809524  0.00000000       0.027
  -0.42857143  0.23809524  0.00000000       0.027
  -0.38095238  0.23809524  0.00000000       0.014
  -0.42857143  0.28571429  0.00000000       0.014
  -0.38095238  0.28571429  0.00000000       0.027
  -0.33333333  0.33333333  0.00000000       0.005
 
 position of ions in fractional coordinates (direct lattice) 
   0.00000000  0.00000000  0.00000000
   0.33333300  0.33333300  0.00000000
   0.00000000  0.00000000  0.16000000
   0.33333300  0.33333300  0.16000000
 
 position of ions in cartesian coordinates  (Angst):
   0.00000000  0.00000000  0.00000000
   1.41999858  0.00000000  0.00000000
   0.00000000  0.00000000  3.20000000
   1.41999858  0.00000000  3.20000000
 


--------------------------------------------------------------------------------------------------------


 k-point  1 :   0.0000 0.0000 0.0000  plane waves:    5409
 k-point  2 :   0.0476 0.0000 0.0000  plane waves:    5413
 k-point  3 :   0.0952 0.0000 0.0000  plane waves:    5402
 k-point  4 :   0.1429 0.0000 0.0000  plane waves:    5398
 k-point  5 :   0.1905 0.0000 0.0000  plane waves:    5404
 k-point  6 :   0.2381 0.0000 0.0000  plane waves:    5408
 k-point  7 :   0.2857 0.0000 0.0000  plane waves:    5404
 k-point  8 :   0.3333 0.0000 0.0000  plane waves:    5394
 k-point  9 :   0.3810 0.0000 0.0000  plane waves:    5382
 k-point 10 :   0.4286 0.0000 0.0000  plane waves:    5396
 k-point 11 :   0.4762 0.0000 0.0000  plane waves:    5380
 k-point 12 :   0.0952 0.0476 0.0000  plane waves:    5411
 k-point 13 :   0.1429 0.0476 0.0000  plane waves:    5415
 k-point 14 :   0.1905 0.0476 0.0000  plane waves:    5413
 k-point 15 :   0.2381 0.0476 0.0000  plane waves:    5399
 k-point 16 :   0.2857 0.0476 0.0000  plane waves:    5396
 k-point 17 :   0.3333 0.0476 0.0000  plane waves:    5389
 k-point 18 :   0.3810 0.0476 0.0000  plane waves:    5378
 k-point 19 :   0.4286 0.0476 0.0000  plane waves:    5381
 k-point 20 :   0.4762 0.0476 0.0000  plane waves:    5391
 k-point 21 :  -0.4762 0.0476 0.0000  plane waves:    5394
 k-point 22 :   0.1905 0.0952 0.0000  plane waves:    5403
 k-point 23 :   0.2381 0.0952 0.0000  plane waves:    5409
 k-point 24 :   0.2857 0.0952 0.0000  plane waves:    5419
 k-point 25 :   0.3333 0.0952 0.0000  plane waves:    5384
 k-point 26 :   0.3810 0.0952 0.0000  plane waves:    5369
 k-point 27 :   0.4286 0.0952 0.0000  plane waves:    5364
 k-point 28 :   0.4762 0.0952 0.0000  plane waves:    5382
 k-point 29 :  -0.4762 0.0952 0.0000  plane waves:    5404
 k-point 30 :   0.2857 0.1429 0.0000  plane waves:    5405
 k-point 31 :   0.3333 0.1429 0.0000  plane waves:    5404
 k-point 32 :   0.3810 0.1429 0.0000  plane waves:    5382
 k-point 33 :   0.4286 0.1429 0.0000  plane waves:    5347
 k-point 34 :   0.4762 0.1429 0.0000  plane waves:    5367
 k-point 35 :  -0.4762 0.1429 0.0000  plane waves:    5376
 k-point 36 :  -0.4286 0.1429 0.0000  plane waves:    5400
 k-point 37 :   0.3810 0.1905 0.0000  plane waves:    5390
 k-point 38 :   0.4286 0.1905 0.0000  plane waves:    5358
 k-point 39 :   0.4762 0.1905 0.0000  plane waves:    5365
 k-point 40 :  -0.4762 0.1905 0.0000  plane waves:    5363
 k-point 41 :  -0.4286 0.1905 0.0000  plane waves:    5377
 k-point 42 :   0.4762 0.2381 0.0000  plane waves:    5364
 k-point 43 :  -0.4762 0.2381 0.0000  plane waves:    5368
 k-point 44 :  -0.4286 0.2381 0.0000  plane waves:    5360
 k-point 45 :  -0.3810 0.2381 0.0000  plane waves:    5366
 k-point 46 :  -0.4286 0.2857 0.0000  plane waves:    5362
 k-point 47 :  -0.3810 0.2857 0.0000  plane waves:    5326
 k-point 48 :  -0.3333 0.3333 0.0000  plane waves:    5334

 maximum and minimum number of plane-waves per node :      5419     5326

 maximum number of plane-waves:      5419
 maximum index in each direction: 
   IXMAX=    6   IYMAX=    5   IZMAX=   46
   IXMIN=   -6   IYMIN=   -5   IZMIN=  -46


 serial   3D FFT for wavefunctions
 parallel 3D FFT for charge:
    minimum data exchange during FFTs selected (reduces bandwidth)


 total amount of memory used by VASP MPI-rank0   107376. kBytes
=======================================================================

   base      :      30000. kBytes
   nonl-proj :      16997. kBytes
   fftplans  :      32720. kBytes
   grid      :      15086. kBytes
   one-center:         12. kBytes
   wavefun   :      12561. kBytes
 
     INWAV:  cpu time    0.0000: real time    0.0001
 Broyden mixing: mesh for mixing (old mesh)
   NGX = 11   NGY = 11   NGZ = 93
  (NGX  = 48   NGY  = 48   NGZ  =384)
  gives a total of  11253 points

 initial charge density was supplied:
 charge density of overlapping atoms calculated
 number of electron      16.0000000 magnetization 
 keeping initial charge density in first step


--------------------------------------------------------------------------------------------------------


 Maximum index for augmentation-charges        24149 (set IRDMAX)


--------------------------------------------------------------------------------------------------------


 First call to EWALD:  gamma=   0.376
 Maximum number of real-space cells 5x 5x 1
 Maximum number of reciprocal cells 2x 2x10

    FEWALD:  cpu time    0.0011: real time    0.0011


--------------------------------------- Iteration      1(   1)  ---------------------------------------


    POTLOK:  cpu time    0.0863: real time    0.1033
    SETDIJ:  cpu time    0.0419: real time    0.0420
     EDDAV:  cpu time    1.4553: real time    1.4605
       DOS:  cpu time    0.0004: real time    0.0004
    --------------------------------------------
      LOOP:  cpu time    1.5839: real time    1.6062

 eigenvalue-minimisations  :  1152
 total energy-change (2. order) : 0.1289720E+03  (-0.8019160E+03)
 number of electron      16.0000000 magnetization 
 augmentation part       16.0000000 magnetization 

 Free energy of the ion-electron system (eV)
  ---------------------------------------------------
  alpha Z        PSCENC =        12.54445055
  Ewald energy   TEWEN  =      3319.40988669
  -Hartree energ DENC   =     -3780.69865974
  -exchange      EXHF   =         0.00000000
  -V(xc)+E(xc)   XCENC  =        52.97722135
  PAW double counting   =       434.08818552     -436.36580876
  entropy T*S    EENTRO =        -0.00015880
  eigenvalues    EBANDS =       -61.60077201
  atomic energy  EATOM  =       588.61769381
  Solvation  Ediel_sol  =         0.00000000
  ---------------------------------------------------
  free energy    TOTEN  =       128.97203862 eV

  energy without entropy =      128.97219742  energy(sigma->0) =      128.97211802


--------------------------------------------------------------------------------------------------------




--------------------------------------- Iteration      1(   2)  ---------------------------------------


     EDDAV:  cpu time    2.0149: real time    2.0213
       DOS:  cpu time    0.0002: real time    0.0002
    --------------------------------------------
      LOOP:  cpu time    2.0151: real time    2.0215

 eigenvalue-minimisations  :  1836
 total energy-change (2. order) :-0.1534122E+03  (-0.1395063E+03)
 number of electron      16.0000000 magnetization 
 augmentation part       16.0000000 magnetization 

 Free energy of the ion-electron system (eV)
  ---------------------------------------------------
  alpha Z        PSCENC =        12.54445055
  Ewald energy   TEWEN  =      3319.40988669
  -Hartree energ DENC   =     -3780.69865974
  -exchange      EXHF   =         0.00000000
  -V(xc)+E(xc)   XCENC  =        52.97722135
  PAW double counting   =       434.08818552     -436.36580876
  entropy T*S    EENTRO =        -0.00000000
  eigenvalues    EBANDS =      -215.01312706
  atomic energy  EATOM  =       588.61769381
  Solvation  Ediel_sol  =         0.00000000
  ---------------------------------------------------
  free energy    TOTEN  =       -24.44015763 eV

  energy without entropy =      -24.44015763  energy(sigma->0) =      -24.44015763


--------------------------------------------------------------------------------------------------------




--------------------------------------- Iteration      1(   3)  ---------------------------------------


     EDDAV:  cpu time    1.6986: real time    1.7038
       DOS:  cpu time    0.0002: real time    0.0002
    --------------------------------------------
      LOOP:  cpu time    1.6988: real time    1.7040

 eigenvalue-minimisations  :  1464
 total energy-change (2. order) :-0.1454701E+02  (-0.1443099E+02)
 number of electron      16.0000000 magnetization 
 augmentation part       16.0000000 magnetization 

 Free energy of the ion-electron system (eV)
  ---------------------------------------------------
  alpha Z        PSCENC =        12.54445055
  Ewald energy   TEWEN  =      3319.40988669
  -Hartree energ DENC   =     -3780.69865974
  -exchange      EXHF   =         0.00000000
  -V(xc)+E(xc)   XCENC  =        52.97722135
  PAW double counting   =       434.08818552     -436.36580876
  entropy T*S    EENTRO =        -0.00000000
  eigenvalues    EBANDS =      -229.56013684
  atomic energy  EATOM  =       588.61769381
  Solvation  Ediel_sol  =         0.00000000
  ---------------------------------------------------
  free energy    TOTEN  =       -38.98716741 eV

  energy without entropy =      -38.98716741  energy(sigma->0) =      -38.98716741


--------------------------------------------------------------------------------------------------------




--------------------------------------- Iteration      1(   4)  ---------------------------------------


     EDDAV:  cpu time    1.6993: real time    1.7046
       DOS:  cpu time    0.0002: real time    0.0002
    --------------------------------------------
      LOOP:  cpu time    1.6995: real time    1.7048

 eigenvalue-minimisations  :  1456
 total energy-change (2. order) :-0.3427204E+00  (-0.3416338E+00)
 number of electron      16.0000000 magnetization 
 augmentation part       16.0000000 magnetization 

 Free energy of the ion-electron system (eV)
  ---------------------------------------------------
  alpha Z        PSCENC =        12.54445055
  Ewald energy   TEWEN  =      3319.40988669
  -Hartree energ DENC   =     -3780.69865974
  -exchange      EXHF   =         0.00000000
  -V(xc)+E(xc)   XCENC  =        52.97722135
  PAW double counting   =       434.08818552     -436.36580876
  entropy T*S    EENTRO =        -0.00000000
  eigenvalues    EBANDS =      -229.90285724
  atomic energy  EATOM  =       588.61769381
  Solvation  Ediel_sol  =         0.00000000
  ---------------------------------------------------
  free energy    TOTEN  =       -39.32988782 eV

  energy without entropy =      -39.32988782  energy(sigma->0) =      -39.32988782


--------------------------------------------------------------------------------------------------------




--------------------------------------- Iteration      1(   5)  ---------------------------------------


     EDDAV:  cpu time    1.6894: real time    1.6949
       DOS:  cpu time    0.0002: real time    0.0002
    CHARGE:  cpu time    0.1865: real time    0.1869
    MIXING:  cpu time    0.0025: real time    0.0025
    --------------------------------------------
      LOOP:  cpu time    1.8785: real time    1.8844

 eigenvalue-minimisations  :  1468
 total energy-change (2. order) :-0.1071761E-01  (-0.1069962E-01)
 number of electron      16.0000000 magnetization 
 augmentation part        0.4274129 magnetization 

 Broyden mixing:
  rms(total) = 0.90227E+00    rms(broyden)= 0.90226E+00
  rms(prec ) = 0.96315E+00
  weight for this iteration     100.00

 Free energy of the ion-electron system (eV)
  ---------------------------------------------------
  alpha Z        PSCENC =        12.54445055
  Ewald energy   TEWEN  =      3319.40988669
  -Hartree energ DENC   =     -3780.69865974
  -exchange      EXHF   =         0.00000000
  -V(xc)+E(xc)   XCENC  =        52.97722135
  PAW double counting   =       434.08818552     -436.36580876
  entropy T*S    EENTRO =        -0.00000000
  eigenvalues    EBANDS =      -229.91357485
  atomic energy  EATOM  =       588.61769381
  Solvation  Ediel_sol  =         0.00000000
  ---------------------------------------------------
  free energy    TOTEN  =       -39.34060542 eV

  energy without entropy =      -39.34060542  energy(sigma->0) =      -39.34060542


--------------------------------------------------------------------------------------------------------




--------------------------------------- Iteration      1(   6)  ---------------------------------------


    POTLOK:  cpu time    0.0742: real time    0.0744
    SETDIJ:  cpu time    0.0365: real time    0.0367
     EDDAV:  cpu time    1.6180: real time    1.6234
       DOS:  cpu time    0.0002: real time    0.0002
    CHARGE:  cpu time    0.1847: real time    0.1852
    MIXING:  cpu time    0.0027: real time    0.0027
    --------------------------------------------
      LOOP:  cpu time    1.9162: real time    1.9225

 eigenvalue-minimisations  :  1356
 total energy-change (2. order) : 0.1833690E+01  (-0.1723550E+00)
 number of electron      16.0000000 magnetization 
 augmentation part        0.4085523 magnetization 

 Broyden mixing:
  rms(total) = 0.52909E+00    rms(broyden)= 0.52908E+00
  rms(prec ) = 0.55873E+00
  weight for this iteration     100.00

 eigenvalues of (default mixing * dielectric matrix)
  average eigenvalue GAMMA=   2.2052
  2.2052

 Free energy of the ion-electron system (eV)
  ---------------------------------------------------
  alpha Z        PSCENC =        12.54445055
  Ewald energy   TEWEN  =      3319.40988669
  -Hartree energ DENC   =     -3799.48954026
  -exchange      EXHF   =         0.00000000
  -V(xc)+E(xc)   XCENC  =        53.95642832
  PAW double counting   =       803.36557816     -805.94080978
  entropy T*S    EENTRO =        -0.00000000
  eigenvalues    EBANDS =      -209.97060293
  atomic energy  EATOM  =       588.61769381
  Solvation  Ediel_sol  =         0.00000000
  ---------------------------------------------------
  free energy    TOTEN  =       -37.50691545 eV

  energy without entropy =      -37.50691545  energy(sigma->0) =      -37.50691545


--------------------------------------------------------------------------------------------------------




--------------------------------------- Iteration      1(   7)  ---------------------------------------


    POTLOK:  cpu time    0.0742: real time    0.0745
    SETDIJ:  cpu time    0.0384: real time    0.0386
     EDDAV:  cpu time    1.6992: real time    1.7043
       DOS:  cpu time    0.0001: real time    0.0001
    CHARGE:  cpu time    0.1769: real time    0.1773
    MIXING:  cpu time    0.0027: real time    0.0027
    --------------------------------------------
      LOOP:  cpu time    1.9916: real time    1.9975

 eigenvalue-minimisations  :  1420
 total energy-change (2. order) : 0.6476568E+00  (-0.2164793E+00)
 number of electron      16.0000000 magnetization 
 augmentation part        0.3868724 magnetization 

 Broyden mixing:
  rms(total) = 0.13473E+00    rms(broyden)= 0.13473E+00
  rms(prec ) = 0.14106E+00
  weight for this iteration     100.00

 eigenvalues of (default mixing * dielectric matrix)
  average eigenvalue GAMMA=   2.2457
  2.0919  2.3996

 Free energy of the ion-electron system (eV)
  ---------------------------------------------------
  alpha Z        PSCENC =        12.54445055
  Ewald energy   TEWEN  =      3319.40988669
  -Hartree energ DENC   =     -3823.90175055
  -exchange      EXHF   =         0.00000000
  -V(xc)+E(xc)   XCENC  =        55.21282575
  PAW double counting   =      1519.85415872    -1522.69217967
  entropy T*S    EENTRO =        -0.00000000
  eigenvalues    EBANDS =      -185.90434395
  atomic energy  EATOM  =       588.61769381
  Solvation  Ediel_sol  =         0.00000000
  ---------------------------------------------------
  free energy    TOTEN  =       -36.85925865 eV

  energy without entropy =      -36.85925865  energy(sigma->0) =      -36.85925865


--------------------------------------------------------------------------------------------------------




--------------------------------------- Iteration      1(   8)  ---------------------------------------


    POTLOK:  cpu time    0.0727: real time    0.0729
    SETDIJ:  cpu time    0.0376: real time    0.0376
     EDDAV:  cpu time    1.6954: real time    1.7004
       DOS:  cpu time    0.0002: real time    0.0002
    CHARGE:  cpu time    0.1827: real time    0.1831
    MIXING:  cpu time    0.0027: real time    0.0028
    --------------------------------------------
      LOOP:  cpu time    1.9912: real time    1.9970

 eigenvalue-minimisations  :  1416
 total energy-change (2. order) : 0.8641256E-02  (-0.8183654E-02)
 number of electron      16.0000000 magnetization 
 augmentation part        0.3865223 magnetization 

 Broyden mixing:
  rms(total) = 0.12106E-01    rms(broyden)= 0.12106E-01
  rms(prec ) = 0.28783E-01
  weight for this iteration     100.00

 eigenvalues of (default mixing * dielectric matrix)
  average eigenvalue GAMMA=   1.8845
  1.1960  2.3469  2.1106

 Free energy of the ion-electron system (eV)
  ---------------------------------------------------
  alpha Z        PSCENC =        12.54445055
  Ewald energy   TEWEN  =      3319.40988669
  -Hartree energ DENC   =     -3826.15461368
  -exchange      EXHF   =         0.00000000
  -V(xc)+E(xc)   XCENC  =        55.18242910
  PAW double counting   =      1707.95174639    -1710.68219324
  entropy T*S    EENTRO =        -0.00000000
  eigenvalues    EBANDS =      -183.72001700
  atomic energy  EATOM  =       588.61769381
  Solvation  Ediel_sol  =         0.00000000
  ---------------------------------------------------
  free energy    TOTEN  =       -36.85061739 eV

  energy without entropy =      -36.85061739  energy(sigma->0) =      -36.85061739


--------------------------------------------------------------------------------------------------------




--------------------------------------- Iteration      1(   9)  ---------------------------------------


    POTLOK:  cpu time    0.0733: real time    0.0760
    SETDIJ:  cpu time    0.0399: real time    0.0400
     EDDAV:  cpu time    1.6902: real time    1.6953
       DOS:  cpu time    0.0002: real time    0.0002
    CHARGE:  cpu time    0.1734: real time    0.1738
    MIXING:  cpu time    0.0028: real time    0.0028
    --------------------------------------------
      LOOP:  cpu time    1.9797: real time    1.9881

 eigenvalue-minimisations  :  1424
 total energy-change (2. order) : 0.2495821E-02  (-0.4032109E-03)
 number of electron      16.0000000 magnetization 
 augmentation part        0.3860852 magnetization 

 Broyden mixing:
  rms(total) = 0.96276E-02    rms(broyden)= 0.96276E-02
  rms(prec ) = 0.25793E-01
  weight for this iteration     100.00

 eigenvalues of (default mixing * dielectric matrix)
  average eigenvalue GAMMA=   1.9605
  1.0642  2.4016  2.4016  1.9747

 Free energy of the ion-electron system (eV)
  ---------------------------------------------------
  alpha Z        PSCENC =        12.54445055
  Ewald energy   TEWEN  =      3319.40988669
  -Hartree energ DENC   =     -3827.51491629
  -exchange      EXHF   =         0.00000000
  -V(xc)+E(xc)   XCENC  =        55.20385605
  PAW double counting   =      1707.44556429    -1710.17589077
  entropy T*S    EENTRO =        -0.00000000
  eigenvalues    EBANDS =      -182.37876588
  atomic energy  EATOM  =       588.61769381
  Solvation  Ediel_sol  =         0.00000000
  ---------------------------------------------------
  free energy    TOTEN  =       -36.84812157 eV

  energy without entropy =      -36.84812157  energy(sigma->0) =      -36.84812157


--------------------------------------------------------------------------------------------------------




--------------------------------------- Iteration      1(  10)  ---------------------------------------


    POTLOK:  cpu time    0.0730: real time    0.0780
    SETDIJ:  cpu time    0.0353: real time    0.0354
     EDDAV:  cpu time    1.6335: real time    1.6384
       DOS:  cpu time    0.0002: real time    0.0002
    CHARGE:  cpu time    0.1732: real time    0.1736
    MIXING:  cpu time    0.0029: real time    0.0029
    --------------------------------------------
      LOOP:  cpu time    1.9181: real time    1.9284

 eigenvalue-minimisations  :  1396
 total energy-change (2. order) : 0.6033455E-02  (-0.2709979E-03)
 number of electron      16.0000000 magnetization 
 augmentation part        0.3856291 magnetization 

 Broyden mixing:
  rms(total) = 0.78840E-02    rms(broyden)= 0.78839E-02
  rms(prec ) = 0.19778E-01
  weight for this iteration     100.00

 eigenvalues of (default mixing * dielectric matrix)
  average eigenvalue GAMMA=   1.8944
  2.9481  2.5722  1.9486  1.1106  0.8923

 Free energy of the ion-electron system (eV)
  ---------------------------------------------------
  alpha Z        PSCENC =        12.54445055
  Ewald energy   TEWEN  =      3319.40988669
  -Hartree energ DENC   =     -3831.27686916
  -exchange      EXHF   =         0.00000000
  -V(xc)+E(xc)   XCENC  =        55.24707539
  PAW double counting   =      1692.79698234    -1695.52603408
  entropy T*S    EENTRO =        -0.00000000
  eigenvalues    EBANDS =      -178.65527365
  atomic energy  EATOM  =       588.61769381
  Solvation  Ediel_sol  =         0.00000000
  ---------------------------------------------------
  free energy    TOTEN  =       -36.84208811 eV

  energy without entropy =      -36.84208811  energy(sigma->0) =      -36.84208811


--------------------------------------------------------------------------------------------------------




--------------------------------------- Iteration      1(  11)  ---------------------------------------


    POTLOK:  cpu time    0.0715: real time    0.0717
    SETDIJ:  cpu time    0.0355: real time    0.0355
     EDDAV:  cpu time    1.5551: real time    1.5598
       DOS:  cpu time    0.0002: real time    0.0002
    CHARGE:  cpu time    0.1862: real time    0.1866
    MIXING:  cpu time    0.0033: real time    0.0033
    --------------------------------------------
      LOOP:  cpu time    1.8516: real time    1.8572

 eigenvalue-minimisations  :  1316
 total energy-change (2. order) : 0.3606607E-02  (-0.1664182E-03)
 number of electron      16.0000000 magnetization 
 augmentation part        0.3855132 magnetization 

 Broyden mixing:
  rms(total) = 0.52920E-02    rms(broyden)= 0.52920E-02
  rms(prec ) = 0.15120E-01
  weight for this iteration     100.00

 eigenvalues of (default mixing * dielectric matrix)
  average eigenvalue GAMMA=   2.1201
  4.4238  2.4211  2.1013  0.9911  1.3916  1.3916

 Free energy of the ion-electron system (eV)
  ---------------------------------------------------
  alpha Z        PSCENC =        12.54445055
  Ewald energy   TEWEN  =      3319.40988669
  -Hartree energ DENC   =     -3833.96876959
  -exchange      EXHF   =         0.00000000
  -V(xc)+E(xc)   XCENC  =        55.26515708
  PAW double counting   =      1704.22119925    -1706.94250693
  entropy T*S    EENTRO =        -0.00000000
  eigenvalues    EBANDS =      -175.98559235
  atomic energy  EATOM  =       588.61769381
  Solvation  Ediel_sol  =         0.00000000
  ---------------------------------------------------
  free energy    TOTEN  =       -36.83848151 eV

  energy without entropy =      -36.83848151  energy(sigma->0) =      -36.83848151


--------------------------------------------------------------------------------------------------------




--------------------------------------- Iteration      1(  12)  ---------------------------------------


    POTLOK:  cpu time    0.0700: real time    0.0704
    SETDIJ:  cpu time    0.0356: real time    0.0358
     EDDAV:  cpu time    1.5276: real time    1.5326
       DOS:  cpu time    0.0002: real time    0.0002
    CHARGE:  cpu time    0.1805: real time    0.1809
    MIXING:  cpu time    0.0032: real time    0.0032
    --------------------------------------------
      LOOP:  cpu time    1.8171: real time    1.8231

 eigenvalue-minimisations  :  1268
 total energy-change (2. order) : 0.3822395E-02  (-0.1644098E-03)
 number of electron      16.0000000 magnetization 
 augmentation part        0.3852734 magnetization 

 Broyden mixing:
  rms(total) = 0.35851E-02    rms(broyden)= 0.35851E-02
  rms(prec ) = 0.11147E-01
  weight for this iteration     100.00

 eigenvalues of (default mixing * dielectric matrix)
  average eigenvalue GAMMA=   2.4447
  6.4576  2.7704  2.2063  2.1121  1.4689  1.0274  1.0700

 Free energy of the ion-electron system (eV)
  ---------------------------------------------------
  alpha Z        PSCENC =        12.54445055
  Ewald energy   TEWEN  =      3319.40988669
  -Hartree energ DENC   =     -3837.27721046
  -exchange      EXHF   =         0.00000000
  -V(xc)+E(xc)   XCENC  =        55.28136558
  PAW double counting   =      1699.32313065    -1702.04822267
  entropy T*S    EENTRO =        -0.00000000
  eigenvalues    EBANDS =      -172.68575325
  atomic energy  EATOM  =       588.61769381
  Solvation  Ediel_sol  =         0.00000000
  ---------------------------------------------------
  free energy    TOTEN  =       -36.83465911 eV

  energy without entropy =      -36.83465911  energy(sigma->0) =      -36.83465911


--------------------------------------------------------------------------------------------------------




--------------------------------------- Iteration      1(  13)  ---------------------------------------


    POTLOK:  cpu time    0.0671: real time    0.0673
    SETDIJ:  cpu time    0.0355: real time    0.0356
     EDDAV:  cpu time    1.5208: real time    1.5257
       DOS:  cpu time    0.0002: real time    0.0002
    CHARGE:  cpu time    0.1743: real time    0.1748
    MIXING:  cpu time    0.0032: real time    0.0032
    --------------------------------------------
      LOOP:  cpu time    1.8011: real time    1.8067

 eigenvalue-minimisations  :  1256
 total energy-change (2. order) : 0.1980669E-03  (-0.4309771E-04)
 number of electron      16.0000000 magnetization 
 augmentation part        0.3852741 magnetization 

 Broyden mixing:
  rms(total) = 0.33239E-02    rms(broyden)= 0.33239E-02
  rms(prec ) = 0.81393E-02
  weight for this iteration     100.00

 eigenvalues of (default mixing * dielectric matrix)
  average eigenvalue GAMMA=   2.6189
  7.7169  3.6043  2.4402  2.0592  1.6888  1.4160  1.0129  1.0129

 Free energy of the ion-electron system (eV)
  ---------------------------------------------------
  alpha Z        PSCENC =        12.54445055
  Ewald energy   TEWEN  =      3319.40988669
  -Hartree energ DENC   =     -3839.61634349
  -exchange      EXHF   =         0.00000000
  -V(xc)+E(xc)   XCENC  =        55.27448593
  PAW double counting   =      1698.70115553    -1701.42648349
  entropy T*S    EENTRO =        -0.00000000
  eigenvalues    EBANDS =      -170.33930657
  atomic energy  EATOM  =       588.61769381
  Solvation  Ediel_sol  =         0.00000000
  ---------------------------------------------------
  free energy    TOTEN  =       -36.83446104 eV

  energy without entropy =      -36.83446104  energy(sigma->0) =      -36.83446104


--------------------------------------------------------------------------------------------------------




--------------------------------------- Iteration      1(  14)  ---------------------------------------


    POTLOK:  cpu time    0.0646: real time    0.0648
    SETDIJ:  cpu time    0.0357: real time    0.0358
     EDDAV:  cpu time    1.5782: real time    1.5833
       DOS:  cpu time    0.0002: real time    0.0002
    CHARGE:  cpu time    0.1728: real time    0.1732
    MIXING:  cpu time    0.0032: real time    0.0033
    --------------------------------------------
      LOOP:  cpu time    1.8547: real time    1.8606

 eigenvalue-minimisations  :  1336
 total energy-change (2. order) :-0.8537121E-03  (-0.4880171E-04)
 number of electron      16.0000000 magnetization 
 augmentation part        0.3851956 magnetization 

 Broyden mixing:
  rms(total) = 0.29074E-02    rms(broyden)= 0.29074E-02
  rms(prec ) = 0.49141E-02
  weight for this iteration     100.00

 eigenvalues of (default mixing * dielectric matrix)
  average eigenvalue GAMMA=   3.1248
 10.9893  4.9027  2.9641  2.4734  2.0121  1.5539  1.0065  1.0065  1.2144

 Free energy of the ion-electron system (eV)
  ---------------------------------------------------
  alpha Z        PSCENC =        12.54445055
  Ewald energy   TEWEN  =      3319.40988669
  -Hartree energ DENC   =     -3841.64565841
  -exchange      EXHF   =         0.00000000
  -V(xc)+E(xc)   XCENC  =        55.27496563
  PAW double counting   =      1701.76205049    -1704.48747600
  entropy T*S    EENTRO =        -0.00000000
  eigenvalues    EBANDS =      -168.31122750
  atomic energy  EATOM  =       588.61769381
  Solvation  Ediel_sol  =         0.00000000
  ---------------------------------------------------
  free energy    TOTEN  =       -36.83531476 eV

  energy without entropy =      -36.83531476  energy(sigma->0) =      -36.83531476


--------------------------------------------------------------------------------------------------------




--------------------------------------- Iteration      1(  15)  ---------------------------------------


    POTLOK:  cpu time    0.0641: real time    0.0643
    SETDIJ:  cpu time    0.0351: real time    0.0352
     EDDAV:  cpu time    1.5924: real time    1.5976
       DOS:  cpu time    0.0002: real time    0.0002
    CHARGE:  cpu time    0.1749: real time    0.1754
    MIXING:  cpu time    0.0033: real time    0.0033
    --------------------------------------------
      LOOP:  cpu time    1.8701: real time    1.8760

 eigenvalue-minimisations  :  1344
 total energy-change (2. order) :-0.6927294E-03  (-0.1591611E-04)
 number of electron      16.0000000 magnetization 
 augmentation part        0.3851254 magnetization 

 Broyden mixing:
  rms(total) = 0.29525E-02    rms(broyden)= 0.29525E-02
  rms(prec ) = 0.33314E-02
  weight for this iteration     100.00

 eigenvalues of (default mixing * dielectric matrix)
  average eigenvalue GAMMA=   3.8030
 16.4405  6.8389  2.8418  2.8418  2.3095  2.0601  1.5835  1.0043  1.0043  1.1059

 Free energy of the ion-electron system (eV)
  ---------------------------------------------------
  alpha Z        PSCENC =        12.54445055
  Ewald energy   TEWEN  =      3319.40988669
  -Hartree energ DENC   =     -3843.18163216
  -exchange      EXHF   =         0.00000000
  -V(xc)+E(xc)   XCENC  =        55.28245262
  PAW double counting   =      1695.76051203    -1698.48458467
  entropy T*S    EENTRO =        -0.00000000
  eigenvalues    EBANDS =      -166.78478635
  atomic energy  EATOM  =       588.61769381
  Solvation  Ediel_sol  =         0.00000000
  ---------------------------------------------------
  free energy    TOTEN  =       -36.83600749 eV

  energy without entropy =      -36.83600749  energy(sigma->0) =      -36.83600749


--------------------------------------------------------------------------------------------------------




--------------------------------------- Iteration      1(  16)  ---------------------------------------


    POTLOK:  cpu time    0.0648: real time    0.0650
    SETDIJ:  cpu time    0.0351: real time    0.0352
     EDDAV:  cpu time    1.5700: real time    1.5748
       DOS:  cpu time    0.0002: real time    0.0002
    CHARGE:  cpu time    0.1765: real time    0.1769
    MIXING:  cpu time    0.0036: real time    0.0036
    --------------------------------------------
      LOOP:  cpu time    1.8501: real time    1.8557

 eigenvalue-minimisations  :  1316
 total energy-change (2. order) :-0.3825657E-03  (-0.3876033E-05)
 number of electron      16.0000000 magnetization 
 augmentation part        0.3851654 magnetization 

 Broyden mixing:
  rms(total) = 0.88396E-03    rms(broyden)= 0.88396E-03
  rms(prec ) = 0.10528E-02
  weight for this iteration     100.00

 eigenvalues of (default mixing * dielectric matrix)
  average eigenvalue GAMMA=   4.2573
 22.5205  7.0484  4.0281  2.7823  2.4725  2.0092  1.5606  1.0007  1.0007  1.0357
  1.3720

 Free energy of the ion-electron system (eV)
  ---------------------------------------------------
  alpha Z        PSCENC =        12.54445055
  Ewald energy   TEWEN  =      3319.40988669
  -Hartree energ DENC   =     -3843.09331690
  -exchange      EXHF   =         0.00000000
  -V(xc)+E(xc)   XCENC  =        55.27734128
  PAW double counting   =      1699.11546654    -1701.83998690
  entropy T*S    EENTRO =        -0.00000000
  eigenvalues    EBANDS =      -166.86792511
  atomic energy  EATOM  =       588.61769381
  Solvation  Ediel_sol  =         0.00000000
  ---------------------------------------------------
  free energy    TOTEN  =       -36.83639005 eV

  energy without entropy =      -36.83639005  energy(sigma->0) =      -36.83639005


--------------------------------------------------------------------------------------------------------




--------------------------------------- Iteration      1(  17)  ---------------------------------------


    POTLOK:  cpu time    0.0654: real time    0.0657
    SETDIJ:  cpu time    0.0358: real time    0.0358
     EDDAV:  cpu time    1.5794: real time    1.5842
       DOS:  cpu time    0.0002: real time    0.0002
    CHARGE:  cpu time    0.1734: real time    0.1738
    MIXING:  cpu time    0.0036: real time    0.0036
    --------------------------------------------
      LOOP:  cpu time    1.8577: real time    1.8633

 eigenvalue-minimisations  :  1324
 total energy-change (2. order) :-0.1194480E-03  (-0.9527221E-06)
 number of electron      16.0000000 magnetization 
 augmentation part        0.3851496 magnetization 

 Broyden mixing:
  rms(total) = 0.90353E-03    rms(broyden)= 0.90353E-03
  rms(prec ) = 0.91696E-03
  weight for this iteration     100.00

 eigenvalues of (default mixing * dielectric matrix)
  average eigenvalue GAMMA=   4.3394
 24.8002  7.4151  4.4608  2.8072  2.5694  2.3020  2.0584  1.5900  1.1039  1.0038
  1.0038  0.9578

 Free energy of the ion-electron system (eV)
  ---------------------------------------------------
  alpha Z        PSCENC =        12.54445055
  Ewald energy   TEWEN  =      3319.40988669
  -Hartree energ DENC   =     -3843.30696968
  -exchange      EXHF   =         0.00000000
  -V(xc)+E(xc)   XCENC  =        55.27922067
  PAW double counting   =      1699.42346102    -1702.14802140
  entropy T*S    EENTRO =        -0.00000000
  eigenvalues    EBANDS =      -166.65623115
  atomic energy  EATOM  =       588.61769381
  Solvation  Ediel_sol  =         0.00000000
  ---------------------------------------------------
  free energy    TOTEN  =       -36.83650950 eV

  energy without entropy =      -36.83650950  energy(sigma->0) =      -36.83650950


--------------------------------------------------------------------------------------------------------




--------------------------------------- Iteration      1(  18)  ---------------------------------------


    POTLOK:  cpu time    0.0661: real time    0.0663
    SETDIJ:  cpu time    0.0356: real time    0.0357
     EDDAV:  cpu time    1.5775: real time    1.5827
       DOS:  cpu time    0.0002: real time    0.0002
    CHARGE:  cpu time    0.1727: real time    0.1731
    MIXING:  cpu time    0.0038: real time    0.0038
    --------------------------------------------
      LOOP:  cpu time    1.8559: real time    1.8618

 eigenvalue-minimisations  :  1332
 total energy-change (2. order) :-0.2926399E-04  (-0.1556774E-06)
 number of electron      16.0000000 magnetization 
 augmentation part        0.3851387 magnetization 

 Broyden mixing:
  rms(total) = 0.18264E-03    rms(broyden)= 0.18264E-03
  rms(prec ) = 0.19101E-03
  weight for this iteration     100.00

 eigenvalues of (default mixing * dielectric matrix)
  average eigenvalue GAMMA=   4.1213
 24.9087  7.4634  4.4134  2.7403  2.7403  2.4345  1.9977  1.5714  1.2307  1.0072
  1.0072  1.0313  1.0313

 Free energy of the ion-electron system (eV)
  ---------------------------------------------------
  alpha Z        PSCENC =        12.54445055
  Ewald energy   TEWEN  =      3319.40988669
  -Hartree energ DENC   =     -3843.32804865
  -exchange      EXHF   =         0.00000000
  -V(xc)+E(xc)   XCENC  =        55.27950295
  PAW double counting   =      1698.30747104    -1701.03210973
  entropy T*S    EENTRO =        -0.00000000
  eigenvalues    EBANDS =      -166.63538541
  atomic energy  EATOM  =       588.61769381
  Solvation  Ediel_sol  =         0.00000000
  ---------------------------------------------------
  free energy    TOTEN  =       -36.83653876 eV

  energy without entropy =      -36.83653876  energy(sigma->0) =      -36.83653876


--------------------------------------------------------------------------------------------------------




--------------------------------------- Iteration      1(  19)  ---------------------------------------


    POTLOK:  cpu time    0.0662: real time    0.0664
    SETDIJ:  cpu time    0.0352: real time    0.0353
     EDDAV:  cpu time    1.6379: real time    1.6431
       DOS:  cpu time    0.0002: real time    0.0002
    CHARGE:  cpu time    0.1759: real time    0.1763
    MIXING:  cpu time    0.0038: real time    0.0038
    --------------------------------------------
      LOOP:  cpu time    1.9191: real time    1.9251

 eigenvalue-minimisations  :  1404
 total energy-change (2. order) :-0.2892594E-05  (-0.2255063E-07)
 number of electron      16.0000000 magnetization 
 augmentation part        0.3851430 magnetization 

 Broyden mixing:
  rms(total) = 0.76535E-04    rms(broyden)= 0.76533E-04
  rms(prec ) = 0.79054E-04
  weight for this iteration     100.00

 eigenvalues of (default mixing * dielectric matrix)
  average eigenvalue GAMMA=   4.0334
 25.0614  7.5063  4.5055  3.3127  2.7536  2.4137  2.2244  2.0192  1.5949  1.0812
  1.0080  1.0080  0.9896  0.9896

 Free energy of the ion-electron system (eV)
  ---------------------------------------------------
  alpha Z        PSCENC =        12.54445055
  Ewald energy   TEWEN  =      3319.40988669
  -Hartree energ DENC   =     -3843.30850757
  -exchange      EXHF   =         0.00000000
  -V(xc)+E(xc)   XCENC  =        55.27912143
  PAW double counting   =      1698.39175385    -1701.11624887
  entropy T*S    EENTRO =        -0.00000000
  eigenvalues    EBANDS =      -166.65469154
  atomic energy  EATOM  =       588.61769381
  Solvation  Ediel_sol  =         0.00000000
  ---------------------------------------------------
  free energy    TOTEN  =       -36.83654166 eV

  energy without entropy =      -36.83654166  energy(sigma->0) =      -36.83654166


--------------------------------------------------------------------------------------------------------




--------------------------------------- Iteration      1(  20)  ---------------------------------------


    POTLOK:  cpu time    0.0672: real time    0.0675
    SETDIJ:  cpu time    0.0370: real time    0.0371
     EDDAV:  cpu time    1.6186: real time    1.6235
       DOS:  cpu time    0.0002: real time    0.0002
    CHARGE:  cpu time    0.1760: real time    0.1764
    MIXING:  cpu time    0.0040: real time    0.0040
    --------------------------------------------
      LOOP:  cpu time    1.9030: real time    1.9086

 eigenvalue-minimisations  :  1344
 total energy-change (2. order) :-0.1831023E-05  (-0.6313791E-08)
 number of electron      16.0000000 magnetization 
 augmentation part        0.3851427 magnetization 

 Broyden mixing:
  rms(total) = 0.11477E-04    rms(broyden)= 0.11465E-04
  rms(prec ) = 0.12095E-04
  weight for this iteration     100.00

 eigenvalues of (default mixing * dielectric matrix)
  average eigenvalue GAMMA=   3.8484
 25.1143  7.4842  4.5595  3.3128  2.7564  2.5578  2.2137  2.0162  1.5956  1.0858
  1.0045  1.0045  0.9600  1.0306  1.0306

 Free energy of the ion-electron system (eV)
  ---------------------------------------------------
  alpha Z        PSCENC =        12.54445055
  Ewald energy   TEWEN  =      3319.40988669
  -Hartree energ DENC   =     -3843.30939689
  -exchange      EXHF   =         0.00000000
  -V(xc)+E(xc)   XCENC  =        55.27913584
  PAW double counting   =      1698.48092092    -1701.20544492
  entropy T*S    EENTRO =        -0.00000000
  eigenvalues    EBANDS =      -166.65378948
  atomic energy  EATOM  =       588.61769381
  Solvation  Ediel_sol  =         0.00000000
  ---------------------------------------------------
  free energy    TOTEN  =       -36.83654349 eV

  energy without entropy =      -36.83654349  energy(sigma->0) =      -36.83654349


--------------------------------------------------------------------------------------------------------




--------------------------------------- Iteration      1(  21)  ---------------------------------------


    POTLOK:  cpu time    0.0678: real time    0.0680
    SETDIJ:  cpu time    0.0381: real time    0.0382
     EDDAV:  cpu time    1.3606: real time    1.3650
       DOS:  cpu time    0.0002: real time    0.0002
    CHARGE:  cpu time    0.1830: real time    0.1834
    MIXING:  cpu time    0.0043: real time    0.0043
    --------------------------------------------
      LOOP:  cpu time    1.6540: real time    1.6592

 eigenvalue-minimisations  :  1016
 total energy-change (2. order) :-0.1019091E-06  (-0.1982926E-09)
 number of electron      16.0000000 magnetization 
 augmentation part        0.3851426 magnetization 

 Broyden mixing:
  rms(total) = 0.40087E-05    rms(broyden)= 0.39740E-05
  rms(prec ) = 0.43578E-05
  weight for this iteration     100.00

 eigenvalues of (default mixing * dielectric matrix)
  average eigenvalue GAMMA=   3.7957
 25.0979  7.4921  4.5511  3.5650  2.7937  2.7937  2.4078  2.4078  1.9909  1.5944
  1.0628  1.0628  0.9961  0.9961  0.9959  0.9232

 Free energy of the ion-electron system (eV)
  ---------------------------------------------------
  alpha Z        PSCENC =        12.54445055
  Ewald energy   TEWEN  =      3319.40988669
  -Hartree energ DENC   =     -3843.30859762
  -exchange      EXHF   =         0.00000000
  -V(xc)+E(xc)   XCENC  =        55.27913674
  PAW double counting   =      1698.46072199    -1701.18525647
  entropy T*S    EENTRO =        -0.00000000
  eigenvalues    EBANDS =      -166.65457927
  atomic energy  EATOM  =       588.61769381
  Solvation  Ediel_sol  =         0.00000000
  ---------------------------------------------------
  free energy    TOTEN  =       -36.83654359 eV

  energy without entropy =      -36.83654359  energy(sigma->0) =      -36.83654359


--------------------------------------------------------------------------------------------------------




--------------------------------------- Iteration      1(  22)  ---------------------------------------


    POTLOK:  cpu time    0.0701: real time    0.0704
    SETDIJ:  cpu time    0.0374: real time    0.0375
     EDDAV:  cpu time    1.2301: real time    1.2341
       DOS:  cpu time    0.0002: real time    0.0002
    CHARGE:  cpu time    0.1833: real time    0.1837
    MIXING:  cpu time    0.0045: real time    0.0045
    --------------------------------------------
      LOOP:  cpu time    1.5256: real time    1.5303

 eigenvalue-minimisations  :   860
 total energy-change (2. order) :-0.6099413E-07  (-0.2066667E-09)
 number of electron      16.0000000 magnetization 
 augmentation part        0.3851426 magnetization 

 Broyden mixing:
  rms(total) = 0.14934E-05    rms(broyden)= 0.13977E-05
  rms(prec ) = 0.17936E-05
  weight for this iteration     100.00

 eigenvalues of (default mixing * dielectric matrix)
  average eigenvalue GAMMA=   3.6333
 25.0985  7.4875  4.5912  3.3743  3.1220  2.6030  2.5345  2.2614  2.0032  1.5984
  1.0822  1.0199  1.0199  1.0057  1.0057  0.9795  0.9795

 Free energy of the ion-electron system (eV)
  ---------------------------------------------------
  alpha Z        PSCENC =        12.54445055
  Ewald energy   TEWEN  =      3319.40988669
  -Hartree energ DENC   =     -3843.30878674
  -exchange      EXHF   =         0.00000000
  -V(xc)+E(xc)   XCENC  =        55.27913842
  PAW double counting   =      1698.46304338    -1701.18757671
  entropy T*S    EENTRO =        -0.00000000
  eigenvalues    EBANDS =      -166.65439305
  atomic energy  EATOM  =       588.61769381
  Solvation  Ediel_sol  =         0.00000000
  ---------------------------------------------------
  free energy    TOTEN  =       -36.83654365 eV

  energy without entropy =      -36.83654365  energy(sigma->0) =      -36.83654365


--------------------------------------------------------------------------------------------------------




--------------------------------------- Iteration      1(  23)  ---------------------------------------


    POTLOK:  cpu time    0.0709: real time    0.0736
    SETDIJ:  cpu time    0.0377: real time    0.0378
     EDDAV:  cpu time    1.2946: real time    1.2985
       DOS:  cpu time    0.0002: real time    0.0002
    --------------------------------------------
      LOOP:  cpu time    1.4033: real time    1.4101

 eigenvalue-minimisations  :   988
 total energy-change (2. order) : 0.1593435E-08  (-0.3307681E-10)
 number of electron      16.0000000 magnetization 
 augmentation part        0.3851426 magnetization 

 Free energy of the ion-electron system (eV)
  ---------------------------------------------------
  alpha Z        PSCENC =        12.54445055
  Ewald energy   TEWEN  =      3319.40988669
  -Hartree energ DENC   =     -3843.30916402
  -exchange      EXHF   =         0.00000000
  -V(xc)+E(xc)   XCENC  =        55.27914375
  PAW double counting   =      1698.46374220    -1701.18827657
  entropy T*S    EENTRO =        -0.00000000
  eigenvalues    EBANDS =      -166.65402005
  atomic energy  EATOM  =       588.61769381
  Solvation  Ediel_sol  =         0.00000000
  ---------------------------------------------------
  free energy    TOTEN  =       -36.83654365 eV

  energy without entropy =      -36.83654365  energy(sigma->0) =      -36.83654365


--------------------------------------------------------------------------------------------------------




 average (electrostatic) potential at core
  the test charge radii are     0.6991
  (the norm of the test charge is              1.0000)
       1 -56.6630       2 -56.6630       3 -56.6630       4 -56.6630
 
 
 
 E-fermi :  -1.5350     XC(G=0):  -3.8592     alpha+bet : -3.8262


 k-point     1 :       0.0000    0.0000    0.0000
  band No.  band energies     occupation 
      1     -20.9383      2.00000
      2     -20.7209      2.00000
      3      -9.5249      2.00000
      4      -8.2912      2.00000
      5      -4.2863      2.00000
      6      -4.2862      2.00000
      7      -4.2567      2.00000
      8      -4.2566      2.00000
      9       2.2091      0.00000
     10       2.5845      0.00000
     11       3.3483      0.00000
     12       4.4824      0.00000

 k-point     2 :       0.0476    0.0000    0.0000
  band No.  band energies     occupation 
      1     -20.8842      2.00000
      2     -20.6673      2.00000
      3      -9.4596      2.00000
      4      -8.2280      2.00000
      5      -4.5089      2.00000
      6      -4.4762      2.00000
      7      -4.4036      2.00000
      8      -4.3732      2.00000
      9       2.2817      0.00000
     10       2.6579      0.00000
     11       3.4226      0.00000
     12       4.5562      0.00000

 k-point     3 :       0.0952    0.0000    0.0000
  band No.  band energies     occupation 
      1     -20.7218      2.00000
      2     -20.5068      2.00000
      3      -9.2643      2.00000
      4      -8.0389      2.00000
      5      -5.1334      2.00000
      6      -5.0926      2.00000
      7      -4.7245      2.00000
      8      -4.6922      2.00000
      9       2.4994      0.00000
     10       2.8779      0.00000
     11       3.6455      0.00000
     12       4.7773      0.00000

 k-point     4 :       0.1429    0.0000    0.0000
  band No.  band energies     occupation 
      1     -20.4517      2.00000
      2     -20.2400      2.00000
      3      -8.9405      2.00000
      4      -7.7257      2.00000
      5      -6.0592      2.00000
      6      -6.0070      2.00000
      7      -5.1776      2.00000
      8      -5.1429      2.00000
      9       2.8622      0.00000
     10       3.2442      0.00000
     11       4.0171      0.00000
     12       5.1455      0.00000

 k-point     5 :       0.1905    0.0000    0.0000
  band No.  band energies     occupation 
      1     -20.0751      2.00000
      2     -19.8678      2.00000
      3      -8.4913      2.00000
      4      -7.2924      2.00000
      5      -7.1790      2.00000
      6      -7.1136      2.00000
      7      -5.6877      2.00000
      8      -5.6507      2.00000
      9       3.3694      0.00000
     10       3.7557      0.00000
     11       4.5370      0.00000
     12       5.6594      0.00000

 k-point     6 :       0.2381    0.0000    0.0000
  band No.  band energies     occupation 
      1     -19.5934      2.00000
      2     -19.3917      2.00000
      3      -8.4067      2.00000
      4      -8.3280      2.00000
      5      -7.9209      2.00000
      6      -6.7428      2.00000
      7      -6.1959      2.00000
      8      -6.1569      2.00000
      9       4.0194      0.00000
     10       4.4085      0.00000
     11       5.2044      0.00000
     12       6.0128      0.00000

 k-point     7 :       0.2857    0.0000    0.0000
  band No.  band energies     occupation 
      1     -19.0090      2.00000
      2     -18.8139      2.00000
      3      -9.6779      2.00000
      4      -9.5860      2.00000
      5      -7.2394      2.00000
      6      -6.6612      2.00000
      7      -6.6206      2.00000
      8      -6.0886      2.00000
      9       4.6414      0.00000
     10       4.8248      0.00000
     11       5.1107      0.00000
     12       5.5028      0.00000

 k-point     8 :       0.3333    0.0000    0.0000
  band No.  band energies     occupation 
      1     -18.3253      2.00000
      2     -18.1379      2.00000
      3     -10.9488      2.00000
      4     -10.8438      2.00000
      5      -7.0568      2.00000
      6      -7.0150      2.00000
      7      -6.4615      2.00000
      8      -5.3464      2.00000
      9       3.2669      0.00000
     10       4.0868      0.00000
     11       5.7265      0.00000
     12       6.2316      0.00000

 k-point     9 :       0.3810    0.0000    0.0000
  band No.  band energies     occupation 
      1     -17.5487      2.00000
      2     -17.3696      2.00000
      3     -12.1856      2.00000
      4     -12.0682      2.00000
      5      -7.3655      2.00000
      6      -7.3229      2.00000
      7      -5.6199      2.00000
      8      -4.5514      2.00000
      9       1.9333      0.00000
     10       2.8590      0.00000
     11       6.2029      0.00000
     12       6.4982      0.00000

 k-point    10 :       0.4286    0.0000    0.0000
  band No.  band energies     occupation 
      1     -16.6946      2.00000
      2     -16.5238      2.00000
      3     -13.3552      2.00000
      4     -13.2266      2.00000
      5      -7.5765      2.00000
      6      -7.5333      2.00000
      7      -4.7935      2.00000
      8      -3.7844      2.00000
      9       0.7626      0.00000
     10       1.7853      0.00000
     11       6.1176      0.00000
     12       6.3981      0.00000

 k-point    11 :       0.4762    0.0000    0.0000
  band No.  band energies     occupation 
      1     -15.8466      2.00000
      2     -15.6813      2.00000
      3     -14.3633      2.00000
      4     -14.2279      2.00000
      5      -7.6834      2.00000
      6      -7.6399      2.00000
      7      -4.1930      2.00000
      8      -3.2434      2.00000
      9      -0.0148      0.00000
     10       1.0861      0.00000
     11       6.0643      0.00000
     12       6.3454      0.00000

 k-point    12 :       0.0952    0.0476    0.0000
  band No.  band energies     occupation 
      1     -20.7759      2.00000
      2     -20.5603      2.00000
      3      -9.3293      2.00000
      4      -8.1018      2.00000
      5      -4.9168      2.00000
      6      -4.8790      2.00000
      7      -4.6384      2.00000
      8      -4.6063      2.00000
      9       2.4268      0.00000
     10       2.8046      0.00000
     11       3.5712      0.00000
     12       4.7036      0.00000

 k-point    13 :       0.1429    0.0476    0.0000
  band No.  band energies     occupation 
      1     -20.5596      2.00000
      2     -20.3467      2.00000
      3      -9.0698      2.00000
      4      -7.8507      2.00000
      5      -5.6588      2.00000
      6      -5.6119      2.00000
      7      -5.0593      2.00000
      8      -5.0241      2.00000
      9       2.7172      0.00000
     10       3.0978      0.00000
     11       3.8685      0.00000
     12       4.9984      0.00000

 k-point    14 :       0.1905    0.0476    0.0000
[...]
      7      -6.2143      2.00000
      8      -6.1688      2.00000
      9       3.5877      0.00000
     10       3.9754      0.00000
     11       4.7605      0.00000
     12       5.8814      0.00000

 k-point    24 :       0.2857    0.0952    0.0000
  band No.  band energies     occupation 
      1     -19.4337      2.00000
      2     -19.2339      2.00000
      3      -8.4611      2.00000
      4      -8.3833      2.00000
      5      -7.7320      2.00000
      6      -6.7934      2.00000
      7      -6.7451      2.00000
      8      -6.5597      2.00000
      9       4.2384      0.00000
     10       4.6289      0.00000
     11       5.4289      0.00000
     12       5.7491      0.00000

 k-point    25 :       0.3333    0.0952    0.0000
  band No.  band energies     occupation 
      1     -18.8509      2.00000
      2     -18.6577      2.00000
      3      -9.6561      2.00000
      4      -9.5654      2.00000
      5      -7.3017      2.00000
      6      -7.2491      2.00000
      7      -7.0519      2.00000
      8      -5.9087      2.00000
      9       4.4636      0.00000
     10       5.0333      0.00000
     11       5.1244      0.00000
     12       5.4851      0.00000

 k-point    26 :       0.3810    0.0952    0.0000
  band No.  band energies     occupation 
      1     -18.1695      2.00000
      2     -17.9839      2.00000
      3     -10.8791      2.00000
      4     -10.7755      2.00000
      5      -7.7204      2.00000
      6      -7.6664      2.00000
      7      -6.2769      2.00000
      8      -5.1688      2.00000
      9       3.1471      0.00000
     10       3.9392      0.00000
     11       5.9594      0.00000
     12       6.3866      0.00000

 k-point    27 :       0.4286    0.0952    0.0000
  band No.  band energies     occupation 
      1     -17.3960      2.00000
      2     -17.2187      2.00000
      3     -12.0854      2.00000
      4     -11.9694      2.00000
      5      -8.0419      2.00000
      6      -7.9866      2.00000
      7      -5.4362      2.00000
      8      -4.3740      2.00000
      9       1.8644      0.00000
     10       2.7521      0.00000
     11       6.9486      0.00000
     12       7.4031      0.00000

 k-point    28 :       0.4762    0.0952    0.0000
  band No.  band energies     occupation 
      1     -16.5464      2.00000
      2     -16.3774      2.00000
      3     -13.2349      2.00000
      4     -13.1078      2.00000
      5      -8.2595      2.00000
      6      -8.2033      2.00000
      7      -4.6064      2.00000
      8      -3.6025      2.00000
      9       0.7229      0.00000
     10       1.7031      0.00000
     11       7.0346      0.00000
     12       7.3357      0.00000

 k-point    29 :      -0.4762    0.0952    0.0000
  band No.  band energies     occupation 
      1     -15.7048      2.00000
      2     -15.5415      2.00000
      3     -14.2297      2.00000
      4     -14.0955      2.00000
      5      -8.3692      2.00000
      6      -8.3126      2.00000
      7      -3.9968      2.00000
      8      -3.0514      2.00000
      9      -0.0477      0.00000
     10       1.0087      0.00000
     11       6.9845      0.00000
     12       7.2831      0.00000

 k-point    30 :       0.2857    0.1429    0.0000
  band No.  band energies     occupation 
      1     -19.4871      2.00000
      2     -19.2866      2.00000
      3      -8.1740      2.00000
      4      -8.1003      2.00000
      5      -7.7944      2.00000
      6      -6.9575      2.00000
      7      -6.9054      2.00000
      8      -6.6192      2.00000
      9       4.1671      0.00000
     10       4.5585      0.00000
     11       5.3553      0.00000
     12       5.9215      0.00000

 k-point    31 :       0.3333    0.1429    0.0000
  band No.  band energies     occupation 
      1     -18.9567      2.00000
      2     -18.7623      2.00000
      3      -9.1464      2.00000
      4      -9.0622      2.00000
      5      -7.6388      2.00000
      6      -7.5788      2.00000
      7      -7.1718      2.00000
      8      -6.0229      2.00000
      9       4.7825      0.00000
     10       4.8905      0.00000
     11       5.2722      0.00000
     12       5.4549      0.00000

 k-point    32 :       0.3810    0.1429    0.0000
  band No.  band energies     occupation 
      1     -18.3265      2.00000
      2     -18.1392      2.00000
      3     -10.2448      2.00000
      4     -10.1486      2.00000
      5      -8.1834      2.00000
      6      -8.1199      2.00000
      7      -6.4459      2.00000
      8      -5.3281      2.00000
      9       3.5743      0.00000
     10       4.3014      0.00000
     11       5.7504      0.00000
     12       6.1560      0.00000

 k-point    33 :       0.4286    0.1429    0.0000
  band No.  band energies     occupation 
      1     -17.6013      2.00000
      2     -17.4219      2.00000
      3     -11.3971      2.00000
      4     -11.2886      2.00000
      5      -8.5959      2.00000
      6      -8.5299      2.00000
      7      -5.6350      2.00000
      8      -4.5572      2.00000
      9       2.3452      0.00000
     10       3.1525      0.00000
     11       6.7448      0.00000
     12       7.1593      0.00000

 k-point    34 :       0.4762    0.1429    0.0000
  band No.  band energies     occupation 
      1     -16.7913      2.00000
      2     -16.6204      2.00000
      3     -12.5411      2.00000
      4     -12.4208      2.00000
      5      -8.8865      2.00000
      6      -8.8189      2.00000
      7      -4.7844      2.00000
      8      -3.7574      2.00000
      9       1.1712      0.00000
     10       2.0624      0.00000
     11       7.8218      0.00000
     12       8.1730      0.00000

 k-point    35 :      -0.4762    0.1429    0.0000
  band No.  band energies     occupation 
      1     -15.9287      2.00000
      2     -15.7656      2.00000
      3     -13.6142      2.00000
      4     -13.4839      2.00000
      5      -9.0599      2.00000
      6      -8.9915      2.00000
      7      -4.0149      2.00000
      8      -3.0485      2.00000
      9       0.1972      0.00000
     10       1.1709      0.00000
     11       8.0053      0.00000
     12       8.3459      0.00000

 k-point    36 :      -0.4286    0.1429    0.0000
  band No.  band energies     occupation 
      1     -15.3199      2.00000
      2     -15.1587      2.00000
      3     -14.2947      2.00000
      4     -14.1618      2.00000
      5      -9.1177      2.00000
      6      -9.0489      2.00000
      7      -3.6542      2.00000
      8      -2.7253      2.00000
      9      -0.2336      0.00000
     10       0.7854      0.00000
     11       7.9813      0.00000
     12       8.3188      0.00000

 k-point    37 :       0.3810    0.1905    0.0000
  band No.  band energies     occupation 
      1     -18.3789      2.00000
      2     -18.1911      2.00000
      3      -9.9130      2.00000
      4      -9.8208      2.00000
      5      -8.4655      2.00000
      6      -8.3972      2.00000
      7      -6.5027      2.00000
      8      -5.3816      2.00000
      9       3.7355      0.00000
     10       4.4361      0.00000
     11       5.6793      0.00000
     12       6.0758      0.00000

 k-point    38 :       0.4286    0.1905    0.0000
  band No.  band energies     occupation 
      1     -17.7046      2.00000
      2     -17.5242      2.00000
      3     -10.8285      2.00000
      4     -10.7262      2.00000
      5      -9.1168      2.00000
      6      -9.0425      2.00000
      7      -5.7366      2.00000
      8      -4.6510      2.00000
      9       2.6338      0.00000
     10       3.3856      0.00000
     11       6.6059      0.00000
     12       7.0023      0.00000

 k-point    39 :       0.4762    0.1905    0.0000
  band No.  band energies     occupation 
      1     -16.9412      2.00000
      2     -16.7690      2.00000
      3     -11.8605      2.00000
      4     -11.7471      2.00000
      5      -9.5586      2.00000
      6      -9.4807      2.00000
      7      -4.9009      2.00000
      8      -3.8595      2.00000
      9       1.5222      0.00000
     10       2.3357      0.00000
     11       7.6593      0.00000
     12       8.0528      0.00000

 k-point    40 :      -0.4762    0.1905    0.0000
  band No.  band energies     occupation 
      1     -16.1057      2.00000
      2     -15.9420      2.00000
      3     -12.9149      2.00000
      4     -12.7908      2.00000
      5      -9.8310      2.00000
      6      -9.7510      2.00000
      7      -4.0606      2.00000
      8      -3.0731      2.00000
      9       0.4837      0.00000
     10       1.3669      0.00000
     11       8.7918      0.00000
     12       9.2670      0.00000

 k-point    41 :      -0.4286    0.1905    0.0000
  band No.  band energies     occupation 
      1     -15.2821      2.00000
      2     -15.1247      2.00000
      3     -13.8580      2.00000
      4     -13.7264      2.00000
      5      -9.9620      2.00000
      6      -9.8811      2.00000
      7      -3.4144      2.00000
      8      -2.4820      2.00000
      9      -0.2663      0.00000
     10       0.6812      0.00000
     11       9.1011      0.00000
     12       9.5918      0.00000

 k-point    42 :       0.4762    0.2381    0.0000
  band No.  band energies     occupation 
      1     -16.9915      2.00000
      2     -16.8189      2.00000
      3     -11.4876      2.00000
      4     -11.3777      2.00000
      5      -9.9340      2.00000
      6      -9.8515      2.00000
      7      -4.9413      2.00000
      8      -3.8950      2.00000
      9       1.6574      0.00000
     10       2.4387      0.00000
     11       7.5900      0.00000
     12       7.9712      0.00000

 k-point    43 :      -0.4762    0.2381    0.0000
  band No.  band energies     occupation 
      1     -16.1988      2.00000
      2     -16.0346      2.00000
      3     -12.3070      2.00000
      4     -12.1879      2.00000
      5     -10.4847      2.00000
      6     -10.3970      2.00000
      7      -4.0938      2.00000
      8      -3.0942      2.00000
      9       0.6766      0.00000
     10       1.4984      0.00000
     11       8.6723      0.00000
     12       9.0691      0.00000

 k-point    44 :      -0.4286    0.2381    0.0000
  band No.  band energies     occupation 
      1     -15.3592      2.00000
      2     -15.2032      2.00000
      3     -13.2180      2.00000
      4     -13.0899      2.00000
      5     -10.7714      2.00000
      6     -10.6809      2.00000
      7      -3.2870      2.00000
      8      -2.3403      2.00000
      9      -0.2136      0.00000
     10       0.6592      0.00000
     11       8.9675      0.00000
     12       9.8902      0.00000

 k-point    45 :      -0.3810    0.2381    0.0000
  band No.  band energies     occupation 
      1     -14.7640      2.00000
      2     -14.6113      2.00000
      3     -13.8467      2.00000
      4     -13.7151      2.00000
      5     -10.8590      2.00000
      6     -10.7677      2.00000
      7      -2.8666      2.00000
      8      -1.9556      2.00000
      9      -0.6625      0.00000
     10       0.2455      0.00000
     11       8.8770      0.00000
     12      10.4459      0.00000

 k-point    46 :      -0.4286    0.2857    0.0000
  band No.  band energies     occupation 
      1     -15.3938      2.00000
      2     -15.2379      2.00000
      3     -12.8375      2.00000
      4     -12.7111      2.00000
      5     -11.2034      2.00000
      6     -11.1095      2.00000
      7      -3.2493      2.00000
      8      -2.2953      2.00000
      9      -0.1789      0.00000
     10       0.6614      0.00000
     11       8.7688      0.00000
     12       9.8285      0.00000

 k-point    47 :      -0.3810    0.2857    0.0000
  band No.  band energies     occupation 
      1     -14.5980      2.00000
      2     -14.4496      2.00000
      3     -13.5054      2.00000
      4     -13.3720      2.00000
      5     -11.5600      2.00000
      6     -11.4631      2.00000
      7      -2.4907      2.00000
      8      -1.5813      2.00000
      9      -0.9388      0.00000
     10      -0.0685      0.00000
     11       8.5061      0.00000
     12      10.4093      0.00000

 k-point    48 :      -0.3333    0.3333    0.0000
  band No.  band energies     occupation 
      1     -13.9342      2.00000
      2     -13.9342      2.00000
      3     -13.7933      2.00000
      4     -13.7932      2.00000
      5     -11.9026      2.00000
      6     -11.8043      2.00000
      7      -1.7005      2.00000
      8      -1.7005      2.00000
      9      -0.8182      0.00000
     10      -0.8181      0.00000
     11       8.3348      0.00000
     12      10.4300      0.00000


--------------------------------------------------------------------------------------------------------


 soft charge-density along one line, spin component           1
         0         1         2         3         4         5         6         7         8         9
 total charge-density along one line
 
 pseudopotential strength for first ion, spin component:           1
 10.125  13.463  -0.000   0.000   0.000   0.000  -0.000  -0.000
 13.463  17.900  -0.000   0.000   0.000   0.000  -0.000  -0.000
 -0.000  -0.000  -4.266  -0.000  -0.000   8.345   0.000   0.000
  0.000   0.000  -0.000  -4.259   0.000   0.000   8.335  -0.000
  0.000   0.000  -0.000   0.000  -4.266   0.000  -0.000   8.345
  0.000   0.000   8.345   0.000   0.000 -18.455  -0.000  -0.000
 -0.000  -0.000   0.000   8.335  -0.000  -0.000 -18.445   0.000
 -0.000  -0.000   0.000  -0.000   8.345  -0.000   0.000 -18.455
 total augmentation occupancy for first ion, spin component:           1
  8.127  -3.609   0.000   0.003   0.000   0.000   0.001   0.000
 -3.609   1.661  -0.000  -0.000   0.000  -0.000  -0.000   0.000
 -0.000  -0.000   1.836   0.000   0.000   0.173   0.000   0.000
  0.003  -0.000  -0.000   1.203   0.000   0.000   0.073   0.000
  0.000   0.000   0.000   0.000   1.836   0.000  -0.000   0.173
  0.000  -0.000   0.173   0.000   0.000   0.018  -0.000   0.000
  0.001  -0.000  -0.000   0.073  -0.000  -0.000   0.005   0.000
 -0.000   0.000   0.000   0.000   0.173   0.000   0.000   0.018


------------------------ aborting loop because EDIFF is reached ----------------------------------------


    CHARGE:  cpu time    0.1721: real time    0.1726
    FORLOC:  cpu time    0.0050: real time    0.0050
    FORNL :  cpu time    0.3411: real time    0.3419
    STRESS:  cpu time    1.3406: real time    1.3439
    FORCOR:  cpu time    0.0698: real time    0.0700
    FORHAR:  cpu time    0.0189: real time    0.0190
    MIXING:  cpu time    0.0043: real time    0.0043
    OFIELD:  cpu time    0.0000: real time    0.0000

  FORCE on cell =-STRESS in cart. coord.  units (eV):
  Direction    XX          YY          ZZ          XY          YZ          ZX
  --------------------------------------------------------------------------------------
  Alpha Z    12.54445    12.54445    12.54445
  Ewald    3858.34014  3858.33890 -4397.26949    -0.00000    -0.00000     0.00000
  Hartree  3820.60879  3820.60878 -3797.90846    -0.00000    -0.00000    -0.00000
  E(xc)     -59.61293   -59.61293   -61.70512    -0.00000     0.00000     0.00000
  Local   -7856.35428 -7856.35367  7983.60768    -0.00000    -0.00000     0.00000
  n-local   -14.82061   -13.74465   -13.10525     0.71287    -0.00000    -0.00000
  augment    -1.57389    -1.57389    -1.44579     0.00000    -0.00000     0.00000
  Kinetic   245.10178   236.90151   276.34233    -6.60585     0.00000     0.00000
  Fock        0.00000     0.00000     0.00000     0.00000     0.00000     0.00000
  -------------------------------------------------------------------------------------
  Total       0.67097     0.67097     1.06036     0.00000     0.00000    -0.00000
  in kB      10.26025    10.26024    16.21450     0.00000     0.00000    -0.00000
  external pressure =       12.24 kB  Pullay stress =        0.00 kB


 VOLUME and BASIS-vectors are now :
 -----------------------------------------------------------------------------
  energy-cutoff  :      800.00
  volume of cell :      104.78
      direct lattice vectors                 reciprocal lattice vectors
     2.130000000 -1.229756000  0.000000000     0.234741784 -0.406584721  0.000000000
     2.130000000  1.229756000  0.000000000     0.234741784  0.406584721  0.000000000
     0.000000000  0.000000000 20.000000000     0.000000000  0.000000000  0.050000000

  length of vectors
     2.459512110  2.459512110 20.000000000     0.469483589  0.469483589  0.050000000


 FORCES acting on ions
    electron-ion (+dipol)            ewald-force                    non-local-force                 convergence-correction
 -----------------------------------------------------------------------------------------------
   -.879E-05 -.408E-12 0.376E+03   -.241E-03 0.720E-14 -.376E+03   -.136E-15 0.751E-17 -.995E-01   -.243E-10 -.309E-14 0.604E-06
   0.262E-03 0.436E-12 0.376E+03   0.241E-03 -.414E-14 -.376E+03   0.588E-17 -.304E-16 -.995E-01   0.400E-10 -.625E-15 0.604E-06
   -.881E-05 -.754E-12 -.376E+03   -.241E-03 0.642E-14 0.376E+03   -.779E-16 0.504E-16 0.995E-01   -.245E-10 0.194E-14 -.604E-06
   0.262E-03 0.113E-11 -.376E+03   0.241E-03 -.492E-14 0.376E+03   0.865E-16 0.825E-16 0.995E-01   0.390E-10 0.106E-14 -.604E-06
 -----------------------------------------------------------------------------------------------
   0.507E-03 0.409E-12 -.128E-03   0.858E-14 0.456E-14 0.000E+00   -.122E-15 0.110E-15 -.278E-16   0.302E-10 -.718E-15 -.946E-10
 
 
 POSITION                                       TOTAL-FORCE (eV/Angst)
 -----------------------------------------------------------------------------------
      0.00000      0.00000      0.00000        -0.000000      0.000000     -0.172728
      1.42000      0.00000      0.00000         0.000000      0.000000     -0.172728
      0.00000      0.00000      3.20000        -0.000000     -0.000000      0.172728
      1.42000      0.00000      3.20000         0.000000      0.000000      0.172728
 -----------------------------------------------------------------------------------
    total drift:                                0.000507      0.000000     -0.000128


--------------------------------------------------------------------------------------------------------



  FREE ENERGIE OF THE ION-ELECTRON SYSTEM (eV)
  ---------------------------------------------------
  free  energy   TOTEN  =       -36.83654365 eV

  energy  without entropy=      -36.83654365  energy(sigma->0) =      -36.83654365
 


--------------------------------------------------------------------------------------------------------


    POTLOK:  cpu time    0.1021: real time    0.1024


--------------------------------------------------------------------------------------------------------


     LOOP+:  cpu time   44.4763: real time   44.7907
    4ORBIT:  cpu time    0.0000: real time    0.0000

 total amount of memory used by VASP MPI-rank0   107376. kBytes
=======================================================================

   base      :      30000. kBytes
   nonl-proj :      16997. kBytes
   fftplans  :      32720. kBytes
   grid      :      15086. kBytes
   one-center:         12. kBytes
   wavefun   :      12561. kBytes
 
  
  
 General timing and accounting informations for this job:
 ========================================================
  
                  Total CPU time used (sec):       46.468
                            User time (sec):       45.604
                          System time (sec):        0.864
                         Elapsed time (sec):       47.176
  
                   Maximum memory used (kb):      171804.
                   Average memory used (kb):           0.
  
                          Minor page faults:       189768
                          Major page faults:            0
                 Voluntary context switches:         3825
