 vasp.5.4.4.18Apr17-6-g9f103f2a35 (build May 31 2018 21:15:54) complex          
  
 executed on          c7_intel_O1 date 2020.07.23  19:14:32
 running on    4 total cores
 distrk:  each k-point on    4 cores,    1 groups
 distr:  one band on NCORES_PER_BAND=   1 cores,    4 groups


--------------------------------------------------------------------------------------------------------


 INCAR:
 POTCAR:    PAW_PBE C 08Apr2002                   
 POTCAR:    PAW_PBE C 08Apr2002                   
   VRHFIN =C: s2p2                                                              
   LEXCH  = PE                                                                  
   EATOM  =   147.1560 eV,   10.8157 Ry                                         
                                                                                
   TITEL  = PAW_PBE C 08Apr2002                                                 
   LULTRA =        F    use ultrasoft PP ?                                      
   IUNSCR =        1    unscreen: 0-lin 1-nonlin 2-no                           
   RPACOR =    1.200    partial core radius                                     
   POMASS =   12.011; ZVAL   =    4.000    mass and valenz                      
   RCORE  =    1.500    outmost cutoff radius                                   
   RWIGS  =    1.630; RWIGS  =    0.863    wigner-seitz radius (au A)           
   ENMAX  =  400.000; ENMIN  =  300.000 eV                                      
   ICORE  =        2    local potential                                         
   LCOR   =        T    correct aug charges                                     
   LPAW   =        T    paw PP                                                  
   EAUG   =  644.873                                                            
   DEXC   =    0.000                                                            
   RMAX   =    1.529    core radius for proj-oper                               
   RAUG   =    1.300    factor for augmentation sphere                          
   RDEP   =    1.501    radius for radial grids                                 
   RDEPT  =    1.300    core radius for aug-charge                              
                                                                                
   Atomic configuration                                                         
    4 entries                                                                   
     n  l   j            E        occ.                                          
     1  0  0.50      -273.3789   2.0000                                         
     2  0  0.50       -13.7508   2.0000                                         
     2  1  0.50        -5.2854   2.0000                                         
     3  2  1.50        -5.4423   0.0000                                         
   Description                                                                  
     l       E           TYP  RCUT    TYP  RCUT                                 
     0    -13.7508458     23  1.200                                             
     0     -8.2022199     23  1.200                                             
     1     -5.2854383     23  1.500                                             
     1     34.0145650     23  1.500                                             
     2     -5.4423304      7  1.500                                             
  local pseudopotential read in
  partial core-charges read in
  partial kinetic energy density read in
  atomic valenz-charges read in
  non local Contribution for L=           0  read in
    real space projection operators read in
  non local Contribution for L=           0  read in
    real space projection operators read in
  non local Contribution for L=           1  read in
    real space projection operators read in
  non local Contribution for L=           1  read in
    real space projection operators read in
    PAW grid and wavefunctions read in
 
   number of l-projection  operators is LMAX  =           4
   number of lm-projection operators is LMMAX =           8
 
  PAW_PBE C 08Apr2002                   :
 energy of atom  1       EATOM= -147.1560
 kinetic energy error for atom=    0.0016 (will be added to EATOM!!)
 
 
 POSCAR: C2_bilayer                              
  positions in direct lattice
  No initial velocities read in
 exchange correlation table for  LEXCH =        8
   RHO(1)=    0.500       N(1)  =     2000
   RHO(2)=  100.500       N(2)  =     4000
 


--------------------------------------------------------------------------------------------------------


 ion  position               nearest neighbor table
   1  0.000  0.000  0.000-   2 1.42   2 1.42   2 1.42
   2  0.333  0.333  0.000-   1 1.42   1 1.42   1 1.42
   3  0.000  0.000  0.175-   4 1.42   4 1.42   4 1.42
   4  0.333  0.333  0.175-   3 1.42   3 1.42   3 1.42
 
  LATTYP: Found a hexagonal cell.
 ALAT       =     2.4595120000
 C/A-ratio  =     8.1316944174
  
  Lattice vectors:
  
 A1 = (   0.0000000000,  -2.4595120000,   0.0000000000)
 A2 = (  -2.1300000000,   1.2297560000,   0.0000000000)
 A3 = (   0.0000000000,   0.0000000000, -20.0000000000)


Analysis of symmetry for initial positions (statically):
=====================================================================
 Subroutine PRICEL returns:
 Original cell was already a primitive cell.
 

 Routine SETGRP: Setting up the symmetry group for a 
 hexagonal supercell.


 Subroutine GETGRP returns: Found 24 space group operations
 (whereof  6 operations were pure point group operations)
 out of a pool of 24 trial point group operations.


The static configuration has the point symmetry C_3v.
 The point group associated with its full space group is D_6h.


Analysis of symmetry for dynamics (positions and initial velocities):
=====================================================================
 Subroutine PRICEL returns:
 Original cell was already a primitive cell.
 

 Routine SETGRP: Setting up the symmetry group for a 
 hexagonal supercell.


 Subroutine GETGRP returns: Found 24 space group operations
 (whereof  6 operations were pure point group operations)
 out of a pool of 24 trial point group operations.


The dynamic configuration has the point symmetry C_3v.
 The point group associated with its full space group is D_6h.


 Subroutine INISYM returns: Found 24 space group operations
 (whereof  6 operations are pure point group operations),
 and found     1 'primitive' translations

 
 
 KPOINTS: k grid                                  

Automatic generation of k-mesh.
Space group operators:
 irot       det(A)        alpha          n_x          n_y          n_z        tau_x        tau_y        tau_z
    1     1.000000     0.000000     1.000000     0.000000     0.000000     0.000000     0.000000     0.000000
    2     1.000000   120.000000     0.000000     0.000000     1.000000     0.000000     0.000000     0.000000
    3     1.000000   120.000000     0.000000     0.000000    -1.000000     0.000000     0.000000     0.000000
    4    -1.000000   180.000000    -0.000000     1.000000     0.000000     0.000000     0.000000     0.000000
    5    -1.000000   180.000000     0.866025    -0.500000     0.000000     0.000000     0.000000     0.000000
    6    -1.000000   180.000000     0.866025     0.500000     0.000000     0.000000     0.000000     0.000000
    7    -1.000000     0.000000     1.000000     0.000000     0.000000     0.333333    -0.666667    -0.825000
    8     1.000000    60.000000     0.000000     0.000000     1.000000     0.333333    -0.666667     0.000000
    9    -1.000000    60.000000     0.000000     0.000000     1.000000    -0.000001    -0.000000    -0.825000
   10    -1.000000   120.000000     0.000000     0.000000     1.000000     0.333333    -0.666667    -0.825000
   11     1.000000   180.000000     0.000000     0.000000     1.000000     0.333333    -0.666667     0.000000
   12    -1.000000   180.000000     0.000000     0.000000     1.000000     0.000000     0.000000    -0.825000
   13    -1.000000   120.000000     0.000000     0.000000    -1.000000     0.333333    -0.666667    -0.825000
   14     1.000000    60.000000     0.000000     0.000000    -1.000000     0.333333    -0.666667     0.000000
   15    -1.000000    60.000000     0.000000     0.000000    -1.000000    -0.000000    -0.000001    -0.825000
   16     1.000000   180.000000    -0.000000     1.000000     0.000000     0.333333    -0.666667    -0.825000
   17     1.000000   180.000000     0.500000    -0.866025     0.000000    -0.000000    -0.000001    -0.825000
   18    -1.000000   180.000000     0.500000    -0.866025     0.000000     0.333333    -0.666667     0.000000
   19     1.000000   180.000000     0.866025    -0.500000     0.000000     0.333333    -0.666667    -0.825000
   20     1.000000   180.000000     1.000000     0.000000     0.000000     0.000000     0.000000    -0.825000
   21    -1.000000   180.000000     1.000000     0.000000     0.000000     0.333333    -0.666667     0.000000
   22     1.000000   180.000000     0.866025     0.500000     0.000000     0.333333    -0.666667    -0.825000
   23     1.000000   180.000000    -0.500000    -0.866025     0.000000    -0.000001    -0.000000    -0.825000
   24    -1.000000   180.000000    -0.500000    -0.866025     0.000000     0.333333    -0.666667     0.000000
 
 Subroutine IBZKPT returns following result:
 ===========================================
 
 Found     48 irreducible k-points:
 
 Following reciprocal coordinates:
            Coordinates               Weight
  0.000000  0.000000  0.000000      1.000000
  0.047619  0.000000  0.000000      6.000000
  0.095238  0.000000  0.000000      6.000000
  0.142857  0.000000  0.000000      6.000000
  0.190476  0.000000  0.000000      6.000000
  0.238095  0.000000  0.000000      6.000000
  0.285714  0.000000  0.000000      6.000000
  0.333333  0.000000  0.000000      6.000000
  0.380952  0.000000  0.000000      6.000000
  0.428571  0.000000  0.000000      6.000000
  0.476190  0.000000  0.000000      6.000000
  0.095238  0.047619  0.000000      6.000000
  0.142857  0.047619  0.000000     12.000000
  0.190476  0.047619  0.000000     12.000000
  0.238095  0.047619  0.000000     12.000000
  0.285714  0.047619  0.000000     12.000000
  0.333333  0.047619  0.000000     12.000000
  0.380952  0.047619  0.000000     12.000000
  0.428571  0.047619  0.000000     12.000000
  0.476190  0.047619  0.000000     12.000000
 -0.476190  0.047619  0.000000      6.000000
  0.190476  0.095238  0.000000      6.000000
  0.238095  0.095238  0.000000     12.000000
  0.285714  0.095238  0.000000     12.000000
  0.333333  0.095238  0.000000     12.000000
  0.380952  0.095238  0.000000     12.000000
  0.428571  0.095238  0.000000     12.000000
  0.476190  0.095238  0.000000     12.000000
 -0.476190  0.095238  0.000000     12.000000
  0.285714  0.142857  0.000000      6.000000
  0.333333  0.142857  0.000000     12.000000
  0.380952  0.142857  0.000000     12.000000
  0.428571  0.142857  0.000000     12.000000
  0.476190  0.142857  0.000000     12.000000
 -0.476190  0.142857  0.000000     12.000000
 -0.428571  0.142857  0.000000      6.000000
  0.380952  0.190476  0.000000      6.000000
  0.428571  0.190476  0.000000     12.000000
  0.476190  0.190476  0.000000     12.000000
 -0.476190  0.190476  0.000000     12.000000
 -0.428571  0.190476  0.000000     12.000000
  0.476190  0.238095  0.000000      6.000000
 -0.476190  0.238095  0.000000     12.000000
 -0.428571  0.238095  0.000000     12.000000
 -0.380952  0.238095  0.000000      6.000000
 -0.428571  0.285714  0.000000      6.000000
 -0.380952  0.285714  0.000000     12.000000
 -0.333333  0.333333  0.000000      2.000000
 
 Following cartesian coordinates:
            Coordinates               Weight
  0.000000  0.000000  0.000000      1.000000
  0.011178 -0.019361  0.000000      6.000000
  0.022356 -0.038722  0.000000      6.000000
  0.033535 -0.058084  0.000000      6.000000
  0.044713 -0.077445  0.000000      6.000000
  0.055891 -0.096806  0.000000      6.000000
  0.067069 -0.116167  0.000000      6.000000
  0.078247 -0.135528  0.000000      6.000000
  0.089425 -0.154889  0.000000      6.000000
  0.100604 -0.174251  0.000000      6.000000
  0.111782 -0.193612  0.000000      6.000000
  0.033535 -0.019361  0.000000      6.000000
  0.044713 -0.038722  0.000000     12.000000
  0.055891 -0.058084  0.000000     12.000000
  0.067069 -0.077445  0.000000     12.000000
  0.078247 -0.096806  0.000000     12.000000
  0.089425 -0.116167  0.000000     12.000000
  0.100604 -0.135528  0.000000     12.000000
  0.111782 -0.154889  0.000000     12.000000
  0.122960 -0.174251  0.000000     12.000000
 -0.100604  0.212973  0.000000      6.000000
  0.067069 -0.038722  0.000000      6.000000
  0.078247 -0.058084  0.000000     12.000000
  0.089425 -0.077445  0.000000     12.000000
  0.100604 -0.096806  0.000000     12.000000
  0.111782 -0.116167  0.000000     12.000000
  0.122960 -0.135528  0.000000     12.000000
  0.134138 -0.154889  0.000000     12.000000
 -0.089425  0.232334  0.000000     12.000000
  0.100604 -0.058084  0.000000      6.000000
  0.111782 -0.077445  0.000000     12.000000
  0.122960 -0.096806  0.000000     12.000000
  0.134138 -0.116167  0.000000     12.000000
  0.145316 -0.135528  0.000000     12.000000
 -0.078247  0.251695  0.000000     12.000000
 -0.067069  0.232334  0.000000      6.000000
  0.134138 -0.077445  0.000000      6.000000
  0.145316 -0.096806  0.000000     12.000000
  0.156495 -0.116167  0.000000     12.000000
 -0.067069  0.271056  0.000000     12.000000
 -0.055891  0.251695  0.000000     12.000000
  0.167673 -0.096806  0.000000      6.000000
 -0.055891  0.290418  0.000000     12.000000
 -0.044713  0.271056  0.000000     12.000000
 -0.033535  0.251695  0.000000      6.000000
 -0.033535  0.290418  0.000000      6.000000
 -0.022356  0.271056  0.000000     12.000000
  0.000000  0.271056  0.000000      2.000000
 


--------------------------------------------------------------------------------------------------------




 Dimension of arrays:
   k-points           NKPTS =     48   k-points in BZ     NKDIM =     48   number of bands    NBANDS=     12
   number of dos      NEDOS =    301   number of ions     NIONS =      4
   non local maximal  LDIM  =      4   non local SUM 2l+1 LMDIM =      8
   total plane-waves  NPLWV = 110592
   max r-space proj   IRMAX =      1   max aug-charges    IRDMAX=  99836
   dimension x,y,z NGX =    24 NGY =   24 NGZ =  192
   dimension x,y,z NGXF=    48 NGYF=   48 NGZF=  384
   support grid    NGXF=    96 NGYF=   96 NGZF=  768
   ions per type =               4
   NGX,Y,Z   is equivalent  to a cutoff of  16.22, 16.22, 15.96 a.u.
   NGXF,Y,Z  is equivalent  to a cutoff of  32.44, 32.44, 31.92 a.u.

 SYSTEM =  C:graphene                              
 POSCAR =  C2_bilayer                              

 Startparameter for this run:
   NWRITE =      2    write-flag & timer
   PREC   = accura    normal or accurate (medium, high low for compatibility)
   ISTART =      0    job   : 0-new  1-cont  2-samecut
   ICHARG =      2    charge: 1-file 2-atom 10-const
   ISPIN  =      1    spin polarized calculation?
   LNONCOLLINEAR =      F non collinear calculations
   LSORBIT =      F    spin-orbit coupling
   INIWAV =      1    electr: 0-lowe 1-rand  2-diag
   LASPH  =      F    aspherical Exc in radial PAW
   METAGGA=      F    non-selfconsistent MetaGGA calc.

 Electronic Relaxation 1
   ENCUT  =  800.0 eV  58.80 Ry    7.67 a.u.   5.67  5.67 46.12*2*pi/ulx,y,z
   ENINI  =  800.0     initial cutoff
   ENAUG  =  644.9 eV  augmentation charge cutoff
   NELM   =     60;   NELMIN=  5; NELMDL= -5     # of ELM steps 
   EDIFF  = 0.1E-07   stopping-criterion for ELM
   LREAL  =      F    real-space projection
   NLSPLINE    = F    spline interpolate recip. space projectors
   LCOMPAT=      F    compatible to vasp.4.4
   GGA_COMPAT  = T    GGA compatible to vasp.4.4-vasp.4.6
   LMAXPAW     = -100 max onsite density
   LMAXMIX     =    2 max onsite mixed and CHGCAR
   VOSKOWN=      0    Vosko Wilk Nusair interpolation
   ROPT   =    0.00000
 Ionic relaxation
   EDIFFG = 0.1E-06   stopping-criterion for IOM
   NSW    =      1    number of steps for IOM
   NBLOCK =      1;   KBLOCK =      1    inner block; outer block 
   IBRION =     -1    ionic relax: 0-MD 1-quasi-New 2-CG
   NFREE  =      0    steps in history (QN), initial steepest desc. (CG)
   ISIF   =      2    stress and relaxation
   IWAVPR =     10    prediction:  0-non 1-charg 2-wave 3-comb
   ISYM   =      2    0-nonsym 1-usesym 2-fastsym
   LCORR  =      T    Harris-Foulkes like correction to forces

   POTIM  = 0.5000    time-step for ionic-motion
   TEIN   =    0.0    initial temperature
   TEBEG  =    0.0;   TEEND  =   0.0 temperature during run
   SMASS  =  -3.00    Nose mass-parameter (am)
   estimated Nose-frequenzy (Omega)   =  0.10E-29 period in steps =****** mass=  -0.138E-27a.u.
   SCALEE = 1.0000    scale energy and forces
   NPACO  =    256;   APACO  = 16.0  distance and # of slots for P.C.
   PSTRESS=    0.0 pullay stress

  Mass of Ions in am
   POMASS =  12.01
  Ionic Valenz
   ZVAL   =   4.00
  Atomic Wigner-Seitz radii
   RWIGS  =  -1.00
  virtual crystal weights 
   VCA    =   1.00
   NELECT =      16.0000    total number of electrons
   NUPDOWN=      -1.0000    fix difference up-down

 DOS related values:
   EMIN   =  10.00;   EMAX   =-10.00  energy-range for DOS
   EFERMI =   0.00
   ISMEAR =     0;   SIGMA  =   0.01  broadening in eV -4-tet -1-fermi 0-gaus

 Electronic relaxation 2 (details)
   IALGO  =     38    algorithm
   LDIAG  =      T    sub-space diagonalisation (order eigenvalues)
   LSUBROT=      F    optimize rotation matrix (better conditioning)
   TURBO    =      0    0=normal 1=particle mesh
   IRESTART =      0    0=no restart 2=restart with 2 vectors
   NREBOOT  =      0    no. of reboots
   NMIN     =      0    reboot dimension
   EREF     =   0.00    reference energy to select bands
   IMIX   =      4    mixing-type and parameters
     AMIX     =   0.40;   BMIX     =  1.00
     AMIX_MAG =   1.60;   BMIX_MAG =  1.00
     AMIN     =   0.01
     WC   =   100.;   INIMIX=   1;  MIXPRE=   1;  MAXMIX= -45

 Intra band minimization:
   WEIMIN = 0.0000     energy-eigenvalue tresh-hold
   EBREAK =  0.21E-09  absolut break condition
   DEPER  =   0.30     relativ break condition  

   TIME   =   0.40     timestep for ELM

  volume/ion in A,a.u.               =      26.19       176.76
  Fermi-wavevector in a.u.,A,eV,Ry     =   0.875041  1.653589 10.417948  0.765698
  Thomas-Fermi vector in A             =   1.994657
 
 Write flags
   LWAVE        =      F    write WAVECAR
   LDOWNSAMPLE  =      F    k-point downsampling of WAVECAR
   LCHARG       =      T    write CHGCAR
   LVTOT        =      F    write LOCPOT, total local potential
   LVHAR        =      F    write LOCPOT, Hartree potential only
   LELF         =      F    write electronic localiz. function (ELF)
   LORBIT       =      0    0 simple, 1 ext, 2 COOP (PROOUT), +10 PAW based schemes


 Dipole corrections
   LMONO  =      F    monopole corrections only (constant potential shift)
   LDIPOL =      F    correct potential (dipole corrections)
   IDIPOL =      0    1-x, 2-y, 3-z, 4-all directions 
   EPSILON=  1.0000000 bulk dielectric constant

 Exchange correlation treatment:
   GGA     =    --    GGA type
   LEXCH   =     8    internal setting for exchange type
   VOSKOWN=      0    Vosko Wilk Nusair interpolation
   LHFCALC =     F    Hartree Fock is set to
   LHFONE  =     F    Hartree Fock one center treatment
   AEXX    =    0.0000 exact exchange contribution

 Linear response parameters
   LEPSILON=     F    determine dielectric tensor
   LRPA    =     F    only Hartree local field effects (RPA)
   LNABLA  =     F    use nabla operator in PAW spheres
   LVEL    =     F    velocity operator in full k-point grid
   LINTERFAST=   F  fast interpolation
   KINTER  =     0    interpolate to denser k-point grid
   CSHIFT  =0.1000    complex shift for real part using Kramers Kronig
   OMEGAMAX=  -1.0    maximum frequency
   DEG_THRESHOLD= 0.2000000E-02 threshold for treating states as degnerate
   RTIME   =   -0.100 relaxation time in fs
  (WPLASMAI=    0.000 imaginary part of plasma frequency in eV, 0.658/RTIME)
   DFIELD  = 0.0000000 0.0000000 0.0000000 field for delta impulse in time
 
 Orbital magnetization related:
   ORBITALMAG=     F  switch on orbital magnetization
   LCHIMAG   =     F  perturbation theory with respect to B field
   DQ        =  0.001000  dq finite difference perturbation B field
   LLRAUG    =     F  two centre corrections for induced B field



--------------------------------------------------------------------------------------------------------


 Static calculation
 charge density and potential will be updated during run
 non-spin polarized calculation
 Variant of blocked Davidson
 Davidson routine will perform the subspace rotation
 perform sub-space diagonalisation
    after iterative eigenvector-optimisation
 modified Broyden-mixing scheme, WC =      100.0
 initial mixing is a Kerker type mixing with AMIX =  0.4000 and BMIX =      1.0000
 Hartree-type preconditioning will be used
 using additional bands            4
 reciprocal scheme for non local part
 use partial core corrections
 calculate Harris-corrections to forces 
   (improved forces if not selfconsistent)
 use gradient corrections 
 use of overlap-Matrix (Vanderbilt PP)
 Gauss-broadening in eV      SIGMA  =   0.01


--------------------------------------------------------------------------------------------------------


  energy-cutoff  :      800.00
  volume of cell :      104.78
      direct lattice vectors                 reciprocal lattice vectors
     2.130000000 -1.229756000  0.000000000     0.234741784 -0.406584721  0.000000000
     2.130000000  1.229756000  0.000000000     0.234741784  0.406584721  0.000000000
     0.000000000  0.000000000 20.000000000     0.000000000  0.000000000  0.050000000

  length of vectors
     2.459512110  2.459512110 20.000000000     0.469483589  0.469483589  0.050000000


 
 k-points in units of 2pi/SCALE and weight: k grid                                  
   0.00000000  0.00000000  0.00000000       0.002
   0.01117818 -0.01936118  0.00000000       0.014
   0.02235636 -0.03872235  0.00000000       0.014
   0.03353454 -0.05808353  0.00000000       0.014
   0.04471272 -0.07744471  0.00000000       0.014
   0.05589090 -0.09680589  0.00000000       0.014
   0.06706908 -0.11616706  0.00000000       0.014
   0.07824726 -0.13552824  0.00000000       0.014
   0.08942544 -0.15488942  0.00000000       0.014
   0.10060362 -0.17425059  0.00000000       0.014
   0.11178180 -0.19361177  0.00000000       0.014
   0.03353454 -0.01936118  0.00000000       0.014
   0.04471272 -0.03872235  0.00000000       0.027
   0.05589090 -0.05808353  0.00000000       0.027
   0.06706908 -0.07744471  0.00000000       0.027
   0.07824726 -0.09680589  0.00000000       0.027
   0.08942544 -0.11616706  0.00000000       0.027
   0.10060362 -0.13552824  0.00000000       0.027
   0.11178180 -0.15488942  0.00000000       0.027
   0.12295998 -0.17425059  0.00000000       0.027
  -0.10060362  0.21297295  0.00000000       0.014
   0.06706908 -0.03872235  0.00000000       0.014
   0.07824726 -0.05808353  0.00000000       0.027
   0.08942544 -0.07744471  0.00000000       0.027
   0.10060362 -0.09680589  0.00000000       0.027
   0.11178180 -0.11616706  0.00000000       0.027
   0.12295998 -0.13552824  0.00000000       0.027
   0.13413816 -0.15488942  0.00000000       0.027
  -0.08942544  0.23233413  0.00000000       0.027
   0.10060362 -0.05808353  0.00000000       0.014
   0.11178180 -0.07744471  0.00000000       0.027
   0.12295998 -0.09680589  0.00000000       0.027
   0.13413816 -0.11616706  0.00000000       0.027
   0.14531634 -0.13552824  0.00000000       0.027
  -0.07824726  0.25169530  0.00000000       0.027
  -0.06706908  0.23233413  0.00000000       0.014
   0.13413816 -0.07744471  0.00000000       0.014
   0.14531634 -0.09680589  0.00000000       0.027
   0.15649452 -0.11616706  0.00000000       0.027
  -0.06706908  0.27105648  0.00000000       0.027
  -0.05589090  0.25169530  0.00000000       0.027
   0.16767270 -0.09680589  0.00000000       0.014
  -0.05589090  0.29041766  0.00000000       0.027
  -0.04471272  0.27105648  0.00000000       0.027
  -0.03353454  0.25169530  0.00000000       0.014
  -0.03353454  0.29041766  0.00000000       0.014
  -0.02235636  0.27105648  0.00000000       0.027
   0.00000000  0.27105648  0.00000000       0.005
 
 k-points in reciprocal lattice and weights: k grid                                  
   0.00000000  0.00000000  0.00000000       0.002
   0.04761905  0.00000000  0.00000000       0.014
   0.09523810  0.00000000  0.00000000       0.014
   0.14285714  0.00000000  0.00000000       0.014
   0.19047619  0.00000000  0.00000000       0.014
   0.23809524  0.00000000  0.00000000       0.014
   0.28571429  0.00000000  0.00000000       0.014
   0.33333333  0.00000000  0.00000000       0.014
   0.38095238  0.00000000  0.00000000       0.014
   0.42857143  0.00000000  0.00000000       0.014
   0.47619048  0.00000000  0.00000000       0.014
   0.09523810  0.04761905  0.00000000       0.014
   0.14285714  0.04761905  0.00000000       0.027
   0.19047619  0.04761905  0.00000000       0.027
   0.23809524  0.04761905  0.00000000       0.027
   0.28571429  0.04761905  0.00000000       0.027
   0.33333333  0.04761905  0.00000000       0.027
   0.38095238  0.04761905  0.00000000       0.027
   0.42857143  0.04761905  0.00000000       0.027
   0.47619048  0.04761905  0.00000000       0.027
  -0.47619048  0.04761905  0.00000000       0.014
   0.19047619  0.09523810  0.00000000       0.014
   0.23809524  0.09523810  0.00000000       0.027
   0.28571429  0.09523810  0.00000000       0.027
   0.33333333  0.09523810  0.00000000       0.027
   0.38095238  0.09523810  0.00000000       0.027
   0.42857143  0.09523810  0.00000000       0.027
   0.47619048  0.09523810  0.00000000       0.027
  -0.47619048  0.09523810  0.00000000       0.027
   0.28571429  0.14285714  0.00000000       0.014
   0.33333333  0.14285714  0.00000000       0.027
   0.38095238  0.14285714  0.00000000       0.027
   0.42857143  0.14285714  0.00000000       0.027
   0.47619048  0.14285714  0.00000000       0.027
  -0.47619048  0.14285714  0.00000000       0.027
  -0.42857143  0.14285714  0.00000000       0.014
   0.38095238  0.19047619  0.00000000       0.014
   0.42857143  0.19047619  0.00000000       0.027
   0.47619048  0.19047619  0.00000000       0.027
  -0.47619048  0.19047619  0.00000000       0.027
  -0.42857143  0.19047619  0.00000000       0.027
   0.47619048  0.23809524  0.00000000       0.014
  -0.47619048  0.23809524  0.00000000       0.027
  -0.42857143  0.23809524  0.00000000       0.027
  -0.38095238  0.23809524  0.00000000       0.014
  -0.42857143  0.28571429  0.00000000       0.014
  -0.38095238  0.28571429  0.00000000       0.027
  -0.33333333  0.33333333  0.00000000       0.005
 
 position of ions in fractional coordinates (direct lattice) 
   0.00000000  0.00000000  0.00000000
   0.33333300  0.33333300  0.00000000
   0.00000000  0.00000000  0.17500000
   0.33333300  0.33333300  0.17500000
 
 position of ions in cartesian coordinates  (Angst):
   0.00000000  0.00000000  0.00000000
   1.41999858  0.00000000  0.00000000
   0.00000000  0.00000000  3.50000000
   1.41999858  0.00000000  3.50000000
 


--------------------------------------------------------------------------------------------------------


 k-point  1 :   0.0000 0.0000 0.0000  plane waves:    5409
 k-point  2 :   0.0476 0.0000 0.0000  plane waves:    5413
 k-point  3 :   0.0952 0.0000 0.0000  plane waves:    5402
 k-point  4 :   0.1429 0.0000 0.0000  plane waves:    5398
 k-point  5 :   0.1905 0.0000 0.0000  plane waves:    5404
 k-point  6 :   0.2381 0.0000 0.0000  plane waves:    5408
 k-point  7 :   0.2857 0.0000 0.0000  plane waves:    5404
 k-point  8 :   0.3333 0.0000 0.0000  plane waves:    5394
 k-point  9 :   0.3810 0.0000 0.0000  plane waves:    5382
 k-point 10 :   0.4286 0.0000 0.0000  plane waves:    5396
 k-point 11 :   0.4762 0.0000 0.0000  plane waves:    5380
 k-point 12 :   0.0952 0.0476 0.0000  plane waves:    5411
 k-point 13 :   0.1429 0.0476 0.0000  plane waves:    5415
 k-point 14 :   0.1905 0.0476 0.0000  plane waves:    5413
 k-point 15 :   0.2381 0.0476 0.0000  plane waves:    5399
 k-point 16 :   0.2857 0.0476 0.0000  plane waves:    5396
 k-point 17 :   0.3333 0.0476 0.0000  plane waves:    5389
 k-point 18 :   0.3810 0.0476 0.0000  plane waves:    5378
 k-point 19 :   0.4286 0.0476 0.0000  plane waves:    5381
 k-point 20 :   0.4762 0.0476 0.0000  plane waves:    5391
 k-point 21 :  -0.4762 0.0476 0.0000  plane waves:    5394
 k-point 22 :   0.1905 0.0952 0.0000  plane waves:    5403
 k-point 23 :   0.2381 0.0952 0.0000  plane waves:    5409
 k-point 24 :   0.2857 0.0952 0.0000  plane waves:    5419
 k-point 25 :   0.3333 0.0952 0.0000  plane waves:    5384
 k-point 26 :   0.3810 0.0952 0.0000  plane waves:    5369
 k-point 27 :   0.4286 0.0952 0.0000  plane waves:    5364
 k-point 28 :   0.4762 0.0952 0.0000  plane waves:    5382
 k-point 29 :  -0.4762 0.0952 0.0000  plane waves:    5404
 k-point 30 :   0.2857 0.1429 0.0000  plane waves:    5405
 k-point 31 :   0.3333 0.1429 0.0000  plane waves:    5404
 k-point 32 :   0.3810 0.1429 0.0000  plane waves:    5382
 k-point 33 :   0.4286 0.1429 0.0000  plane waves:    5347
 k-point 34 :   0.4762 0.1429 0.0000  plane waves:    5367
 k-point 35 :  -0.4762 0.1429 0.0000  plane waves:    5376
 k-point 36 :  -0.4286 0.1429 0.0000  plane waves:    5400
 k-point 37 :   0.3810 0.1905 0.0000  plane waves:    5390
 k-point 38 :   0.4286 0.1905 0.0000  plane waves:    5358
 k-point 39 :   0.4762 0.1905 0.0000  plane waves:    5365
 k-point 40 :  -0.4762 0.1905 0.0000  plane waves:    5363
 k-point 41 :  -0.4286 0.1905 0.0000  plane waves:    5377
 k-point 42 :   0.4762 0.2381 0.0000  plane waves:    5364
 k-point 43 :  -0.4762 0.2381 0.0000  plane waves:    5368
 k-point 44 :  -0.4286 0.2381 0.0000  plane waves:    5360
 k-point 45 :  -0.3810 0.2381 0.0000  plane waves:    5366
 k-point 46 :  -0.4286 0.2857 0.0000  plane waves:    5362
 k-point 47 :  -0.3810 0.2857 0.0000  plane waves:    5326
 k-point 48 :  -0.3333 0.3333 0.0000  plane waves:    5334

 maximum and minimum number of plane-waves per node :      5419     5326

 maximum number of plane-waves:      5419
 maximum index in each direction: 
   IXMAX=    6   IYMAX=    5   IZMAX=   46
   IXMIN=   -6   IYMIN=   -5   IZMIN=  -46


 serial   3D FFT for wavefunctions
 parallel 3D FFT for charge:
    minimum data exchange during FFTs selected (reduces bandwidth)


 total amount of memory used by VASP MPI-rank0   107376. kBytes
=======================================================================

   base      :      30000. kBytes
   nonl-proj :      16997. kBytes
   fftplans  :      32720. kBytes
   grid      :      15086. kBytes
   one-center:         12. kBytes
   wavefun   :      12561. kBytes
 
     INWAV:  cpu time    0.0000: real time    0.0001
 Broyden mixing: mesh for mixing (old mesh)
   NGX = 11   NGY = 11   NGZ = 93
  (NGX  = 48   NGY  = 48   NGZ  =384)
  gives a total of  11253 points

 initial charge density was supplied:
 charge density of overlapping atoms calculated
 number of electron      16.0000000 magnetization 
 keeping initial charge density in first step


--------------------------------------------------------------------------------------------------------


 Maximum index for augmentation-charges        24142 (set IRDMAX)


--------------------------------------------------------------------------------------------------------


 First call to EWALD:  gamma=   0.376
 Maximum number of real-space cells 5x 5x 1
 Maximum number of reciprocal cells 2x 2x10

    FEWALD:  cpu time    0.0011: real time    0.0011


--------------------------------------- Iteration      1(   1)  ---------------------------------------


    POTLOK:  cpu time    0.0848: real time    0.1018
    SETDIJ:  cpu time    0.0417: real time    0.0418
     EDDAV:  cpu time    1.4650: real time    1.4700
       DOS:  cpu time    0.0004: real time    0.0004
    --------------------------------------------
      LOOP:  cpu time    1.5919: real time    1.6141

 eigenvalue-minimisations  :  1152
 total energy-change (2. order) : 0.1288888E+03  (-0.8012761E+03)
 number of electron      16.0000000 magnetization 
 augmentation part       16.0000000 magnetization 

 Free energy of the ion-electron system (eV)
  ---------------------------------------------------
  alpha Z        PSCENC =        12.54445055
  Ewald energy   TEWEN  =      3098.87255521
  -Hartree energ DENC   =     -3560.41427225
  -exchange      EXHF   =         0.00000000
  -V(xc)+E(xc)   XCENC  =        52.89696142
  PAW double counting   =       434.08818552     -436.36580876
  entropy T*S    EENTRO =        -0.00030154
  eigenvalues    EBANDS =       -61.35066783
  atomic energy  EATOM  =       588.61769381
  Solvation  Ediel_sol  =         0.00000000
  ---------------------------------------------------
  free energy    TOTEN  =       128.88879614 eV

  energy without entropy =      128.88909767  energy(sigma->0) =      128.88894690


--------------------------------------------------------------------------------------------------------




--------------------------------------- Iteration      1(   2)  ---------------------------------------


     EDDAV:  cpu time    2.0340: real time    2.0405
       DOS:  cpu time    0.0004: real time    0.0004
    --------------------------------------------
      LOOP:  cpu time    2.0343: real time    2.0409

 eigenvalue-minimisations  :  1844
 total energy-change (2. order) :-0.1532847E+03  (-0.1398011E+03)
 number of electron      16.0000000 magnetization 
 augmentation part       16.0000000 magnetization 

 Free energy of the ion-electron system (eV)
  ---------------------------------------------------
  alpha Z        PSCENC =        12.54445055
  Ewald energy   TEWEN  =      3098.87255521
  -Hartree energ DENC   =     -3560.41427225
  -exchange      EXHF   =         0.00000000
  -V(xc)+E(xc)   XCENC  =        52.89696142
  PAW double counting   =       434.08818552     -436.36580876
  entropy T*S    EENTRO =        -0.00012229
  eigenvalues    EBANDS =      -214.63559027
  atomic energy  EATOM  =       588.61769381
  Solvation  Ediel_sol  =         0.00000000
  ---------------------------------------------------
  free energy    TOTEN  =       -24.39594705 eV

  energy without entropy =      -24.39582477  energy(sigma->0) =      -24.39588591


--------------------------------------------------------------------------------------------------------




--------------------------------------- Iteration      1(   3)  ---------------------------------------


     EDDAV:  cpu time    1.6817: real time    1.6873
       DOS:  cpu time    0.0002: real time    0.0002
    --------------------------------------------
      LOOP:  cpu time    1.6818: real time    1.6875

 eigenvalue-minimisations  :  1436
 total energy-change (2. order) :-0.1470149E+02  (-0.1426573E+02)
 number of electron      16.0000000 magnetization 
 augmentation part       16.0000000 magnetization 

 Free energy of the ion-electron system (eV)
  ---------------------------------------------------
  alpha Z        PSCENC =        12.54445055
  Ewald energy   TEWEN  =      3098.87255521
  -Hartree energ DENC   =     -3560.41427225
  -exchange      EXHF   =         0.00000000
  -V(xc)+E(xc)   XCENC  =        52.89696142
  PAW double counting   =       434.08818552     -436.36580876
  entropy T*S    EENTRO =        -0.00000000
  eigenvalues    EBANDS =      -229.33720742
  atomic energy  EATOM  =       588.61769381
  Solvation  Ediel_sol  =         0.00000000
  ---------------------------------------------------
  free energy    TOTEN  =       -39.09744192 eV

  energy without entropy =      -39.09744192  energy(sigma->0) =      -39.09744192


--------------------------------------------------------------------------------------------------------




--------------------------------------- Iteration      1(   4)  ---------------------------------------


     EDDAV:  cpu time    1.7243: real time    1.7298
       DOS:  cpu time    0.0002: real time    0.0002
    --------------------------------------------
      LOOP:  cpu time    1.7245: real time    1.7300

 eigenvalue-minimisations  :  1468
 total energy-change (2. order) :-0.3283964E+00  (-0.3274651E+00)
 number of electron      16.0000000 magnetization 
 augmentation part       16.0000000 magnetization 

 Free energy of the ion-electron system (eV)
  ---------------------------------------------------
  alpha Z        PSCENC =        12.54445055
  Ewald energy   TEWEN  =      3098.87255521
  -Hartree energ DENC   =     -3560.41427225
  -exchange      EXHF   =         0.00000000
  -V(xc)+E(xc)   XCENC  =        52.89696142
  PAW double counting   =       434.08818552     -436.36580876
  entropy T*S    EENTRO =        -0.00000000
  eigenvalues    EBANDS =      -229.66560380
  atomic energy  EATOM  =       588.61769381
  Solvation  Ediel_sol  =         0.00000000
  ---------------------------------------------------
  free energy    TOTEN  =       -39.42583830 eV

  energy without entropy =      -39.42583830  energy(sigma->0) =      -39.42583830


--------------------------------------------------------------------------------------------------------




--------------------------------------- Iteration      1(   5)  ---------------------------------------


     EDDAV:  cpu time    1.7085: real time    1.7137
       DOS:  cpu time    0.0002: real time    0.0002
    CHARGE:  cpu time    0.1860: real time    0.1864
    MIXING:  cpu time    0.0025: real time    0.0025
    --------------------------------------------
      LOOP:  cpu time    1.8971: real time    1.9028

 eigenvalue-minimisations  :  1464
 total energy-change (2. order) :-0.9794789E-02  (-0.9775100E-02)
 number of electron      16.0000000 magnetization 
 augmentation part        0.4276249 magnetization 

 Broyden mixing:
  rms(total) = 0.90208E+00    rms(broyden)= 0.90207E+00
  rms(prec ) = 0.96360E+00
  weight for this iteration     100.00

 Free energy of the ion-electron system (eV)
  ---------------------------------------------------
  alpha Z        PSCENC =        12.54445055
  Ewald energy   TEWEN  =      3098.87255521
  -Hartree energ DENC   =     -3560.41427225
  -exchange      EXHF   =         0.00000000
  -V(xc)+E(xc)   XCENC  =        52.89696142
  PAW double counting   =       434.08818552     -436.36580876
  entropy T*S    EENTRO =        -0.00000000
  eigenvalues    EBANDS =      -229.67539859
  atomic energy  EATOM  =       588.61769381
  Solvation  Ediel_sol  =         0.00000000
  ---------------------------------------------------
  free energy    TOTEN  =       -39.43563309 eV

  energy without entropy =      -39.43563309  energy(sigma->0) =      -39.43563309


--------------------------------------------------------------------------------------------------------




--------------------------------------- Iteration      1(   6)  ---------------------------------------


    POTLOK:  cpu time    0.0739: real time    0.0741
    SETDIJ:  cpu time    0.0371: real time    0.0372
     EDDAV:  cpu time    1.6459: real time    1.6512
       DOS:  cpu time    0.0002: real time    0.0002
    CHARGE:  cpu time    0.1806: real time    0.1810
    MIXING:  cpu time    0.0027: real time    0.0027
    --------------------------------------------
      LOOP:  cpu time    1.9403: real time    1.9464

 eigenvalue-minimisations  :  1392
 total energy-change (2. order) : 0.1856608E+01  (-0.1746893E+00)
 number of electron      16.0000000 magnetization 
 augmentation part        0.4086902 magnetization 

 Broyden mixing:
  rms(total) = 0.52909E+00    rms(broyden)= 0.52909E+00
  rms(prec ) = 0.55902E+00
  weight for this iteration     100.00

 eigenvalues of (default mixing * dielectric matrix)
  average eigenvalue GAMMA=   2.2048
  2.2048

 Free energy of the ion-electron system (eV)
  ---------------------------------------------------
  alpha Z        PSCENC =        12.54445055
  Ewald energy   TEWEN  =      3098.87255521
  -Hartree energ DENC   =     -3579.77491304
  -exchange      EXHF   =         0.00000000
  -V(xc)+E(xc)   XCENC  =        53.88628278
  PAW double counting   =       803.35646543     -805.93210018
  entropy T*S    EENTRO =        -0.00000000
  eigenvalues    EBANDS =      -209.14945995
  atomic energy  EATOM  =       588.61769381
  Solvation  Ediel_sol  =         0.00000000
  ---------------------------------------------------
  free energy    TOTEN  =       -37.57902539 eV

  energy without entropy =      -37.57902539  energy(sigma->0) =      -37.57902539


--------------------------------------------------------------------------------------------------------




--------------------------------------- Iteration      1(   7)  ---------------------------------------


    POTLOK:  cpu time    0.0728: real time    0.0731
    SETDIJ:  cpu time    0.0355: real time    0.0357
     EDDAV:  cpu time    1.6684: real time    1.6738
       DOS:  cpu time    0.0002: real time    0.0002
    CHARGE:  cpu time    0.1777: real time    0.1781
    MIXING:  cpu time    0.0027: real time    0.0027
    --------------------------------------------
      LOOP:  cpu time    1.9573: real time    1.9636

 eigenvalue-minimisations  :  1424
 total energy-change (2. order) : 0.6577715E+00  (-0.2238007E+00)
 number of electron      16.0000000 magnetization 
 augmentation part        0.3866468 magnetization 

 Broyden mixing:
  rms(total) = 0.13571E+00    rms(broyden)= 0.13571E+00
  rms(prec ) = 0.14175E+00
  weight for this iteration     100.00

 eigenvalues of (default mixing * dielectric matrix)
  average eigenvalue GAMMA=   2.2552
  2.1454  2.3650

 Free energy of the ion-electron system (eV)
  ---------------------------------------------------
  alpha Z        PSCENC =        12.54445055
  Ewald energy   TEWEN  =      3098.87255521
  -Hartree energ DENC   =     -3604.76958094
  -exchange      EXHF   =         0.00000000
  -V(xc)+E(xc)   XCENC  =        55.16074364
  PAW double counting   =      1519.65057942    -1522.48912964
  entropy T*S    EENTRO =        -0.00000000
  eigenvalues    EBANDS =      -184.50856590
  atomic energy  EATOM  =       588.61769381
  Solvation  Ediel_sol  =         0.00000000
  ---------------------------------------------------
  free energy    TOTEN  =       -36.92125385 eV

  energy without entropy =      -36.92125385  energy(sigma->0) =      -36.92125385


--------------------------------------------------------------------------------------------------------




--------------------------------------- Iteration      1(   8)  ---------------------------------------


    POTLOK:  cpu time    0.0726: real time    0.0728
    SETDIJ:  cpu time    0.0381: real time    0.0382
     EDDAV:  cpu time    1.6952: real time    1.7003
       DOS:  cpu time    0.0001: real time    0.0001
    CHARGE:  cpu time    0.1793: real time    0.1797
    MIXING:  cpu time    0.0028: real time    0.0028
    --------------------------------------------
      LOOP:  cpu time    1.9881: real time    1.9939

 eigenvalue-minimisations  :  1412
 total energy-change (2. order) : 0.6522719E-02  (-0.8300282E-02)
 number of electron      16.0000000 magnetization 
 augmentation part        0.3862180 magnetization 

 Broyden mixing:
  rms(total) = 0.12085E-01    rms(broyden)= 0.12084E-01
  rms(prec ) = 0.28447E-01
  weight for this iteration     100.00

 eigenvalues of (default mixing * dielectric matrix)
  average eigenvalue GAMMA=   1.8403
  1.0709  2.1009  2.3490

 Free energy of the ion-electron system (eV)
  ---------------------------------------------------
  alpha Z        PSCENC =        12.54445055
  Ewald energy   TEWEN  =      3098.87255521
  -Hartree energ DENC   =     -3606.65064501
  -exchange      EXHF   =         0.00000000
  -V(xc)+E(xc)   XCENC  =        55.12609140
  PAW double counting   =      1705.85474933    -1708.58163244
  entropy T*S    EENTRO =        -0.00000000
  eigenvalues    EBANDS =      -182.69799398
  atomic energy  EATOM  =       588.61769381
  Solvation  Ediel_sol  =         0.00000000
  ---------------------------------------------------
  free energy    TOTEN  =       -36.91473113 eV

  energy without entropy =      -36.91473113  energy(sigma->0) =      -36.91473113


--------------------------------------------------------------------------------------------------------




--------------------------------------- Iteration      1(   9)  ---------------------------------------


    POTLOK:  cpu time    0.0727: real time    0.0729
    SETDIJ:  cpu time    0.0385: real time    0.0386
     EDDAV:  cpu time    1.7430: real time    1.7482
       DOS:  cpu time    0.0002: real time    0.0002
    CHARGE:  cpu time    0.1784: real time    0.1789
    MIXING:  cpu time    0.0028: real time    0.0028
    --------------------------------------------
      LOOP:  cpu time    2.0355: real time    2.0415

 eigenvalue-minimisations  :  1468
 total energy-change (2. order) : 0.2331677E-02  (-0.3360841E-03)
 number of electron      16.0000000 magnetization 
 augmentation part        0.3857414 magnetization 

 Broyden mixing:
  rms(total) = 0.95522E-02    rms(broyden)= 0.95522E-02
  rms(prec ) = 0.25622E-01
  weight for this iteration     100.00

 eigenvalues of (default mixing * dielectric matrix)
  average eigenvalue GAMMA=   1.9784
  1.0651  2.4422  2.4422  1.9641

 Free energy of the ion-electron system (eV)
  ---------------------------------------------------
  alpha Z        PSCENC =        12.54445055
  Ewald energy   TEWEN  =      3098.87255521
  -Hartree energ DENC   =     -3607.94202257
  -exchange      EXHF   =         0.00000000
  -V(xc)+E(xc)   XCENC  =        55.15153670
  PAW double counting   =      1705.11639908    -1707.84576193
  entropy T*S    EENTRO =        -0.00000000
  eigenvalues    EBANDS =      -181.42725031
  atomic energy  EATOM  =       588.61769381
  Solvation  Ediel_sol  =         0.00000000
  ---------------------------------------------------
  free energy    TOTEN  =       -36.91239945 eV

  energy without entropy =      -36.91239945  energy(sigma->0) =      -36.91239945


--------------------------------------------------------------------------------------------------------




--------------------------------------- Iteration      1(  10)  ---------------------------------------


    POTLOK:  cpu time    0.0728: real time    0.0730
    SETDIJ:  cpu time    0.0380: real time    0.0381
     EDDAV:  cpu time    1.6864: real time    1.6914
       DOS:  cpu time    0.0002: real time    0.0002
    CHARGE:  cpu time    0.1745: real time    0.1749
    MIXING:  cpu time    0.0029: real time    0.0029
    --------------------------------------------
      LOOP:  cpu time    1.9747: real time    1.9805

 eigenvalue-minimisations  :  1404
 total energy-change (2. order) : 0.6382922E-02  (-0.3142007E-03)
 number of electron      16.0000000 magnetization 
 augmentation part        0.3852422 magnetization 

 Broyden mixing:
  rms(total) = 0.88683E-02    rms(broyden)= 0.88683E-02
  rms(prec ) = 0.19674E-01
  weight for this iteration     100.00

 eigenvalues of (default mixing * dielectric matrix)
  average eigenvalue GAMMA=   1.8893
  3.0273  2.5439  1.9590  1.0601  0.8564

 Free energy of the ion-electron system (eV)
  ---------------------------------------------------
  alpha Z        PSCENC =        12.54445055
  Ewald energy   TEWEN  =      3098.87255521
  -Hartree energ DENC   =     -3611.92306112
  -exchange      EXHF   =         0.00000000
  -V(xc)+E(xc)   XCENC  =        55.20031193
  PAW double counting   =      1688.97404589    -1691.70171353
  entropy T*S    EENTRO =        -0.00000000
  eigenvalues    EBANDS =      -177.49029926
  atomic energy  EATOM  =       588.61769381
  Solvation  Ediel_sol  =         0.00000000
  ---------------------------------------------------
  free energy    TOTEN  =       -36.90601653 eV

  energy without entropy =      -36.90601653  energy(sigma->0) =      -36.90601653


--------------------------------------------------------------------------------------------------------




--------------------------------------- Iteration      1(  11)  ---------------------------------------


    POTLOK:  cpu time    0.0717: real time    0.0744
    SETDIJ:  cpu time    0.0345: real time    0.0346
     EDDAV:  cpu time    1.5795: real time    1.5842
       DOS:  cpu time    0.0002: real time    0.0002
    CHARGE:  cpu time    0.1807: real time    0.1811
    MIXING:  cpu time    0.0030: real time    0.0030
    --------------------------------------------
      LOOP:  cpu time    1.8696: real time    1.8776

 eigenvalue-minimisations  :  1328
 total energy-change (2. order) : 0.3158241E-02  (-0.1237948E-03)
 number of electron      16.0000000 magnetization 
 augmentation part        0.3851572 magnetization 

 Broyden mixing:
  rms(total) = 0.53365E-02    rms(broyden)= 0.53365E-02
  rms(prec ) = 0.15101E-01
  weight for this iteration     100.00

 eigenvalues of (default mixing * dielectric matrix)
  average eigenvalue GAMMA=   2.0941
  4.2523  2.4022  2.1150  0.9734  1.5361  1.2857

 Free energy of the ion-electron system (eV)
  ---------------------------------------------------
  alpha Z        PSCENC =        12.54445055
  Ewald energy   TEWEN  =      3098.87255521
  -Hartree energ DENC   =     -3614.19130004
  -exchange      EXHF   =         0.00000000
  -V(xc)+E(xc)   XCENC  =        55.21616002
  PAW double counting   =      1702.09783329    -1704.81787505
  entropy T*S    EENTRO =        -0.00000000
  eigenvalues    EBANDS =      -175.24237607
  atomic energy  EATOM  =       588.61769381
  Solvation  Ediel_sol  =         0.00000000
  ---------------------------------------------------
  free energy    TOTEN  =       -36.90285829 eV

  energy without entropy =      -36.90285829  energy(sigma->0) =      -36.90285829


--------------------------------------------------------------------------------------------------------




--------------------------------------- Iteration      1(  12)  ---------------------------------------


    POTLOK:  cpu time    0.0686: real time    0.0688
    SETDIJ:  cpu time    0.0350: real time    0.0351
     EDDAV:  cpu time    1.5146: real time    1.5192
       DOS:  cpu time    0.0002: real time    0.0002
    CHARGE:  cpu time    0.1817: real time    0.1822
    MIXING:  cpu time    0.0031: real time    0.0032
    --------------------------------------------
      LOOP:  cpu time    1.8033: real time    1.8086

 eigenvalue-minimisations  :  1248
 total energy-change (2. order) : 0.3685417E-02  (-0.1697179E-03)
 number of electron      16.0000000 magnetization 
 augmentation part        0.3849749 magnetization 

 Broyden mixing:
  rms(total) = 0.35203E-02    rms(broyden)= 0.35203E-02
  rms(prec ) = 0.10804E-01
  weight for this iteration     100.00

 eigenvalues of (default mixing * dielectric matrix)
  average eigenvalue GAMMA=   2.4345
  6.4701  2.7706  2.1923  2.0624  1.4591  1.0108  1.0764

 Free energy of the ion-electron system (eV)
  ---------------------------------------------------
  alpha Z        PSCENC =        12.54445055
  Ewald energy   TEWEN  =      3098.87255521
  -Hartree energ DENC   =     -3617.43346907
  -exchange      EXHF   =         0.00000000
  -V(xc)+E(xc)   XCENC  =        55.22769544
  PAW double counting   =      1698.94664153    -1701.67027252
  entropy T*S    EENTRO =        -0.00000000
  eigenvalues    EBANDS =      -172.00446782
  atomic energy  EATOM  =       588.61769381
  Solvation  Ediel_sol  =         0.00000000
  ---------------------------------------------------
  free energy    TOTEN  =       -36.89917287 eV

  energy without entropy =      -36.89917287  energy(sigma->0) =      -36.89917287


--------------------------------------------------------------------------------------------------------




--------------------------------------- Iteration      1(  13)  ---------------------------------------


    POTLOK:  cpu time    0.0671: real time    0.0673
    SETDIJ:  cpu time    0.0349: real time    0.0350
     EDDAV:  cpu time    1.5033: real time    1.5081
       DOS:  cpu time    0.0001: real time    0.0001
    CHARGE:  cpu time    0.1753: real time    0.1757
    MIXING:  cpu time    0.0032: real time    0.0032
    --------------------------------------------
      LOOP:  cpu time    1.7839: real time    1.7894

 eigenvalue-minimisations  :  1240
 total energy-change (2. order) : 0.2463725E-03  (-0.3582014E-04)
 number of electron      16.0000000 magnetization 
 augmentation part        0.3849605 magnetization 

 Broyden mixing:
  rms(total) = 0.31618E-02    rms(broyden)= 0.31618E-02
  rms(prec ) = 0.80409E-02
  weight for this iteration     100.00

 eigenvalues of (default mixing * dielectric matrix)
  average eigenvalue GAMMA=   2.6778
  7.9658  3.7235  2.4933  2.0610  1.7680  1.3866  1.0119  1.0119

 Free energy of the ion-electron system (eV)
  ---------------------------------------------------
  alpha Z        PSCENC =        12.54445055
  Ewald energy   TEWEN  =      3098.87255521
  -Hartree energ DENC   =     -3619.49792180
  -exchange      EXHF   =         0.00000000
  -V(xc)+E(xc)   XCENC  =        55.22172777
  PAW double counting   =      1696.27647059    -1699.00086471
  entropy T*S    EENTRO =        -0.00000000
  eigenvalues    EBANDS =      -169.93303791
  atomic energy  EATOM  =       588.61769381
  Solvation  Ediel_sol  =         0.00000000
  ---------------------------------------------------
  free energy    TOTEN  =       -36.89892650 eV

  energy without entropy =      -36.89892650  energy(sigma->0) =      -36.89892650


--------------------------------------------------------------------------------------------------------




--------------------------------------- Iteration      1(  14)  ---------------------------------------


    POTLOK:  cpu time    0.0649: real time    0.0676
    SETDIJ:  cpu time    0.0351: real time    0.0352
     EDDAV:  cpu time    1.5696: real time    1.5746
       DOS:  cpu time    0.0002: real time    0.0002
    CHARGE:  cpu time    0.1763: real time    0.1767
    MIXING:  cpu time    0.0032: real time    0.0032
    --------------------------------------------
      LOOP:  cpu time    1.8493: real time    1.8576

 eigenvalue-minimisations  :  1320
 total energy-change (2. order) :-0.9595990E-03  (-0.5417444E-04)
 number of electron      16.0000000 magnetization 
 augmentation part        0.3848873 magnetization 

 Broyden mixing:
  rms(total) = 0.31866E-02    rms(broyden)= 0.31866E-02
  rms(prec ) = 0.47634E-02
  weight for this iteration     100.00

 eigenvalues of (default mixing * dielectric matrix)
  average eigenvalue GAMMA=   3.2134
 11.4331  5.0468  3.0765  2.5266  2.0066  1.5740  1.2502  1.0035  1.0035

 Free energy of the ion-electron system (eV)
  ---------------------------------------------------
  alpha Z        PSCENC =        12.54445055
  Ewald energy   TEWEN  =      3098.87255521
  -Hartree energ DENC   =     -3621.80141722
  -exchange      EXHF   =         0.00000000
  -V(xc)+E(xc)   XCENC  =        55.22253832
  PAW double counting   =      1700.99363958    -1703.71726955
  entropy T*S    EENTRO =        -0.00000000
  eigenvalues    EBANDS =      -167.63207678
  atomic energy  EATOM  =       588.61769381
  Solvation  Ediel_sol  =         0.00000000
  ---------------------------------------------------
  free energy    TOTEN  =       -36.89988610 eV

  energy without entropy =      -36.89988610  energy(sigma->0) =      -36.89988610


--------------------------------------------------------------------------------------------------------




--------------------------------------- Iteration      1(  15)  ---------------------------------------


    POTLOK:  cpu time    0.0651: real time    0.0679
    SETDIJ:  cpu time    0.0359: real time    0.0360
     EDDAV:  cpu time    1.6040: real time    1.6093
       DOS:  cpu time    0.0001: real time    0.0001
    CHARGE:  cpu time    0.1782: real time    0.1786
    MIXING:  cpu time    0.0033: real time    0.0033
    --------------------------------------------
      LOOP:  cpu time    1.8867: real time    1.8953

 eigenvalue-minimisations  :  1356
 total energy-change (2. order) :-0.7814129E-03  (-0.1534447E-04)
 number of electron      16.0000000 magnetization 
 augmentation part        0.3848147 magnetization 

 Broyden mixing:
  rms(total) = 0.35464E-02    rms(broyden)= 0.35464E-02
  rms(prec ) = 0.37690E-02
  weight for this iteration     100.00

 eigenvalues of (default mixing * dielectric matrix)
  average eigenvalue GAMMA=   3.6659
 16.0074  6.3155  2.7894  2.5701  2.1427  2.1427  1.5819  0.9973  0.9973  1.1147

 Free energy of the ion-electron system (eV)
  ---------------------------------------------------
  alpha Z        PSCENC =        12.54445055
  Ewald energy   TEWEN  =      3098.87255521
  -Hartree energ DENC   =     -3623.01118585
  -exchange      EXHF   =         0.00000000
  -V(xc)+E(xc)   XCENC  =        55.22948349
  PAW double counting   =      1692.46114889    -1695.18418227
  entropy T*S    EENTRO =        -0.00000000
  eigenvalues    EBANDS =      -166.43063133
  atomic energy  EATOM  =       588.61769381
  Solvation  Ediel_sol  =         0.00000000
  ---------------------------------------------------
  free energy    TOTEN  =       -36.90066751 eV

  energy without entropy =      -36.90066751  energy(sigma->0) =      -36.90066751


--------------------------------------------------------------------------------------------------------




--------------------------------------- Iteration      1(  16)  ---------------------------------------


    POTLOK:  cpu time    0.0647: real time    0.0649
    SETDIJ:  cpu time    0.0354: real time    0.0355
     EDDAV:  cpu time    1.5721: real time    1.5773
       DOS:  cpu time    0.0002: real time    0.0002
    CHARGE:  cpu time    0.1757: real time    0.1762
    MIXING:  cpu time    0.0036: real time    0.0036
    --------------------------------------------
      LOOP:  cpu time    1.8516: real time    1.8576

 eigenvalue-minimisations  :  1328
 total energy-change (2. order) :-0.2780189E-03  (-0.2616079E-05)
 number of electron      16.0000000 magnetization 
 augmentation part        0.3848555 magnetization 

 Broyden mixing:
  rms(total) = 0.66345E-03    rms(broyden)= 0.66345E-03
  rms(prec ) = 0.86371E-03
  weight for this iteration     100.00

 eigenvalues of (default mixing * dielectric matrix)
  average eigenvalue GAMMA=   4.2809
 22.7576  7.0903  4.0252  2.7248  2.4886  1.9806  1.5740  0.9950  0.9950  1.0671
  1.3915

 Free energy of the ion-electron system (eV)
  ---------------------------------------------------
  alpha Z        PSCENC =        12.54445055
  Ewald energy   TEWEN  =      3098.87255521
  -Hartree energ DENC   =     -3622.92196529
  -exchange      EXHF   =         0.00000000
  -V(xc)+E(xc)   XCENC  =        55.22505628
  PAW double counting   =      1697.17033644    -1699.89336068
  entropy T*S    EENTRO =        -0.00000000
  eigenvalues    EBANDS =      -166.51571185
  atomic energy  EATOM  =       588.61769381
  Solvation  Ediel_sol  =         0.00000000
  ---------------------------------------------------
  free energy    TOTEN  =       -36.90094553 eV

  energy without entropy =      -36.90094553  energy(sigma->0) =      -36.90094553


--------------------------------------------------------------------------------------------------------




--------------------------------------- Iteration      1(  17)  ---------------------------------------


    POTLOK:  cpu time    0.0654: real time    0.0656
    SETDIJ:  cpu time    0.0350: real time    0.0351
     EDDAV:  cpu time    1.5728: real time    1.5776
       DOS:  cpu time    0.0001: real time    0.0001
    CHARGE:  cpu time    0.1751: real time    0.1756
    MIXING:  cpu time    0.0036: real time    0.0036
    --------------------------------------------
      LOOP:  cpu time    1.8520: real time    1.8576

 eigenvalue-minimisations  :  1312
 total energy-change (2. order) :-0.1360186E-03  (-0.7930320E-06)
 number of electron      16.0000000 magnetization 
 augmentation part        0.3848387 magnetization 

 Broyden mixing:
  rms(total) = 0.89974E-03    rms(broyden)= 0.89974E-03
  rms(prec ) = 0.91154E-03
  weight for this iteration     100.00

 eigenvalues of (default mixing * dielectric matrix)
  average eigenvalue GAMMA=   4.2382
 24.2279  7.3010  4.0875  2.8787  2.3123  2.2729  2.0824  1.5922  1.1054  0.9870
  0.9870  1.0240

 Free energy of the ion-electron system (eV)
  ---------------------------------------------------
  alpha Z        PSCENC =        12.54445055
  Ewald energy   TEWEN  =      3098.87255521
  -Hartree energ DENC   =     -3623.10806299
  -exchange      EXHF   =         0.00000000
  -V(xc)+E(xc)   XCENC  =        55.22659100
  PAW double counting   =      1697.67097435    -1700.39431287
  entropy T*S    EENTRO =        -0.00000000
  eigenvalues    EBANDS =      -166.33097061
  atomic energy  EATOM  =       588.61769381
  Solvation  Ediel_sol  =         0.00000000
  ---------------------------------------------------
  free energy    TOTEN  =       -36.90108155 eV

  energy without entropy =      -36.90108155  energy(sigma->0) =      -36.90108155


--------------------------------------------------------------------------------------------------------




--------------------------------------- Iteration      1(  18)  ---------------------------------------


    POTLOK:  cpu time    0.0661: real time    0.0663
    SETDIJ:  cpu time    0.0358: real time    0.0359
     EDDAV:  cpu time    1.6183: real time    1.6232
       DOS:  cpu time    0.0002: real time    0.0002
    CHARGE:  cpu time    0.1751: real time    0.1756
    MIXING:  cpu time    0.0037: real time    0.0037
    --------------------------------------------
      LOOP:  cpu time    1.8992: real time    1.9049

 eigenvalue-minimisations  :  1376
 total energy-change (2. order) :-0.2090300E-04  (-0.8028314E-07)
 number of electron      16.0000000 magnetization 
 augmentation part        0.3848311 magnetization 

 Broyden mixing:
  rms(total) = 0.17631E-03    rms(broyden)= 0.17631E-03
  rms(prec ) = 0.18243E-03
  weight for this iteration     100.00

 eigenvalues of (default mixing * dielectric matrix)
  average eigenvalue GAMMA=   4.0950
 24.5159  7.4202  4.1382  3.1710  2.6197  2.4305  1.9591  1.5310  1.4125  1.0868
  1.0011  1.0011  0.9482

 Free energy of the ion-electron system (eV)
  ---------------------------------------------------
  alpha Z        PSCENC =        12.54445055
  Ewald energy   TEWEN  =      3098.87255521
  -Hartree energ DENC   =     -3623.09816096
  -exchange      EXHF   =         0.00000000
  -V(xc)+E(xc)   XCENC  =        55.22655245
  PAW double counting   =      1696.43142755    -1699.15484355
  entropy T*S    EENTRO =        -0.00000000
  eigenvalues    EBANDS =      -166.34077752
  atomic energy  EATOM  =       588.61769381
  Solvation  Ediel_sol  =         0.00000000
  ---------------------------------------------------
  free energy    TOTEN  =       -36.90110245 eV

  energy without entropy =      -36.90110245  energy(sigma->0) =      -36.90110245


--------------------------------------------------------------------------------------------------------




--------------------------------------- Iteration      1(  19)  ---------------------------------------


    POTLOK:  cpu time    0.0661: real time    0.0663
    SETDIJ:  cpu time    0.0351: real time    0.0352
     EDDAV:  cpu time    1.6003: real time    1.6055
       DOS:  cpu time    0.0001: real time    0.0001
    CHARGE:  cpu time    0.1740: real time    0.1744
    MIXING:  cpu time    0.0039: real time    0.0039
    --------------------------------------------
      LOOP:  cpu time    1.8795: real time    1.8855

 eigenvalue-minimisations  :  1356
 total energy-change (2. order) :-0.4164505E-05  (-0.2109306E-07)
 number of electron      16.0000000 magnetization 
 augmentation part        0.3848350 magnetization 

 Broyden mixing:
  rms(total) = 0.67518E-04    rms(broyden)= 0.67516E-04
  rms(prec ) = 0.70575E-04
  weight for this iteration     100.00

 eigenvalues of (default mixing * dielectric matrix)
  average eigenvalue GAMMA=   3.9769
 24.8066  7.3556  4.5008  3.0904  2.7509  2.4558  2.0540  1.9768  1.6014  1.0710
  0.9916  0.9916  1.0153  1.0153

 Free energy of the ion-electron system (eV)
  ---------------------------------------------------
  alpha Z        PSCENC =        12.54445055
  Ewald energy   TEWEN  =      3098.87255521
  -Hartree energ DENC   =     -3623.08858543
  -exchange      EXHF   =         0.00000000
  -V(xc)+E(xc)   XCENC  =        55.22622719
  PAW double counting   =      1696.58383716    -1699.30705875
  entropy T*S    EENTRO =        -0.00000000
  eigenvalues    EBANDS =      -166.35022634
  atomic energy  EATOM  =       588.61769381
  Solvation  Ediel_sol  =         0.00000000
  ---------------------------------------------------
  free energy    TOTEN  =       -36.90110662 eV

  energy without entropy =      -36.90110662  energy(sigma->0) =      -36.90110662


--------------------------------------------------------------------------------------------------------




--------------------------------------- Iteration      1(  20)  ---------------------------------------


    POTLOK:  cpu time    0.0665: real time    0.0667
    SETDIJ:  cpu time    0.0350: real time    0.0351
     EDDAV:  cpu time    1.5486: real time    1.5537
       DOS:  cpu time    0.0002: real time    0.0001
    CHARGE:  cpu time    0.1771: real time    0.1775
    MIXING:  cpu time    0.0040: real time    0.0040
    --------------------------------------------
      LOOP:  cpu time    1.8313: real time    1.8371

 eigenvalue-minimisations  :  1284
 total energy-change (2. order) :-0.1031832E-05  (-0.4916846E-08)
 number of electron      16.0000000 magnetization 
 augmentation part        0.3848339 magnetization 

 Broyden mixing:
  rms(total) = 0.13541E-04    rms(broyden)= 0.13536E-04
  rms(prec ) = 0.14156E-04
  weight for this iteration     100.00

 eigenvalues of (default mixing * dielectric matrix)
  average eigenvalue GAMMA=   3.8483
 24.7970  7.3694  4.4843  3.2523  2.6799  2.6799  2.3277  2.0013  1.6010  1.4184
  1.0041  1.0041  1.0408  1.0408  1.0230

 Free energy of the ion-electron system (eV)
  ---------------------------------------------------
  alpha Z        PSCENC =        12.54445055
  Ewald energy   TEWEN  =      3098.87255521
  -Hartree energ DENC   =     -3623.09395697
  -exchange      EXHF   =         0.00000000
  -V(xc)+E(xc)   XCENC  =        55.22632037
  PAW double counting   =      1696.61878975    -1699.34205628
  entropy T*S    EENTRO =        -0.00000000
  eigenvalues    EBANDS =      -166.34490409
  atomic energy  EATOM  =       588.61769381
  Solvation  Ediel_sol  =         0.00000000
  ---------------------------------------------------
  free energy    TOTEN  =       -36.90110765 eV

  energy without entropy =      -36.90110765  energy(sigma->0) =      -36.90110765


--------------------------------------------------------------------------------------------------------




--------------------------------------- Iteration      1(  21)  ---------------------------------------


    POTLOK:  cpu time    0.0677: real time    0.0679
    SETDIJ:  cpu time    0.0381: real time    0.0382
     EDDAV:  cpu time    1.3397: real time    1.3441
       DOS:  cpu time    0.0001: real time    0.0001
    CHARGE:  cpu time    0.1861: real time    0.1866
    MIXING:  cpu time    0.0043: real time    0.0043
    --------------------------------------------
      LOOP:  cpu time    1.6361: real time    1.6413

 eigenvalue-minimisations  :   984
 total energy-change (2. order) :-0.1049918E-06  (-0.3414764E-09)
 number of electron      16.0000000 magnetization 
 augmentation part        0.3848340 magnetization 

 Broyden mixing:
  rms(total) = 0.32451E-05    rms(broyden)= 0.32234E-05
  rms(prec ) = 0.35652E-05
  weight for this iteration     100.00

 eigenvalues of (default mixing * dielectric matrix)
  average eigenvalue GAMMA=   3.7324
 24.7871  7.3724  4.4903  3.2672  2.7838  2.5030  2.5030  2.3728  1.9774  1.5982
  1.0902  0.9747  1.0115  1.0115  0.9873  0.9873

 Free energy of the ion-electron system (eV)
  ---------------------------------------------------
  alpha Z        PSCENC =        12.54445055
  Ewald energy   TEWEN  =      3098.87255521
  -Hartree energ DENC   =     -3623.09214135
  -exchange      EXHF   =         0.00000000
  -V(xc)+E(xc)   XCENC  =        55.22630047
  PAW double counting   =      1696.62728577    -1699.35055807
  entropy T*S    EENTRO =        -0.00000000
  eigenvalues    EBANDS =      -166.34669415
  atomic energy  EATOM  =       588.61769381
  Solvation  Ediel_sol  =         0.00000000
  ---------------------------------------------------
  free energy    TOTEN  =       -36.90110775 eV

  energy without entropy =      -36.90110775  energy(sigma->0) =      -36.90110775


--------------------------------------------------------------------------------------------------------




--------------------------------------- Iteration      1(  22)  ---------------------------------------


    POTLOK:  cpu time    0.0698: real time    0.0701
    SETDIJ:  cpu time    0.0389: real time    0.0390
     EDDAV:  cpu time    1.2190: real time    1.2229
       DOS:  cpu time    0.0002: real time    0.0002
    CHARGE:  cpu time    0.1862: real time    0.1867
    MIXING:  cpu time    0.0045: real time    0.0045
    --------------------------------------------
      LOOP:  cpu time    1.5186: real time    1.5234

 eigenvalue-minimisations  :   844
 total energy-change (2. order) :-0.3008677E-07  (-0.1024855E-09)
 number of electron      16.0000000 magnetization 
 augmentation part        0.3848340 magnetization 

 Broyden mixing:
  rms(total) = 0.13995E-05    rms(broyden)= 0.13484E-05
  rms(prec ) = 0.15149E-05
  weight for this iteration     100.00

 eigenvalues of (default mixing * dielectric matrix)
  average eigenvalue GAMMA=   3.6229
 24.7876  7.3703  4.5107  3.2438  3.1303  2.5803  2.5803  2.2495  2.0143  1.6181
  1.4235  1.0715  1.0441  0.9901  0.9901  0.9925  0.9925

 Free energy of the ion-electron system (eV)
  ---------------------------------------------------
  alpha Z        PSCENC =        12.54445055
  Ewald energy   TEWEN  =      3098.87255521
  -Hartree energ DENC   =     -3623.09266535
  -exchange      EXHF   =         0.00000000
  -V(xc)+E(xc)   XCENC  =        55.22630408
  PAW double counting   =      1696.62744161    -1699.35071151
  entropy T*S    EENTRO =        -0.00000000
  eigenvalues    EBANDS =      -166.34617618
  atomic energy  EATOM  =       588.61769381
  Solvation  Ediel_sol  =         0.00000000
  ---------------------------------------------------
  free energy    TOTEN  =       -36.90110778 eV

  energy without entropy =      -36.90110778  energy(sigma->0) =      -36.90110778


--------------------------------------------------------------------------------------------------------




--------------------------------------- Iteration      1(  23)  ---------------------------------------


    POTLOK:  cpu time    0.0705: real time    0.0708
    SETDIJ:  cpu time    0.0382: real time    0.0383
     EDDAV:  cpu time    1.2765: real time    1.2806
       DOS:  cpu time    0.0001: real time    0.0001
    --------------------------------------------
      LOOP:  cpu time    1.3854: real time    1.3898

 eigenvalue-minimisations  :   924
 total energy-change (2. order) : 0.1745548E-08  (-0.2045388E-10)
 number of electron      16.0000000 magnetization 
 augmentation part        0.3848340 magnetization 

 Free energy of the ion-electron system (eV)
  ---------------------------------------------------
  alpha Z        PSCENC =        12.54445055
  Ewald energy   TEWEN  =      3098.87255521
  -Hartree energ DENC   =     -3623.09285901
  -exchange      EXHF   =         0.00000000
  -V(xc)+E(xc)   XCENC  =        55.22630792
  PAW double counting   =      1696.62614283    -1699.34941455
  entropy T*S    EENTRO =        -0.00000000
  eigenvalues    EBANDS =      -166.34598454
  atomic energy  EATOM  =       588.61769381
  Solvation  Ediel_sol  =         0.00000000
  ---------------------------------------------------
  free energy    TOTEN  =       -36.90110778 eV

  energy without entropy =      -36.90110778  energy(sigma->0) =      -36.90110778


--------------------------------------------------------------------------------------------------------




 average (electrostatic) potential at core
  the test charge radii are     0.6991
  (the norm of the test charge is              1.0000)
       1 -56.6522       2 -56.6523       3 -56.6522       4 -56.6523
 
 
 
 E-fermi :  -1.4442     XC(G=0):  -3.9101     alpha+bet : -3.8262


 k-point     1 :       0.0000    0.0000    0.0000
  band No.  band energies     occupation 
      1     -20.8601      2.00000
      2     -20.7522      2.00000
      3      -9.2896      2.00000
      4      -8.5043      2.00000
      5      -4.2610      2.00000
      6      -4.2610      2.00000
      7      -4.2496      2.00000
      8      -4.2496      2.00000
      9       2.1417      0.00000
     10       2.5527      0.00000
     11       3.3172      0.00000
     12       4.5210      0.00000

 k-point     2 :       0.0476    0.0000    0.0000
  band No.  band energies     occupation 
      1     -20.8060      2.00000
      2     -20.6985      2.00000
      3      -9.2245      2.00000
      4      -8.4407      2.00000
      5      -4.4827      2.00000
      6      -4.4698      2.00000
      7      -4.3781      2.00000
      8      -4.3663      2.00000
      9       2.2140      0.00000
     10       2.6261      0.00000
     11       3.3913      0.00000
     12       4.5946      0.00000

 k-point     3 :       0.0952    0.0000    0.0000
  band No.  band energies     occupation 
      1     -20.6441      2.00000
      2     -20.5377      2.00000
      3      -9.0296      2.00000
      4      -8.2506      2.00000
      5      -5.1047      2.00000
      6      -5.0879      2.00000
      7      -4.6984      2.00000
      8      -4.6856      2.00000
      9       2.4312      0.00000
     10       2.8460      0.00000
     11       3.6137      0.00000
     12       4.8155      0.00000

 k-point     4 :       0.1429    0.0000    0.0000
  band No.  band energies     occupation 
      1     -20.3749      2.00000
      2     -20.2703      2.00000
      3      -8.7066      2.00000
      4      -7.9356      2.00000
      5      -6.0270      2.00000
      6      -6.0048      2.00000
      7      -5.1507      2.00000
      8      -5.1368      2.00000
      9       2.7932      0.00000
     10       3.2122      0.00000
     11       3.9843      0.00000
     12       5.1833      0.00000

 k-point     5 :       0.1905    0.0000    0.0000
  band No.  band energies     occupation 
      1     -19.9994      2.00000
      2     -19.8972      2.00000
      3      -8.2584      2.00000
      4      -7.4992      2.00000
      5      -7.1430      2.00000
      6      -7.1146      2.00000
      7      -5.6601      2.00000
      8      -5.6450      2.00000
      9       3.2992      0.00000
     10       3.7235      0.00000
     11       4.5028      0.00000
     12       5.6965      0.00000

 k-point     6 :       0.2381    0.0000    0.0000
  band No.  band energies     occupation 
      1     -19.5192      2.00000
      2     -19.4201      2.00000
      3      -8.3662      2.00000
      4      -8.3314      2.00000
      5      -7.6901      2.00000
      6      -6.9467      2.00000
      7      -6.1676      2.00000
      8      -6.1516      2.00000
      9       3.9481      0.00000
     10       4.3762      0.00000
     11       5.1676      0.00000
     12       6.1166      0.00000

 k-point     7 :       0.2857    0.0000    0.0000
  band No.  band energies     occupation 
      1     -18.9365      2.00000
      2     -18.8410      2.00000
      3      -9.6337      2.00000
      4      -9.5922      2.00000
      5      -7.0105      2.00000
      6      -6.6324      2.00000
      7      -6.6157      2.00000
      8      -6.2880      2.00000
      9       4.7292      0.00000
     10       4.8305      0.00000
     11       5.0556      0.00000
     12       5.4036      0.00000

 k-point     8 :       0.3333    0.0000    0.0000
  band No.  band energies     occupation 
      1     -18.2548      2.00000
      2     -18.1635      2.00000
      3     -10.9009      2.00000
      4     -10.8528      2.00000
      5      -7.0276      2.00000
      6      -7.0103      2.00000
      7      -6.2356      2.00000
      8      -5.5402      2.00000
      9       3.4527      0.00000
     10       3.9514      0.00000
     11       5.6550      0.00000
     12       6.1440      0.00000

 k-point     9 :       0.3810    0.0000    0.0000
  band No.  band energies     occupation 
      1     -17.4803      2.00000
      2     -17.3937      2.00000
      3     -12.1342      2.00000
      4     -12.0797      2.00000
      5      -7.3360      2.00000
      6      -7.3183      2.00000
      7      -5.3980      2.00000
      8      -4.7381      2.00000
      9       2.1326      0.00000
     10       2.7067      0.00000
     11       6.2792      0.00000
     12       6.4542      0.00000

 k-point    10 :       0.4286    0.0000    0.0000
  band No.  band energies     occupation 
      1     -16.6284      2.00000
      2     -16.5464      2.00000
      3     -13.3007      2.00000
      4     -13.2403      2.00000
      5      -7.5467      2.00000
      6      -7.5288      2.00000
      7      -4.5768      2.00000
      8      -3.9626      2.00000
      9       0.9731      0.00000
     10       1.6183      0.00000
     11       6.2075      0.00000
     12       6.3544      0.00000

 k-point    11 :       0.4762    0.0000    0.0000
  band No.  band energies     occupation 
      1     -15.7817      2.00000
      2     -15.7031      2.00000
      3     -14.3070      2.00000
      4     -14.2427      2.00000
      5      -7.6536      2.00000
      6      -7.6355      2.00000
      7      -3.9817      2.00000
      8      -3.4136      2.00000
      9       0.2041      0.00000
     10       0.9081      0.00000
     11       6.1562      0.00000
     12       6.3012      0.00000

 k-point    12 :       0.0952    0.0476    0.0000
  band No.  band energies     occupation 
      1     -20.6981      2.00000
      2     -20.5913      2.00000
      3      -9.0945      2.00000
      4      -8.3139      2.00000
      5      -4.8890      2.00000
      6      -4.8737      2.00000
      7      -4.6124      2.00000
      8      -4.5997      2.00000
      9       2.3588      0.00000
     10       2.7727      0.00000
     11       3.5396      0.00000
     12       4.7419      0.00000

 k-point    13 :       0.1429    0.0476    0.0000
  band No.  band energies     occupation 
      1     -20.4825      2.00000
      2     -20.3771      2.00000
      3      -8.8355      2.00000
      4      -8.0613      2.00000
      5      -5.6282      2.00000
      6      -5.6085      2.00000
      7      -5.0323      2.00000
      8      -5.0181      2.00000
      9       2.6485      0.00000
     10       3.0658      0.00000
     11       3.8361      0.00000
     12       5.0364      0.00000

 k-point    14 :       0.1905    0.0476    0.0000
[...]
      7      -6.1842      2.00000
      8      -6.1650      2.00000
      9       3.5170      0.00000
     10       3.9432      0.00000
     11       4.7258      0.00000
     12       5.9187      0.00000

 k-point    24 :       0.2857    0.0952    0.0000
  band No.  band energies     occupation 
      1     -19.3600      2.00000
      2     -19.2619      2.00000
      3      -8.4210      2.00000
      4      -8.3867      2.00000
      5      -7.5014      2.00000
      6      -6.7648      2.00000
      7      -6.7622      2.00000
      8      -6.7396      2.00000
      9       4.1664      0.00000
     10       4.5966      0.00000
     11       5.3915      0.00000
     12       5.9048      0.00000

 k-point    25 :       0.3333    0.0952    0.0000
  band No.  band energies     occupation 
      1     -18.7789      2.00000
      2     -18.6844      2.00000
      3      -9.6123      2.00000
      4      -9.5715      2.00000
      5      -7.2688      2.00000
      6      -7.2464      2.00000
      7      -6.8242      2.00000
      8      -6.1071      2.00000
      9       4.6364      0.00000
     10       4.9583      0.00000
     11       5.0170      0.00000
     12       5.4392      0.00000

 k-point    26 :       0.3810    0.0952    0.0000
  band No.  band energies     occupation 
      1     -18.0994      2.00000
      2     -18.0092      2.00000
      3     -10.8316      2.00000
      4     -10.7843      2.00000
      5      -7.6874      2.00000
      6      -7.6641      2.00000
      7      -6.0516      2.00000
      8      -5.3615      2.00000
      9       3.3325      0.00000
     10       3.8052      0.00000
     11       5.8836      0.00000
     12       6.3517      0.00000

 k-point    27 :       0.4286    0.0952    0.0000
  band No.  band energies     occupation 
      1     -17.3281      2.00000
      2     -17.2424      2.00000
      3     -12.0343      2.00000
      4     -11.9806      2.00000
      5      -8.0086      2.00000
      6      -7.9846      2.00000
      7      -5.2148      2.00000
      8      -4.5597      2.00000
      9       2.0615      0.00000
     10       2.6033      0.00000
     11       6.9064      0.00000
     12       7.3505      0.00000

 k-point    28 :       0.4762    0.0952    0.0000
  band No.  band energies     occupation 
      1     -16.4807      2.00000
      2     -16.3996      2.00000
      3     -13.1808      2.00000
      4     -13.1212      2.00000
      5      -8.2259      2.00000
      6      -8.2016      2.00000
      7      -4.3902      2.00000
      8      -3.7798      2.00000
      9       0.9305      0.00000
     10       1.5406      0.00000
     11       7.1246      0.00000
     12       7.2913      0.00000

 k-point    29 :      -0.4762    0.0952    0.0000
  band No.  band energies     occupation 
      1     -15.6405      2.00000
      2     -15.5629      2.00000
      3     -14.1737      2.00000
      4     -14.1101      2.00000
      5      -8.3355      2.00000
      6      -8.3110      2.00000
      7      -3.7859      2.00000
      8      -3.2208      2.00000
      9       0.1680      0.00000
     10       0.8356      0.00000
     11       7.0777      0.00000
     12       7.2386      0.00000

 k-point    30 :       0.2857    0.1429    0.0000
  band No.  band energies     occupation 
      1     -19.4131      2.00000
      2     -19.3147      2.00000
      3      -8.1352      2.00000
      4      -8.1029      2.00000
      5      -7.5633      2.00000
      6      -6.9252      2.00000
      7      -6.9030      2.00000
      8      -6.8223      2.00000
      9       4.0952      0.00000
     10       4.5263      0.00000
     11       5.3187      0.00000
     12       6.0832      0.00000

 k-point    31 :       0.3333    0.1429    0.0000
  band No.  band energies     occupation 
      1     -18.8844      2.00000
      2     -18.7893      2.00000
      3      -9.1044      2.00000
      4      -9.0670      2.00000
      5      -7.6038      2.00000
      6      -7.5776      2.00000
      7      -6.9436      2.00000
      8      -6.2222      2.00000
      9       4.8149      0.00000
     10       4.9551      0.00000
     11       5.2319      0.00000
     12       5.3477      0.00000

 k-point    32 :       0.3810    0.1429    0.0000
  band No.  band energies     occupation 
      1     -18.2560      2.00000
      2     -18.1648      2.00000
      3     -10.1993      2.00000
      4     -10.1559      2.00000
      5      -8.1476      2.00000
      6      -8.1196      2.00000
      7      -6.2198      2.00000
      8      -5.5223      2.00000
      9       3.7545      0.00000
     10       4.1749      0.00000
     11       5.6748      0.00000
     12       6.1230      0.00000

 k-point    33 :       0.4286    0.1429    0.0000
  band No.  band energies     occupation 
      1     -17.5329      2.00000
      2     -17.4461      2.00000
      3     -11.3482      2.00000
      4     -11.2984      2.00000
      5      -8.5594      2.00000
      6      -8.5301      2.00000
      7      -5.4123      2.00000
      8      -4.7452      2.00000
      9       2.5352      0.00000
     10       3.0135      0.00000
     11       6.6678      0.00000
     12       7.1258      0.00000

 k-point    34 :       0.4762    0.1429    0.0000
  band No.  band energies     occupation 
      1     -16.7251      2.00000
      2     -16.6429      2.00000
      3     -12.4888      2.00000
      4     -12.4330      2.00000
      5      -8.8495      2.00000
      6      -8.8195      2.00000
      7      -4.5662      2.00000
      8      -3.9378      2.00000
      9       1.3709      0.00000
     10       1.9109      0.00000
     11       7.7660      0.00000
     12       8.2427      0.00000

 k-point    35 :      -0.4762    0.1429    0.0000
  band No.  band energies     occupation 
      1     -15.8645      2.00000
      2     -15.7868      2.00000
      3     -13.5592      2.00000
      4     -13.4980      2.00000
      5      -9.0227      2.00000
      6      -8.9923      2.00000
      7      -3.8022      2.00000
      8      -3.2203      2.00000
      9       0.4058      0.00000
     10       1.0076      0.00000
     11       8.1026      0.00000
     12       8.2998      0.00000

 k-point    36 :      -0.4286    0.1429    0.0000
  band No.  band energies     occupation 
      1     -15.2561      2.00000
      2     -15.1799      2.00000
      3     -14.2391      2.00000
      4     -14.1760      2.00000
      5      -9.0804      2.00000
      6      -9.0498      2.00000
      7      -3.4449      2.00000
      8      -2.8922      2.00000
      9      -0.0203      0.00000
     10       0.6161      0.00000
     11       8.0809      0.00000
     12       8.2729      0.00000

 k-point    37 :       0.3810    0.1905    0.0000
  band No.  band energies     occupation 
      1     -18.3083      2.00000
      2     -18.2168      2.00000
      3      -9.8687      2.00000
      4      -9.8275      2.00000
      5      -8.4284      2.00000
      6      -8.3977      2.00000
      7      -6.2763      2.00000
      8      -5.5763      2.00000
      9       3.9138      0.00000
     10       4.3123      0.00000
     11       5.6043      0.00000
     12       6.0436      0.00000

 k-point    38 :       0.4286    0.1905    0.0000
  band No.  band energies     occupation 
      1     -17.6359      2.00000
      2     -17.5485      2.00000
      3     -10.7812      2.00000
      4     -10.7349      2.00000
      5      -9.0780      2.00000
      6      -9.0443      2.00000
      7      -5.5133      2.00000
      8      -4.8401      2.00000
      9       2.8192      0.00000
     10       3.2530      0.00000
     11       6.5294      0.00000
     12       6.9701      0.00000

 k-point    39 :       0.4762    0.1905    0.0000
  band No.  band energies     occupation 
      1     -16.8747      2.00000
      2     -16.7918      2.00000
      3     -11.8101      2.00000
      4     -11.7581      2.00000
      5      -9.5187      2.00000
      6      -9.4833      2.00000
      7      -4.6815      2.00000
      8      -4.0418      2.00000
      9       1.7152      0.00000
     10       2.1933      0.00000
     11       7.5826      0.00000
     12       8.0199      0.00000

 k-point    40 :      -0.4762    0.1905    0.0000
  band No.  band energies     occupation 
      1     -16.0414      2.00000
      2     -15.9631      2.00000
      3     -12.8615      2.00000
      4     -12.8038      2.00000
      5      -9.7904      2.00000
      6      -9.7541      2.00000
      7      -3.8460      2.00000
      8      -3.2475      2.00000
      9       0.6846      0.00000
     10       1.2142      0.00000
     11       8.7383      0.00000
     12       9.1759      0.00000

 k-point    41 :      -0.4286    0.1905    0.0000
  band No.  band energies     occupation 
      1     -15.2194      2.00000
      2     -15.1449      2.00000
      3     -13.8026      2.00000
      4     -13.7406      2.00000
      5      -9.9212      2.00000
      6      -9.8844      2.00000
      7      -3.2049      2.00000
      8      -2.6489      2.00000
      9      -0.0588      0.00000
     10       0.5196      0.00000
     11       9.2527      0.00000
     12       9.5463      0.00000

 k-point    42 :       0.4762    0.2381    0.0000
  band No.  band energies     occupation 
      1     -16.9249      2.00000
      2     -16.8418      2.00000
      3     -11.4381      2.00000
      4     -11.3882      2.00000
      5      -9.8928      2.00000
      6      -9.8548      2.00000
      7      -4.7214      2.00000
      8      -4.0780      2.00000
      9       1.8476      0.00000
     10       2.3000      0.00000
     11       7.5138      0.00000
     12       7.9387      0.00000

 k-point    43 :      -0.4762    0.2381    0.0000
  band No.  band energies     occupation 
      1     -16.1344      2.00000
      2     -16.0558      2.00000
      3     -12.2549      2.00000
      4     -12.2002      2.00000
      5     -10.4420      2.00000
      6     -10.4014      2.00000
      7      -3.8782      2.00000
      8      -3.2701      2.00000
      9       0.8720      0.00000
     10       1.3528      0.00000
     11       8.6130      0.00000
     12       9.1469      0.00000

 k-point    44 :      -0.4286    0.2381    0.0000
  band No.  band energies     occupation 
      1     -15.2970      2.00000
      2     -15.2230      2.00000
      3     -13.1635      2.00000
      4     -13.1038      2.00000
      5     -10.7278      2.00000
      6     -10.6859      2.00000
      7      -3.0763      2.00000
      8      -2.5086      2.00000
      9      -0.0124      0.00000
     10       0.5058      0.00000
     11       9.1297      0.00000
     12       9.7855      0.00000

 k-point    45 :      -0.3810    0.2381    0.0000
  band No.  band energies     occupation 
      1     -14.7025      2.00000
      2     -14.6307      2.00000
      3     -13.7914      2.00000
      4     -13.7294      2.00000
      5     -10.8152      2.00000
      6     -10.7730      2.00000
      7      -2.6594      2.00000
      8      -2.1190      2.00000
      9      -0.4577      0.00000
     10       0.0872      0.00000
     11       9.0659      0.00000
     12      10.4980      0.00000

 k-point    46 :      -0.4286    0.2857    0.0000
  band No.  band energies     occupation 
      1     -15.3316      2.00000
      2     -15.2576      2.00000
      3     -12.7833      2.00000
      4     -12.7250      2.00000
      5     -11.1590      2.00000
      6     -11.1150      2.00000
      7      -3.0381      2.00000
      8      -2.4643      2.00000
      9       0.0194      0.00000
     10       0.5116      0.00000
     11       8.9367      0.00000
     12       9.7250      0.00000

 k-point    47 :      -0.3810    0.2857    0.0000
  band No.  band energies     occupation 
      1     -14.5378      2.00000
      2     -14.4680      2.00000
      3     -13.4493      2.00000
      4     -13.3872      2.00000
      5     -11.5147      2.00000
      6     -11.4691      2.00000
      7      -2.2839      2.00000
      8      -1.7438      2.00000
      9      -0.7369      0.00000
     10      -0.2234      0.00000
     11       8.7155      0.00000
     12      10.2807      0.00000

 k-point    48 :      -0.3333    0.3333    0.0000
  band No.  band energies     occupation 
      1     -13.8760      2.00000
      2     -13.8760      2.00000
      3     -13.8102      2.00000
      4     -13.8102      2.00000
      5     -11.8570      2.00000
      6     -11.8104      2.00000
      7      -1.4968      2.00000
      8      -1.4967      2.00000
      9      -0.9760      0.00000
     10      -0.9760      0.00000
     11       8.5588      0.00000
     12      10.2677      0.00000


--------------------------------------------------------------------------------------------------------


 soft charge-density along one line, spin component           1
         0         1         2         3         4         5         6         7         8         9
 total charge-density along one line
 
 pseudopotential strength for first ion, spin component:           1
 10.124  13.462  -0.000   0.000   0.000   0.000  -0.000  -0.000
 13.462  17.898  -0.000   0.000   0.000   0.000  -0.000  -0.000
 -0.000  -0.000  -4.266  -0.000   0.000   8.344   0.000  -0.000
  0.000   0.000  -0.000  -4.258  -0.000   0.000   8.334   0.000
  0.000   0.000   0.000  -0.000  -4.266  -0.000   0.000   8.344
  0.000   0.000   8.344   0.000  -0.000 -18.453  -0.000   0.000
 -0.000  -0.000   0.000   8.334   0.000  -0.000 -18.444  -0.000
 -0.000  -0.000  -0.000   0.000   8.344   0.000  -0.000 -18.453
 total augmentation occupancy for first ion, spin component:           1
  8.120  -3.604   0.000   0.001   0.000  -0.000   0.000   0.000
 -3.604   1.658  -0.000  -0.000   0.000   0.000  -0.000   0.000
 -0.000  -0.000   1.836  -0.000   0.000   0.173   0.000   0.000
  0.001  -0.000  -0.000   1.201   0.000   0.000   0.073   0.000
 -0.000   0.000   0.000   0.000   1.836   0.000   0.000   0.173
  0.000  -0.000   0.173   0.000   0.000   0.018   0.000   0.000
  0.000  -0.000  -0.000   0.073   0.000  -0.000   0.005   0.000
 -0.000   0.000   0.000   0.000   0.173   0.000   0.000   0.018


------------------------ aborting loop because EDIFF is reached ----------------------------------------


    CHARGE:  cpu time    0.1789: real time    0.1794
    FORLOC:  cpu time    0.0050: real time    0.0050
    FORNL :  cpu time    0.3502: real time    0.3511
    STRESS:  cpu time    1.3223: real time    1.3255
    FORCOR:  cpu time    0.0698: real time    0.0700
    FORHAR:  cpu time    0.0187: real time    0.0188
    MIXING:  cpu time    0.0043: real time    0.0043
    OFIELD:  cpu time    0.0000: real time    0.0000

  FORCE on cell =-STRESS in cart. coord.  units (eV):
  Direction    XX          YY          ZZ          XY          YZ          ZX
  --------------------------------------------------------------------------------------
  Alpha Z    12.54445    12.54445    12.54445
  Ewald    3637.93236  3637.93112 -4176.99122    -0.00000    -0.00000     0.00000
  Hartree  3600.48589  3600.48588 -3577.87904    -0.00000    -0.00000    -0.00000
  E(xc)     -59.56066   -59.56066   -61.72215    -0.00000    -0.00000     0.00000
  Local   -7415.76179 -7415.76118  7543.21037    -0.00000     0.00000     0.00000
  n-local   -14.82252   -13.74720   -13.04008     0.71135    -0.00000    -0.00000
  augment    -1.57199    -1.57200    -1.44465    -0.00000    -0.00000     0.00000
  Kinetic   245.08401   236.88289   275.70161    -6.60176     0.00000    -0.00000
  Fock        0.00000     0.00000     0.00000     0.00000     0.00000     0.00000
  -------------------------------------------------------------------------------------
  Total       0.76652     0.76652     0.37929     0.00000     0.00000     0.00000
  in kB      11.72135    11.72135     5.80000     0.00000     0.00000     0.00000
  external pressure =        9.75 kB  Pullay stress =        0.00 kB


 VOLUME and BASIS-vectors are now :
 -----------------------------------------------------------------------------
  energy-cutoff  :      800.00
  volume of cell :      104.78
      direct lattice vectors                 reciprocal lattice vectors
     2.130000000 -1.229756000  0.000000000     0.234741784 -0.406584721  0.000000000
     2.130000000  1.229756000  0.000000000     0.234741784  0.406584721  0.000000000
     0.000000000  0.000000000 20.000000000     0.000000000  0.000000000  0.050000000

  length of vectors
     2.459512110  2.459512110 20.000000000     0.469483589  0.469483589  0.050000000


 FORCES acting on ions
    electron-ion (+dipol)            ewald-force                    non-local-force                 convergence-correction
 -----------------------------------------------------------------------------------------------
   -.879E-05 -.932E-12 0.359E+03   -.241E-03 0.713E-14 -.359E+03   0.721E-16 -.624E-17 -.367E-01   -.174E-10 0.168E-14 0.275E-04
   0.262E-03 0.110E-11 0.359E+03   0.241E-03 -.551E-14 -.359E+03   0.393E-16 0.903E-17 -.367E-01   0.317E-10 -.197E-14 0.275E-04
   -.880E-05 0.287E-12 -.359E+03   -.241E-03 0.778E-14 0.359E+03   -.674E-16 0.826E-16 0.367E-01   -.175E-10 0.188E-14 -.275E-04
   0.262E-03 -.205E-12 -.359E+03   0.241E-03 -.485E-14 0.359E+03   0.365E-16 0.961E-17 0.367E-01   0.310E-10 -.255E-14 -.275E-04
 -----------------------------------------------------------------------------------------------
   0.506E-03 0.246E-12 -.129E-03   0.858E-14 0.456E-14 0.000E+00   0.806E-16 0.950E-16 -.208E-16   0.277E-10 -.953E-15 -.197E-09
 
 
 POSITION                                       TOTAL-FORCE (eV/Angst)
 -----------------------------------------------------------------------------------
      0.00000      0.00000      0.00000         0.000000     -0.000000     -0.060504
      1.42000      0.00000      0.00000        -0.000000     -0.000000     -0.060504
      0.00000      0.00000      3.50000         0.000000      0.000000      0.060504
      1.42000      0.00000      3.50000        -0.000000     -0.000000      0.060504
 -----------------------------------------------------------------------------------
    total drift:                                0.000506      0.000000     -0.000129


--------------------------------------------------------------------------------------------------------



  FREE ENERGIE OF THE ION-ELECTRON SYSTEM (eV)
  ---------------------------------------------------
  free  energy   TOTEN  =       -36.90110778 eV

  energy  without entropy=      -36.90110778  energy(sigma->0) =      -36.90110778
 


--------------------------------------------------------------------------------------------------------


    POTLOK:  cpu time    0.1011: real time    0.1014


--------------------------------------------------------------------------------------------------------


     LOOP+:  cpu time   44.5086: real time   44.8175
    4ORBIT:  cpu time    0.0000: real time    0.0000

 total amount of memory used by VASP MPI-rank0   107376. kBytes
=======================================================================

   base      :      30000. kBytes
   nonl-proj :      16997. kBytes
   fftplans  :      32720. kBytes
   grid      :      15086. kBytes
   one-center:         12. kBytes
   wavefun   :      12561. kBytes
 
  
  
 General timing and accounting informations for this job:
 ========================================================
  
                  Total CPU time used (sec):       46.501
                            User time (sec):       45.638
                          System time (sec):        0.863
                         Elapsed time (sec):       47.200
  
                   Maximum memory used (kb):      171528.
                   Average memory used (kb):           0.
  
                          Minor page faults:       186423
                          Major page faults:            0
                 Voluntary context switches:         3859
