 vasp.5.4.4.18Apr17-6-g9f103f2a35 (build May 31 2018 21:15:54) complex          
  
 executed on          c7_intel_O1 date 2020.07.23  19:22:19
 running on    4 total cores
 distrk:  each k-point on    4 cores,    1 groups
 distr:  one band on NCORES_PER_BAND=   1 cores,    4 groups


--------------------------------------------------------------------------------------------------------


 INCAR:
 POTCAR:    PAW_PBE C 08Apr2002                   
 POTCAR:    PAW_PBE C 08Apr2002                   
   VRHFIN =C: s2p2                                                              
   LEXCH  = PE                                                                  
   EATOM  =   147.1560 eV,   10.8157 Ry                                         
                                                                                
   TITEL  = PAW_PBE C 08Apr2002                                                 
   LULTRA =        F    use ultrasoft PP ?                                      
   IUNSCR =        1    unscreen: 0-lin 1-nonlin 2-no                           
   RPACOR =    1.200    partial core radius                                     
   POMASS =   12.011; ZVAL   =    4.000    mass and valenz                      
   RCORE  =    1.500    outmost cutoff radius                                   
   RWIGS  =    1.630; RWIGS  =    0.863    wigner-seitz radius (au A)           
   ENMAX  =  400.000; ENMIN  =  300.000 eV                                      
   ICORE  =        2    local potential                                         
   LCOR   =        T    correct aug charges                                     
   LPAW   =        T    paw PP                                                  
   EAUG   =  644.873                                                            
   DEXC   =    0.000                                                            
   RMAX   =    1.529    core radius for proj-oper                               
   RAUG   =    1.300    factor for augmentation sphere                          
   RDEP   =    1.501    radius for radial grids                                 
   RDEPT  =    1.300    core radius for aug-charge                              
                                                                                
   Atomic configuration                                                         
    4 entries                                                                   
     n  l   j            E        occ.                                          
     1  0  0.50      -273.3789   2.0000                                         
     2  0  0.50       -13.7508   2.0000                                         
     2  1  0.50        -5.2854   2.0000                                         
     3  2  1.50        -5.4423   0.0000                                         
   Description                                                                  
     l       E           TYP  RCUT    TYP  RCUT                                 
     0    -13.7508458     23  1.200                                             
     0     -8.2022199     23  1.200                                             
     1     -5.2854383     23  1.500                                             
     1     34.0145650     23  1.500                                             
     2     -5.4423304      7  1.500                                             
  local pseudopotential read in
  partial core-charges read in
  partial kinetic energy density read in
  atomic valenz-charges read in
  non local Contribution for L=           0  read in
    real space projection operators read in
  non local Contribution for L=           0  read in
    real space projection operators read in
  non local Contribution for L=           1  read in
    real space projection operators read in
  non local Contribution for L=           1  read in
    real space projection operators read in
    PAW grid and wavefunctions read in
 
   number of l-projection  operators is LMAX  =           4
   number of lm-projection operators is LMMAX =           8
 
  PAW_PBE C 08Apr2002                   :
 energy of atom  1       EATOM= -147.1560
 kinetic energy error for atom=    0.0016 (will be added to EATOM!!)
 
 
 POSCAR: C2_bilayer                              
  positions in direct lattice
  No initial velocities read in
 exchange correlation table for  LEXCH =        8
   RHO(1)=    0.500       N(1)  =     2000
   RHO(2)=  100.500       N(2)  =     4000
 


--------------------------------------------------------------------------------------------------------


 ion  position               nearest neighbor table
   1  0.000  0.000  0.000-   2 1.42   2 1.42   2 1.42
   2  0.333  0.333  0.000-   1 1.42   1 1.42   1 1.42
   3  0.000  0.000  0.225-   4 1.42   4 1.42   4 1.42
   4  0.333  0.333  0.225-   3 1.42   3 1.42   3 1.42
 
  LATTYP: Found a hexagonal cell.
 ALAT       =     2.4595120000
 C/A-ratio  =     8.1316944174
  
  Lattice vectors:
  
 A1 = (   0.0000000000,  -2.4595120000,   0.0000000000)
 A2 = (  -2.1300000000,   1.2297560000,   0.0000000000)
 A3 = (   0.0000000000,   0.0000000000, -20.0000000000)


Analysis of symmetry for initial positions (statically):
=====================================================================
 Subroutine PRICEL returns:
 Original cell was already a primitive cell.
 

 Routine SETGRP: Setting up the symmetry group for a 
 hexagonal supercell.


 Subroutine GETGRP returns: Found 24 space group operations
 (whereof  6 operations were pure point group operations)
 out of a pool of 24 trial point group operations.


The static configuration has the point symmetry C_3v.
 The point group associated with its full space group is D_6h.


Analysis of symmetry for dynamics (positions and initial velocities):
=====================================================================
 Subroutine PRICEL returns:
 Original cell was already a primitive cell.
 

 Routine SETGRP: Setting up the symmetry group for a 
 hexagonal supercell.


 Subroutine GETGRP returns: Found 24 space group operations
 (whereof  6 operations were pure point group operations)
 out of a pool of 24 trial point group operations.


The dynamic configuration has the point symmetry C_3v.
 The point group associated with its full space group is D_6h.


 Subroutine INISYM returns: Found 24 space group operations
 (whereof  6 operations are pure point group operations),
 and found     1 'primitive' translations

 
 
 KPOINTS: k grid                                  

Automatic generation of k-mesh.
Space group operators:
 irot       det(A)        alpha          n_x          n_y          n_z        tau_x        tau_y        tau_z
    1     1.000000     0.000000     1.000000     0.000000     0.000000     0.000000     0.000000     0.000000
    2     1.000000   120.000000     0.000000     0.000000     1.000000     0.000000     0.000000     0.000000
    3     1.000000   120.000000     0.000000     0.000000    -1.000000     0.000000     0.000000     0.000000
    4    -1.000000   180.000000    -0.000000     1.000000     0.000000     0.000000     0.000000     0.000000
    5    -1.000000   180.000000     0.866025    -0.500000     0.000000     0.000000     0.000000     0.000000
    6    -1.000000   180.000000     0.866025     0.500000     0.000000     0.000000     0.000000     0.000000
    7    -1.000000     0.000000     1.000000     0.000000     0.000000     0.333333    -0.666667    -0.775000
    8     1.000000    60.000000     0.000000     0.000000     1.000000     0.333333    -0.666667     0.000000
    9    -1.000000    60.000000     0.000000     0.000000     1.000000    -0.000001    -0.000000    -0.775000
   10    -1.000000   120.000000     0.000000     0.000000     1.000000     0.333333    -0.666667    -0.775000
   11     1.000000   180.000000     0.000000     0.000000     1.000000     0.333333    -0.666667     0.000000
   12    -1.000000   180.000000     0.000000     0.000000     1.000000     0.000000     0.000000    -0.775000
   13    -1.000000   120.000000     0.000000     0.000000    -1.000000     0.333333    -0.666667    -0.775000
   14     1.000000    60.000000     0.000000     0.000000    -1.000000     0.333333    -0.666667     0.000000
   15    -1.000000    60.000000     0.000000     0.000000    -1.000000    -0.000000    -0.000001    -0.775000
   16     1.000000   180.000000    -0.000000     1.000000     0.000000     0.333333    -0.666667    -0.775000
   17     1.000000   180.000000     0.500000    -0.866025     0.000000    -0.000000    -0.000001    -0.775000
   18    -1.000000   180.000000     0.500000    -0.866025     0.000000     0.333333    -0.666667     0.000000
   19     1.000000   180.000000     0.866025    -0.500000     0.000000     0.333333    -0.666667    -0.775000
   20     1.000000   180.000000     1.000000     0.000000     0.000000     0.000000     0.000000    -0.775000
   21    -1.000000   180.000000     1.000000     0.000000     0.000000     0.333333    -0.666667     0.000000
   22     1.000000   180.000000     0.866025     0.500000     0.000000     0.333333    -0.666667    -0.775000
   23     1.000000   180.000000    -0.500000    -0.866025     0.000000    -0.000001    -0.000000    -0.775000
   24    -1.000000   180.000000    -0.500000    -0.866025     0.000000     0.333333    -0.666667     0.000000
 
 Subroutine IBZKPT returns following result:
 ===========================================
 
 Found     48 irreducible k-points:
 
 Following reciprocal coordinates:
            Coordinates               Weight
  0.000000  0.000000  0.000000      1.000000
  0.047619  0.000000  0.000000      6.000000
  0.095238  0.000000  0.000000      6.000000
  0.142857  0.000000  0.000000      6.000000
  0.190476  0.000000  0.000000      6.000000
  0.238095  0.000000  0.000000      6.000000
  0.285714  0.000000  0.000000      6.000000
  0.333333  0.000000  0.000000      6.000000
  0.380952  0.000000  0.000000      6.000000
  0.428571  0.000000  0.000000      6.000000
  0.476190  0.000000  0.000000      6.000000
  0.095238  0.047619  0.000000      6.000000
  0.142857  0.047619  0.000000     12.000000
  0.190476  0.047619  0.000000     12.000000
  0.238095  0.047619  0.000000     12.000000
  0.285714  0.047619  0.000000     12.000000
  0.333333  0.047619  0.000000     12.000000
  0.380952  0.047619  0.000000     12.000000
  0.428571  0.047619  0.000000     12.000000
  0.476190  0.047619  0.000000     12.000000
 -0.476190  0.047619  0.000000      6.000000
  0.190476  0.095238  0.000000      6.000000
  0.238095  0.095238  0.000000     12.000000
  0.285714  0.095238  0.000000     12.000000
  0.333333  0.095238  0.000000     12.000000
  0.380952  0.095238  0.000000     12.000000
  0.428571  0.095238  0.000000     12.000000
  0.476190  0.095238  0.000000     12.000000
 -0.476190  0.095238  0.000000     12.000000
  0.285714  0.142857  0.000000      6.000000
  0.333333  0.142857  0.000000     12.000000
  0.380952  0.142857  0.000000     12.000000
  0.428571  0.142857  0.000000     12.000000
  0.476190  0.142857  0.000000     12.000000
 -0.476190  0.142857  0.000000     12.000000
 -0.428571  0.142857  0.000000      6.000000
  0.380952  0.190476  0.000000      6.000000
  0.428571  0.190476  0.000000     12.000000
  0.476190  0.190476  0.000000     12.000000
 -0.476190  0.190476  0.000000     12.000000
 -0.428571  0.190476  0.000000     12.000000
  0.476190  0.238095  0.000000      6.000000
 -0.476190  0.238095  0.000000     12.000000
 -0.428571  0.238095  0.000000     12.000000
 -0.380952  0.238095  0.000000      6.000000
 -0.428571  0.285714  0.000000      6.000000
 -0.380952  0.285714  0.000000     12.000000
 -0.333333  0.333333  0.000000      2.000000
 
 Following cartesian coordinates:
            Coordinates               Weight
  0.000000  0.000000  0.000000      1.000000
  0.011178 -0.019361  0.000000      6.000000
  0.022356 -0.038722  0.000000      6.000000
  0.033535 -0.058084  0.000000      6.000000
  0.044713 -0.077445  0.000000      6.000000
  0.055891 -0.096806  0.000000      6.000000
  0.067069 -0.116167  0.000000      6.000000
  0.078247 -0.135528  0.000000      6.000000
  0.089425 -0.154889  0.000000      6.000000
  0.100604 -0.174251  0.000000      6.000000
  0.111782 -0.193612  0.000000      6.000000
  0.033535 -0.019361  0.000000      6.000000
  0.044713 -0.038722  0.000000     12.000000
  0.055891 -0.058084  0.000000     12.000000
  0.067069 -0.077445  0.000000     12.000000
  0.078247 -0.096806  0.000000     12.000000
  0.089425 -0.116167  0.000000     12.000000
  0.100604 -0.135528  0.000000     12.000000
  0.111782 -0.154889  0.000000     12.000000
  0.122960 -0.174251  0.000000     12.000000
 -0.100604  0.212973  0.000000      6.000000
  0.067069 -0.038722  0.000000      6.000000
  0.078247 -0.058084  0.000000     12.000000
  0.089425 -0.077445  0.000000     12.000000
  0.100604 -0.096806  0.000000     12.000000
  0.111782 -0.116167  0.000000     12.000000
  0.122960 -0.135528  0.000000     12.000000
  0.134138 -0.154889  0.000000     12.000000
 -0.089425  0.232334  0.000000     12.000000
  0.100604 -0.058084  0.000000      6.000000
  0.111782 -0.077445  0.000000     12.000000
  0.122960 -0.096806  0.000000     12.000000
  0.134138 -0.116167  0.000000     12.000000
  0.145316 -0.135528  0.000000     12.000000
 -0.078247  0.251695  0.000000     12.000000
 -0.067069  0.232334  0.000000      6.000000
  0.134138 -0.077445  0.000000      6.000000
  0.145316 -0.096806  0.000000     12.000000
  0.156495 -0.116167  0.000000     12.000000
 -0.067069  0.271056  0.000000     12.000000
 -0.055891  0.251695  0.000000     12.000000
  0.167673 -0.096806  0.000000      6.000000
 -0.055891  0.290418  0.000000     12.000000
 -0.044713  0.271056  0.000000     12.000000
 -0.033535  0.251695  0.000000      6.000000
 -0.033535  0.290418  0.000000      6.000000
 -0.022356  0.271056  0.000000     12.000000
  0.000000  0.271056  0.000000      2.000000
 


--------------------------------------------------------------------------------------------------------




 Dimension of arrays:
   k-points           NKPTS =     48   k-points in BZ     NKDIM =     48   number of bands    NBANDS=     12
   number of dos      NEDOS =    301   number of ions     NIONS =      4
   non local maximal  LDIM  =      4   non local SUM 2l+1 LMDIM =      8
   total plane-waves  NPLWV = 110592
   max r-space proj   IRMAX =      1   max aug-charges    IRDMAX=  99836
   dimension x,y,z NGX =    24 NGY =   24 NGZ =  192
   dimension x,y,z NGXF=    48 NGYF=   48 NGZF=  384
   support grid    NGXF=    96 NGYF=   96 NGZF=  768
   ions per type =               4
   NGX,Y,Z   is equivalent  to a cutoff of  16.22, 16.22, 15.96 a.u.
   NGXF,Y,Z  is equivalent  to a cutoff of  32.44, 32.44, 31.92 a.u.

 SYSTEM =  C:graphene                              
 POSCAR =  C2_bilayer                              

 Startparameter for this run:
   NWRITE =      2    write-flag & timer
   PREC   = accura    normal or accurate (medium, high low for compatibility)
   ISTART =      0    job   : 0-new  1-cont  2-samecut
   ICHARG =      2    charge: 1-file 2-atom 10-const
   ISPIN  =      1    spin polarized calculation?
   LNONCOLLINEAR =      F non collinear calculations
   LSORBIT =      F    spin-orbit coupling
   INIWAV =      1    electr: 0-lowe 1-rand  2-diag
   LASPH  =      F    aspherical Exc in radial PAW
   METAGGA=      F    non-selfconsistent MetaGGA calc.

 Electronic Relaxation 1
   ENCUT  =  800.0 eV  58.80 Ry    7.67 a.u.   5.67  5.67 46.12*2*pi/ulx,y,z
   ENINI  =  800.0     initial cutoff
   ENAUG  =  644.9 eV  augmentation charge cutoff
   NELM   =     60;   NELMIN=  5; NELMDL= -5     # of ELM steps 
   EDIFF  = 0.1E-07   stopping-criterion for ELM
   LREAL  =      F    real-space projection
   NLSPLINE    = F    spline interpolate recip. space projectors
   LCOMPAT=      F    compatible to vasp.4.4
   GGA_COMPAT  = T    GGA compatible to vasp.4.4-vasp.4.6
   LMAXPAW     = -100 max onsite density
   LMAXMIX     =    2 max onsite mixed and CHGCAR
   VOSKOWN=      0    Vosko Wilk Nusair interpolation
   ROPT   =    0.00000
 Ionic relaxation
   EDIFFG = 0.1E-06   stopping-criterion for IOM
   NSW    =      1    number of steps for IOM
   NBLOCK =      1;   KBLOCK =      1    inner block; outer block 
   IBRION =     -1    ionic relax: 0-MD 1-quasi-New 2-CG
   NFREE  =      0    steps in history (QN), initial steepest desc. (CG)
   ISIF   =      2    stress and relaxation
   IWAVPR =     10    prediction:  0-non 1-charg 2-wave 3-comb
   ISYM   =      2    0-nonsym 1-usesym 2-fastsym
   LCORR  =      T    Harris-Foulkes like correction to forces

   POTIM  = 0.5000    time-step for ionic-motion
   TEIN   =    0.0    initial temperature
   TEBEG  =    0.0;   TEEND  =   0.0 temperature during run
   SMASS  =  -3.00    Nose mass-parameter (am)
   estimated Nose-frequenzy (Omega)   =  0.10E-29 period in steps =****** mass=  -0.138E-27a.u.
   SCALEE = 1.0000    scale energy and forces
   NPACO  =    256;   APACO  = 16.0  distance and # of slots for P.C.
   PSTRESS=    0.0 pullay stress

  Mass of Ions in am
   POMASS =  12.01
  Ionic Valenz
   ZVAL   =   4.00
  Atomic Wigner-Seitz radii
   RWIGS  =  -1.00
  virtual crystal weights 
   VCA    =   1.00
   NELECT =      16.0000    total number of electrons
   NUPDOWN=      -1.0000    fix difference up-down

 DOS related values:
   EMIN   =  10.00;   EMAX   =-10.00  energy-range for DOS
   EFERMI =   0.00
   ISMEAR =     0;   SIGMA  =   0.01  broadening in eV -4-tet -1-fermi 0-gaus

 Electronic relaxation 2 (details)
   IALGO  =     38    algorithm
   LDIAG  =      T    sub-space diagonalisation (order eigenvalues)
   LSUBROT=      F    optimize rotation matrix (better conditioning)
   TURBO    =      0    0=normal 1=particle mesh
   IRESTART =      0    0=no restart 2=restart with 2 vectors
   NREBOOT  =      0    no. of reboots
   NMIN     =      0    reboot dimension
   EREF     =   0.00    reference energy to select bands
   IMIX   =      4    mixing-type and parameters
     AMIX     =   0.40;   BMIX     =  1.00
     AMIX_MAG =   1.60;   BMIX_MAG =  1.00
     AMIN     =   0.01
     WC   =   100.;   INIMIX=   1;  MIXPRE=   1;  MAXMIX= -45

 Intra band minimization:
   WEIMIN = 0.0000     energy-eigenvalue tresh-hold
   EBREAK =  0.21E-09  absolut break condition
   DEPER  =   0.30     relativ break condition  

   TIME   =   0.40     timestep for ELM

  volume/ion in A,a.u.               =      26.19       176.76
  Fermi-wavevector in a.u.,A,eV,Ry     =   0.875041  1.653589 10.417948  0.765698
  Thomas-Fermi vector in A             =   1.994657
 
 Write flags
   LWAVE        =      F    write WAVECAR
   LDOWNSAMPLE  =      F    k-point downsampling of WAVECAR
   LCHARG       =      T    write CHGCAR
   LVTOT        =      F    write LOCPOT, total local potential
   LVHAR        =      F    write LOCPOT, Hartree potential only
   LELF         =      F    write electronic localiz. function (ELF)
   LORBIT       =      0    0 simple, 1 ext, 2 COOP (PROOUT), +10 PAW based schemes


 Dipole corrections
   LMONO  =      F    monopole corrections only (constant potential shift)
   LDIPOL =      F    correct potential (dipole corrections)
   IDIPOL =      0    1-x, 2-y, 3-z, 4-all directions 
   EPSILON=  1.0000000 bulk dielectric constant

 Exchange correlation treatment:
   GGA     =    --    GGA type
   LEXCH   =     8    internal setting for exchange type
   VOSKOWN=      0    Vosko Wilk Nusair interpolation
   LHFCALC =     F    Hartree Fock is set to
   LHFONE  =     F    Hartree Fock one center treatment
   AEXX    =    0.0000 exact exchange contribution

 Linear response parameters
   LEPSILON=     F    determine dielectric tensor
   LRPA    =     F    only Hartree local field effects (RPA)
   LNABLA  =     F    use nabla operator in PAW spheres
   LVEL    =     F    velocity operator in full k-point grid
   LINTERFAST=   F  fast interpolation
   KINTER  =     0    interpolate to denser k-point grid
   CSHIFT  =0.1000    complex shift for real part using Kramers Kronig
   OMEGAMAX=  -1.0    maximum frequency
   DEG_THRESHOLD= 0.2000000E-02 threshold for treating states as degnerate
   RTIME   =   -0.100 relaxation time in fs
  (WPLASMAI=    0.000 imaginary part of plasma frequency in eV, 0.658/RTIME)
   DFIELD  = 0.0000000 0.0000000 0.0000000 field for delta impulse in time
 
 Orbital magnetization related:
   ORBITALMAG=     F  switch on orbital magnetization
   LCHIMAG   =     F  perturbation theory with respect to B field
   DQ        =  0.001000  dq finite difference perturbation B field
   LLRAUG    =     F  two centre corrections for induced B field



--------------------------------------------------------------------------------------------------------


 Static calculation
 charge density and potential will be updated during run
 non-spin polarized calculation
 Variant of blocked Davidson
 Davidson routine will perform the subspace rotation
 perform sub-space diagonalisation
    after iterative eigenvector-optimisation
 modified Broyden-mixing scheme, WC =      100.0
 initial mixing is a Kerker type mixing with AMIX =  0.4000 and BMIX =      1.0000
 Hartree-type preconditioning will be used
 using additional bands            4
 reciprocal scheme for non local part
 use partial core corrections
 calculate Harris-corrections to forces 
   (improved forces if not selfconsistent)
 use gradient corrections 
 use of overlap-Matrix (Vanderbilt PP)
 Gauss-broadening in eV      SIGMA  =   0.01


--------------------------------------------------------------------------------------------------------


  energy-cutoff  :      800.00
  volume of cell :      104.78
      direct lattice vectors                 reciprocal lattice vectors
     2.130000000 -1.229756000  0.000000000     0.234741784 -0.406584721  0.000000000
     2.130000000  1.229756000  0.000000000     0.234741784  0.406584721  0.000000000
     0.000000000  0.000000000 20.000000000     0.000000000  0.000000000  0.050000000

  length of vectors
     2.459512110  2.459512110 20.000000000     0.469483589  0.469483589  0.050000000


 
 k-points in units of 2pi/SCALE and weight: k grid                                  
   0.00000000  0.00000000  0.00000000       0.002
   0.01117818 -0.01936118  0.00000000       0.014
   0.02235636 -0.03872235  0.00000000       0.014
   0.03353454 -0.05808353  0.00000000       0.014
   0.04471272 -0.07744471  0.00000000       0.014
   0.05589090 -0.09680589  0.00000000       0.014
   0.06706908 -0.11616706  0.00000000       0.014
   0.07824726 -0.13552824  0.00000000       0.014
   0.08942544 -0.15488942  0.00000000       0.014
   0.10060362 -0.17425059  0.00000000       0.014
   0.11178180 -0.19361177  0.00000000       0.014
   0.03353454 -0.01936118  0.00000000       0.014
   0.04471272 -0.03872235  0.00000000       0.027
   0.05589090 -0.05808353  0.00000000       0.027
   0.06706908 -0.07744471  0.00000000       0.027
   0.07824726 -0.09680589  0.00000000       0.027
   0.08942544 -0.11616706  0.00000000       0.027
   0.10060362 -0.13552824  0.00000000       0.027
   0.11178180 -0.15488942  0.00000000       0.027
   0.12295998 -0.17425059  0.00000000       0.027
  -0.10060362  0.21297295  0.00000000       0.014
   0.06706908 -0.03872235  0.00000000       0.014
   0.07824726 -0.05808353  0.00000000       0.027
   0.08942544 -0.07744471  0.00000000       0.027
   0.10060362 -0.09680589  0.00000000       0.027
   0.11178180 -0.11616706  0.00000000       0.027
   0.12295998 -0.13552824  0.00000000       0.027
   0.13413816 -0.15488942  0.00000000       0.027
  -0.08942544  0.23233413  0.00000000       0.027
   0.10060362 -0.05808353  0.00000000       0.014
   0.11178180 -0.07744471  0.00000000       0.027
   0.12295998 -0.09680589  0.00000000       0.027
   0.13413816 -0.11616706  0.00000000       0.027
   0.14531634 -0.13552824  0.00000000       0.027
  -0.07824726  0.25169530  0.00000000       0.027
  -0.06706908  0.23233413  0.00000000       0.014
   0.13413816 -0.07744471  0.00000000       0.014
   0.14531634 -0.09680589  0.00000000       0.027
   0.15649452 -0.11616706  0.00000000       0.027
  -0.06706908  0.27105648  0.00000000       0.027
  -0.05589090  0.25169530  0.00000000       0.027
   0.16767270 -0.09680589  0.00000000       0.014
  -0.05589090  0.29041766  0.00000000       0.027
  -0.04471272  0.27105648  0.00000000       0.027
  -0.03353454  0.25169530  0.00000000       0.014
  -0.03353454  0.29041766  0.00000000       0.014
  -0.02235636  0.27105648  0.00000000       0.027
   0.00000000  0.27105648  0.00000000       0.005
 
 k-points in reciprocal lattice and weights: k grid                                  
   0.00000000  0.00000000  0.00000000       0.002
   0.04761905  0.00000000  0.00000000       0.014
   0.09523810  0.00000000  0.00000000       0.014
   0.14285714  0.00000000  0.00000000       0.014
   0.19047619  0.00000000  0.00000000       0.014
   0.23809524  0.00000000  0.00000000       0.014
   0.28571429  0.00000000  0.00000000       0.014
   0.33333333  0.00000000  0.00000000       0.014
   0.38095238  0.00000000  0.00000000       0.014
   0.42857143  0.00000000  0.00000000       0.014
   0.47619048  0.00000000  0.00000000       0.014
   0.09523810  0.04761905  0.00000000       0.014
   0.14285714  0.04761905  0.00000000       0.027
   0.19047619  0.04761905  0.00000000       0.027
   0.23809524  0.04761905  0.00000000       0.027
   0.28571429  0.04761905  0.00000000       0.027
   0.33333333  0.04761905  0.00000000       0.027
   0.38095238  0.04761905  0.00000000       0.027
   0.42857143  0.04761905  0.00000000       0.027
   0.47619048  0.04761905  0.00000000       0.027
  -0.47619048  0.04761905  0.00000000       0.014
   0.19047619  0.09523810  0.00000000       0.014
   0.23809524  0.09523810  0.00000000       0.027
   0.28571429  0.09523810  0.00000000       0.027
   0.33333333  0.09523810  0.00000000       0.027
   0.38095238  0.09523810  0.00000000       0.027
   0.42857143  0.09523810  0.00000000       0.027
   0.47619048  0.09523810  0.00000000       0.027
  -0.47619048  0.09523810  0.00000000       0.027
   0.28571429  0.14285714  0.00000000       0.014
   0.33333333  0.14285714  0.00000000       0.027
   0.38095238  0.14285714  0.00000000       0.027
   0.42857143  0.14285714  0.00000000       0.027
   0.47619048  0.14285714  0.00000000       0.027
  -0.47619048  0.14285714  0.00000000       0.027
  -0.42857143  0.14285714  0.00000000       0.014
   0.38095238  0.19047619  0.00000000       0.014
   0.42857143  0.19047619  0.00000000       0.027
   0.47619048  0.19047619  0.00000000       0.027
  -0.47619048  0.19047619  0.00000000       0.027
  -0.42857143  0.19047619  0.00000000       0.027
   0.47619048  0.23809524  0.00000000       0.014
  -0.47619048  0.23809524  0.00000000       0.027
  -0.42857143  0.23809524  0.00000000       0.027
  -0.38095238  0.23809524  0.00000000       0.014
  -0.42857143  0.28571429  0.00000000       0.014
  -0.38095238  0.28571429  0.00000000       0.027
  -0.33333333  0.33333333  0.00000000       0.005
 
 position of ions in fractional coordinates (direct lattice) 
   0.00000000  0.00000000  0.00000000
   0.33333300  0.33333300  0.00000000
   0.00000000  0.00000000  0.22500000
   0.33333300  0.33333300  0.22500000
 
 position of ions in cartesian coordinates  (Angst):
   0.00000000  0.00000000  0.00000000
   1.41999858  0.00000000  0.00000000
   0.00000000  0.00000000  4.50000000
   1.41999858  0.00000000  4.50000000
 


--------------------------------------------------------------------------------------------------------


 k-point  1 :   0.0000 0.0000 0.0000  plane waves:    5409
 k-point  2 :   0.0476 0.0000 0.0000  plane waves:    5413
 k-point  3 :   0.0952 0.0000 0.0000  plane waves:    5402
 k-point  4 :   0.1429 0.0000 0.0000  plane waves:    5398
 k-point  5 :   0.1905 0.0000 0.0000  plane waves:    5404
 k-point  6 :   0.2381 0.0000 0.0000  plane waves:    5408
 k-point  7 :   0.2857 0.0000 0.0000  plane waves:    5404
 k-point  8 :   0.3333 0.0000 0.0000  plane waves:    5394
 k-point  9 :   0.3810 0.0000 0.0000  plane waves:    5382
 k-point 10 :   0.4286 0.0000 0.0000  plane waves:    5396
 k-point 11 :   0.4762 0.0000 0.0000  plane waves:    5380
 k-point 12 :   0.0952 0.0476 0.0000  plane waves:    5411
 k-point 13 :   0.1429 0.0476 0.0000  plane waves:    5415
 k-point 14 :   0.1905 0.0476 0.0000  plane waves:    5413
 k-point 15 :   0.2381 0.0476 0.0000  plane waves:    5399
 k-point 16 :   0.2857 0.0476 0.0000  plane waves:    5396
 k-point 17 :   0.3333 0.0476 0.0000  plane waves:    5389
 k-point 18 :   0.3810 0.0476 0.0000  plane waves:    5378
 k-point 19 :   0.4286 0.0476 0.0000  plane waves:    5381
 k-point 20 :   0.4762 0.0476 0.0000  plane waves:    5391
 k-point 21 :  -0.4762 0.0476 0.0000  plane waves:    5394
 k-point 22 :   0.1905 0.0952 0.0000  plane waves:    5403
 k-point 23 :   0.2381 0.0952 0.0000  plane waves:    5409
 k-point 24 :   0.2857 0.0952 0.0000  plane waves:    5419
 k-point 25 :   0.3333 0.0952 0.0000  plane waves:    5384
 k-point 26 :   0.3810 0.0952 0.0000  plane waves:    5369
 k-point 27 :   0.4286 0.0952 0.0000  plane waves:    5364
 k-point 28 :   0.4762 0.0952 0.0000  plane waves:    5382
 k-point 29 :  -0.4762 0.0952 0.0000  plane waves:    5404
 k-point 30 :   0.2857 0.1429 0.0000  plane waves:    5405
 k-point 31 :   0.3333 0.1429 0.0000  plane waves:    5404
 k-point 32 :   0.3810 0.1429 0.0000  plane waves:    5382
 k-point 33 :   0.4286 0.1429 0.0000  plane waves:    5347
 k-point 34 :   0.4762 0.1429 0.0000  plane waves:    5367
 k-point 35 :  -0.4762 0.1429 0.0000  plane waves:    5376
 k-point 36 :  -0.4286 0.1429 0.0000  plane waves:    5400
 k-point 37 :   0.3810 0.1905 0.0000  plane waves:    5390
 k-point 38 :   0.4286 0.1905 0.0000  plane waves:    5358
 k-point 39 :   0.4762 0.1905 0.0000  plane waves:    5365
 k-point 40 :  -0.4762 0.1905 0.0000  plane waves:    5363
 k-point 41 :  -0.4286 0.1905 0.0000  plane waves:    5377
 k-point 42 :   0.4762 0.2381 0.0000  plane waves:    5364
 k-point 43 :  -0.4762 0.2381 0.0000  plane waves:    5368
 k-point 44 :  -0.4286 0.2381 0.0000  plane waves:    5360
 k-point 45 :  -0.3810 0.2381 0.0000  plane waves:    5366
 k-point 46 :  -0.4286 0.2857 0.0000  plane waves:    5362
 k-point 47 :  -0.3810 0.2857 0.0000  plane waves:    5326
 k-point 48 :  -0.3333 0.3333 0.0000  plane waves:    5334

 maximum and minimum number of plane-waves per node :      5419     5326

 maximum number of plane-waves:      5419
 maximum index in each direction: 
   IXMAX=    6   IYMAX=    5   IZMAX=   46
   IXMIN=   -6   IYMIN=   -5   IZMIN=  -46


 serial   3D FFT for wavefunctions
 parallel 3D FFT for charge:
    minimum data exchange during FFTs selected (reduces bandwidth)


 total amount of memory used by VASP MPI-rank0   107376. kBytes
=======================================================================

   base      :      30000. kBytes
   nonl-proj :      16997. kBytes
   fftplans  :      32720. kBytes
   grid      :      15086. kBytes
   one-center:         12. kBytes
   wavefun   :      12561. kBytes
 
     INWAV:  cpu time    0.0000: real time    0.0001
 Broyden mixing: mesh for mixing (old mesh)
   NGX = 11   NGY = 11   NGZ = 93
  (NGX  = 48   NGY  = 48   NGZ  =384)
  gives a total of  11253 points

 initial charge density was supplied:
 charge density of overlapping atoms calculated
 number of electron      16.0000000 magnetization 
 keeping initial charge density in first step


--------------------------------------------------------------------------------------------------------


 Maximum index for augmentation-charges        24144 (set IRDMAX)


--------------------------------------------------------------------------------------------------------


 First call to EWALD:  gamma=   0.376
 Maximum number of real-space cells 5x 5x 1
 Maximum number of reciprocal cells 2x 2x10

    FEWALD:  cpu time    0.0011: real time    0.0011


--------------------------------------- Iteration      1(   1)  ---------------------------------------


    POTLOK:  cpu time    0.0867: real time    0.1040
    SETDIJ:  cpu time    0.0419: real time    0.0420
     EDDAV:  cpu time    1.4611: real time    1.4660
       DOS:  cpu time    0.0004: real time    0.0004
    --------------------------------------------
      LOOP:  cpu time    1.5902: real time    1.6124

 eigenvalue-minimisations  :  1152
 total energy-change (2. order) : 0.1252859E+03  (-0.8018676E+03)
 number of electron      16.0000000 magnetization 
 augmentation part       16.0000000 magnetization 

 Free energy of the ion-electron system (eV)
  ---------------------------------------------------
  alpha Z        PSCENC =        12.54445055
  Ewald energy   TEWEN  =      2435.66406199
  -Hartree energ DENC   =     -2897.41618288
  -exchange      EXHF   =         0.00000000
  -V(xc)+E(xc)   XCENC  =        52.80442340
  PAW double counting   =       434.08818552     -436.36580876
  entropy T*S    EENTRO =        -0.00009642
  eigenvalues    EBANDS =       -64.65078910
  atomic energy  EATOM  =       588.61769381
  Solvation  Ediel_sol  =         0.00000000
  ---------------------------------------------------
  free energy    TOTEN  =       125.28593811 eV

  energy without entropy =      125.28603454  energy(sigma->0) =      125.28598632


--------------------------------------------------------------------------------------------------------




--------------------------------------- Iteration      1(   2)  ---------------------------------------


     EDDAV:  cpu time    2.0480: real time    2.0546
       DOS:  cpu time    0.0004: real time    0.0004
    --------------------------------------------
      LOOP:  cpu time    2.0484: real time    2.0550

 eigenvalue-minimisations  :  1872
 total energy-change (2. order) :-0.1506844E+03  (-0.1373762E+03)
 number of electron      16.0000000 magnetization 
 augmentation part       16.0000000 magnetization 

 Free energy of the ion-electron system (eV)
  ---------------------------------------------------
  alpha Z        PSCENC =        12.54445055
  Ewald energy   TEWEN  =      2435.66406199
  -Hartree energ DENC   =     -2897.41618288
  -exchange      EXHF   =         0.00000000
  -V(xc)+E(xc)   XCENC  =        52.80442340
  PAW double counting   =       434.08818552     -436.36580876
  entropy T*S    EENTRO =        -0.00012229
  eigenvalues    EBANDS =      -215.33516224
  atomic energy  EATOM  =       588.61769381
  Solvation  Ediel_sol  =         0.00000000
  ---------------------------------------------------
  free energy    TOTEN  =       -25.39846090 eV

  energy without entropy =      -25.39833861  energy(sigma->0) =      -25.39839975


--------------------------------------------------------------------------------------------------------




--------------------------------------- Iteration      1(   3)  ---------------------------------------


     EDDAV:  cpu time    1.7059: real time    1.7112
       DOS:  cpu time    0.0004: real time    0.0004
    --------------------------------------------
      LOOP:  cpu time    1.7062: real time    1.7116

 eigenvalue-minimisations  :  1436
 total energy-change (2. order) :-0.1380167E+02  (-0.1356464E+02)
 number of electron      16.0000000 magnetization 
 augmentation part       16.0000000 magnetization 

 Free energy of the ion-electron system (eV)
  ---------------------------------------------------
  alpha Z        PSCENC =        12.54445055
  Ewald energy   TEWEN  =      2435.66406199
  -Hartree energ DENC   =     -2897.41618288
  -exchange      EXHF   =         0.00000000
  -V(xc)+E(xc)   XCENC  =        52.80442340
  PAW double counting   =       434.08818552     -436.36580876
  entropy T*S    EENTRO =        -0.00000876
  eigenvalues    EBANDS =      -229.13694986
  atomic energy  EATOM  =       588.61769381
  Solvation  Ediel_sol  =         0.00000000
  ---------------------------------------------------
  free energy    TOTEN  =       -39.20013498 eV

  energy without entropy =      -39.20012622  energy(sigma->0) =      -39.20013060


--------------------------------------------------------------------------------------------------------




--------------------------------------- Iteration      1(   4)  ---------------------------------------


     EDDAV:  cpu time    1.7671: real time    1.7725
       DOS:  cpu time    0.0003: real time    0.0003
    --------------------------------------------
      LOOP:  cpu time    1.7674: real time    1.7729

 eigenvalue-minimisations  :  1496
 total energy-change (2. order) :-0.3148844E+00  (-0.3140611E+00)
 number of electron      16.0000000 magnetization 
 augmentation part       16.0000000 magnetization 

 Free energy of the ion-electron system (eV)
  ---------------------------------------------------
  alpha Z        PSCENC =        12.54445055
  Ewald energy   TEWEN  =      2435.66406199
  -Hartree energ DENC   =     -2897.41618288
  -exchange      EXHF   =         0.00000000
  -V(xc)+E(xc)   XCENC  =        52.80442340
  PAW double counting   =       434.08818552     -436.36580876
  entropy T*S    EENTRO =        -0.00000028
  eigenvalues    EBANDS =      -229.45184275
  atomic energy  EATOM  =       588.61769381
  Solvation  Ediel_sol  =         0.00000000
  ---------------------------------------------------
  free energy    TOTEN  =       -39.51501940 eV

  energy without entropy =      -39.51501911  energy(sigma->0) =      -39.51501926


--------------------------------------------------------------------------------------------------------




--------------------------------------- Iteration      1(   5)  ---------------------------------------


     EDDAV:  cpu time    1.7102: real time    1.7154
       DOS:  cpu time    0.0003: real time    0.0003
    CHARGE:  cpu time    0.1888: real time    0.1892
    MIXING:  cpu time    0.0025: real time    0.0025
    --------------------------------------------
      LOOP:  cpu time    1.9018: real time    1.9075

 eigenvalue-minimisations  :  1432
 total energy-change (2. order) :-0.8781839E-02  (-0.8770321E-02)
 number of electron      16.0000000 magnetization 
 augmentation part        0.4282184 magnetization 

 Broyden mixing:
  rms(total) = 0.90197E+00    rms(broyden)= 0.90196E+00
  rms(prec ) = 0.96448E+00
  weight for this iteration     100.00

 Free energy of the ion-electron system (eV)
  ---------------------------------------------------
  alpha Z        PSCENC =        12.54445055
  Ewald energy   TEWEN  =      2435.66406199
  -Hartree energ DENC   =     -2897.41618288
  -exchange      EXHF   =         0.00000000
  -V(xc)+E(xc)   XCENC  =        52.80442340
  PAW double counting   =       434.08818552     -436.36580876
  entropy T*S    EENTRO =        -0.00000026
  eigenvalues    EBANDS =      -229.46062461
  atomic energy  EATOM  =       588.61769381
  Solvation  Ediel_sol  =         0.00000000
  ---------------------------------------------------
  free energy    TOTEN  =       -39.52380124 eV

  energy without entropy =      -39.52380098  energy(sigma->0) =      -39.52380111


--------------------------------------------------------------------------------------------------------




--------------------------------------- Iteration      1(   6)  ---------------------------------------


    POTLOK:  cpu time    0.0748: real time    0.0751
    SETDIJ:  cpu time    0.0386: real time    0.0387
     EDDAV:  cpu time    1.6437: real time    1.6486
       DOS:  cpu time    0.0003: real time    0.0003
    CHARGE:  cpu time    0.1810: real time    0.1814
    MIXING:  cpu time    0.0027: real time    0.0027
    --------------------------------------------
      LOOP:  cpu time    1.9410: real time    1.9468

 eigenvalue-minimisations  :  1384
 total energy-change (2. order) : 0.1882741E+01  (-0.1732648E+00)
 number of electron      16.0000000 magnetization 
 augmentation part        0.4093665 magnetization 

 Broyden mixing:
  rms(total) = 0.52940E+00    rms(broyden)= 0.52940E+00
  rms(prec ) = 0.56023E+00
  weight for this iteration     100.00

 eigenvalues of (default mixing * dielectric matrix)
  average eigenvalue GAMMA=   2.2046
  2.2046

 Free energy of the ion-electron system (eV)
  ---------------------------------------------------
  alpha Z        PSCENC =        12.54445055
  Ewald energy   TEWEN  =      2435.66406199
  -Hartree energ DENC   =     -2917.99249368
  -exchange      EXHF   =         0.00000000
  -V(xc)+E(xc)   XCENC  =        53.79397936
  PAW double counting   =       803.53402398     -806.11073686
  entropy T*S    EENTRO =        -0.00000000
  eigenvalues    EBANDS =      -207.69203901
  atomic energy  EATOM  =       588.61769381
  Solvation  Ediel_sol  =         0.00000000
  ---------------------------------------------------
  free energy    TOTEN  =       -37.64105987 eV

  energy without entropy =      -37.64105987  energy(sigma->0) =      -37.64105987


--------------------------------------------------------------------------------------------------------




--------------------------------------- Iteration      1(   7)  ---------------------------------------


    POTLOK:  cpu time    0.0723: real time    0.0726
    SETDIJ:  cpu time    0.0350: real time    0.0352
     EDDAV:  cpu time    1.6502: real time    1.6551
       DOS:  cpu time    0.0002: real time    0.0001
    CHARGE:  cpu time    0.1731: real time    0.1735
    MIXING:  cpu time    0.0027: real time    0.0027
    --------------------------------------------
      LOOP:  cpu time    1.9335: real time    1.9393

 eigenvalue-minimisations  :  1420
 total energy-change (2. order) : 0.6995793E+00  (-0.2311697E+00)
 number of electron      16.0000000 magnetization 
 augmentation part        0.3870154 magnetization 

 Broyden mixing:
  rms(total) = 0.13808E+00    rms(broyden)= 0.13808E+00
  rms(prec ) = 0.14296E+00
  weight for this iteration     100.00

 eigenvalues of (default mixing * dielectric matrix)
  average eigenvalue GAMMA=   2.2828
  2.1980  2.3675

 Free energy of the ion-electron system (eV)
  ---------------------------------------------------
  alpha Z        PSCENC =        12.54445055
  Ewald energy   TEWEN  =      2435.66406199
  -Hartree energ DENC   =     -2944.73242878
  -exchange      EXHF   =         0.00000000
  -V(xc)+E(xc)   XCENC  =        55.09877784
  PAW double counting   =      1522.35200003    -1525.19358492
  entropy T*S    EENTRO =        -0.00000000
  eigenvalues    EBANDS =      -181.29245107
  atomic energy  EATOM  =       588.61769381
  Solvation  Ediel_sol  =         0.00000000
  ---------------------------------------------------
  free energy    TOTEN  =       -36.94148054 eV

  energy without entropy =      -36.94148054  energy(sigma->0) =      -36.94148054


--------------------------------------------------------------------------------------------------------




--------------------------------------- Iteration      1(   8)  ---------------------------------------


    POTLOK:  cpu time    0.0710: real time    0.0713
    SETDIJ:  cpu time    0.0346: real time    0.0347
     EDDAV:  cpu time    1.6597: real time    1.6649
       DOS:  cpu time    0.0002: real time    0.0002
    CHARGE:  cpu time    0.1791: real time    0.1795
    MIXING:  cpu time    0.0027: real time    0.0028
    --------------------------------------------
      LOOP:  cpu time    1.9474: real time    1.9533

 eigenvalue-minimisations  :  1428
 total energy-change (2. order) : 0.3376826E-03  (-0.7074246E-02)
 number of electron      16.0000000 magnetization 
 augmentation part        0.3859303 magnetization 

 Broyden mixing:
  rms(total) = 0.13532E-01    rms(broyden)= 0.13532E-01
  rms(prec ) = 0.26998E-01
  weight for this iteration     100.00

 eigenvalues of (default mixing * dielectric matrix)
  average eigenvalue GAMMA=   1.7815
  0.8890  2.2795  2.1759

 Free energy of the ion-electron system (eV)
  ---------------------------------------------------
  alpha Z        PSCENC =        12.54445055
  Ewald energy   TEWEN  =      2435.66406199
  -Hartree energ DENC   =     -2946.56116408
  -exchange      EXHF   =         0.00000000
  -V(xc)+E(xc)   XCENC  =        55.09078037
  PAW double counting   =      1710.21543319    -1712.93995424
  entropy T*S    EENTRO =        -0.00000000
  eigenvalues    EBANDS =      -179.57244444
  atomic energy  EATOM  =       588.61769381
  Solvation  Ediel_sol  =         0.00000000
  ---------------------------------------------------
  free energy    TOTEN  =       -36.94114286 eV

  energy without entropy =      -36.94114286  energy(sigma->0) =      -36.94114286


--------------------------------------------------------------------------------------------------------




--------------------------------------- Iteration      1(   9)  ---------------------------------------


    POTLOK:  cpu time    0.0713: real time    0.0716
    SETDIJ:  cpu time    0.0353: real time    0.0353
     EDDAV:  cpu time    1.7135: real time    1.7187
       DOS:  cpu time    0.0002: real time    0.0002
    CHARGE:  cpu time    0.1741: real time    0.1745
    MIXING:  cpu time    0.0028: real time    0.0028
    --------------------------------------------
      LOOP:  cpu time    1.9972: real time    2.0032

 eigenvalue-minimisations  :  1484
 total energy-change (2. order) : 0.1429752E-02  (-0.2058463E-03)
 number of electron      16.0000000 magnetization 
 augmentation part        0.3855118 magnetization 

 Broyden mixing:
  rms(total) = 0.91938E-02    rms(broyden)= 0.91938E-02
  rms(prec ) = 0.23661E-01
  weight for this iteration     100.00

 eigenvalues of (default mixing * dielectric matrix)
  average eigenvalue GAMMA=   2.1669
  1.0166  1.9555  2.8478  2.8478

 Free energy of the ion-electron system (eV)
  ---------------------------------------------------
  alpha Z        PSCENC =        12.54445055
  Ewald energy   TEWEN  =      2435.66406199
  -Hartree energ DENC   =     -2947.52929783
  -exchange      EXHF   =         0.00000000
  -V(xc)+E(xc)   XCENC  =        55.11427907
  PAW double counting   =      1703.65704082    -1706.38652360
  entropy T*S    EENTRO =        -0.00000000
  eigenvalues    EBANDS =      -178.62141791
  atomic energy  EATOM  =       588.61769381
  Solvation  Ediel_sol  =         0.00000000
  ---------------------------------------------------
  free energy    TOTEN  =       -36.93971311 eV

  energy without entropy =      -36.93971311  energy(sigma->0) =      -36.93971311


--------------------------------------------------------------------------------------------------------




--------------------------------------- Iteration      1(  10)  ---------------------------------------


    POTLOK:  cpu time    0.0713: real time    0.0715
    SETDIJ:  cpu time    0.0357: real time    0.0358
     EDDAV:  cpu time    1.5819: real time    1.5871
       DOS:  cpu time    0.0002: real time    0.0002
    CHARGE:  cpu time    0.1742: real time    0.1747
    MIXING:  cpu time    0.0029: real time    0.0029
    --------------------------------------------
      LOOP:  cpu time    1.8662: real time    1.8721

 eigenvalue-minimisations  :  1316
 total energy-change (2. order) : 0.5933315E-02  (-0.3974360E-03)
 number of electron      16.0000000 magnetization 
 augmentation part        0.3849863 magnetization 

 Broyden mixing:
  rms(total) = 0.94821E-02    rms(broyden)= 0.94821E-02
  rms(prec ) = 0.17960E-01
  weight for this iteration     100.00

 eigenvalues of (default mixing * dielectric matrix)
  average eigenvalue GAMMA=   1.8886
  3.1869  2.5049  1.9904  0.9955  0.7655

 Free energy of the ion-electron system (eV)
  ---------------------------------------------------
  alpha Z        PSCENC =        12.54445055
  Ewald energy   TEWEN  =      2435.66406199
  -Hartree energ DENC   =     -2951.85094258
  -exchange      EXHF   =         0.00000000
  -V(xc)+E(xc)   XCENC  =        55.17760395
  PAW double counting   =      1684.67819828    -1687.39977485
  entropy T*S    EENTRO =        -0.00000000
  eigenvalues    EBANDS =      -174.36507094
  atomic energy  EATOM  =       588.61769381
  Solvation  Ediel_sol  =         0.00000000
  ---------------------------------------------------
  free energy    TOTEN  =       -36.93377980 eV

  energy without entropy =      -36.93377980  energy(sigma->0) =      -36.93377980


--------------------------------------------------------------------------------------------------------




--------------------------------------- Iteration      1(  11)  ---------------------------------------


    POTLOK:  cpu time    0.0718: real time    0.0768
    SETDIJ:  cpu time    0.0354: real time    0.0355
     EDDAV:  cpu time    1.6356: real time    1.6409
       DOS:  cpu time    0.0002: real time    0.0002
    CHARGE:  cpu time    0.1766: real time    0.1770
    MIXING:  cpu time    0.0033: real time    0.0033
    --------------------------------------------
      LOOP:  cpu time    1.9227: real time    1.9337

 eigenvalue-minimisations  :  1388
 total energy-change (2. order) : 0.1007081E-02  (-0.4005957E-04)
 number of electron      16.0000000 magnetization 
 augmentation part        0.3847678 magnetization 

 Broyden mixing:
  rms(total) = 0.54900E-02    rms(broyden)= 0.54900E-02
  rms(prec ) = 0.14534E-01
  weight for this iteration     100.00

 eigenvalues of (default mixing * dielectric matrix)
  average eigenvalue GAMMA=   2.3010
  4.7110  2.7793  2.2085  2.0594  1.0240  1.0240

 Free energy of the ion-electron system (eV)
  ---------------------------------------------------
  alpha Z        PSCENC =        12.54445055
  Ewald energy   TEWEN  =      2435.66406199
  -Hartree energ DENC   =     -2952.93548068
  -exchange      EXHF   =         0.00000000
  -V(xc)+E(xc)   XCENC  =        55.18828906
  PAW double counting   =      1703.61591150    -1706.33725830
  entropy T*S    EENTRO =        -0.00000000
  eigenvalues    EBANDS =      -173.29044065
  atomic energy  EATOM  =       588.61769381
  Solvation  Ediel_sol  =         0.00000000
  ---------------------------------------------------
  free energy    TOTEN  =       -36.93277271 eV

  energy without entropy =      -36.93277271  energy(sigma->0) =      -36.93277271


--------------------------------------------------------------------------------------------------------




--------------------------------------- Iteration      1(  12)  ---------------------------------------


    POTLOK:  cpu time    0.0682: real time    0.0709
    SETDIJ:  cpu time    0.0357: real time    0.0359
     EDDAV:  cpu time    1.4914: real time    1.4964
       DOS:  cpu time    0.0002: real time    0.0002
    CHARGE:  cpu time    0.1851: real time    0.1855
    MIXING:  cpu time    0.0032: real time    0.0032
    --------------------------------------------
      LOOP:  cpu time    1.7838: real time    1.7920

 eigenvalue-minimisations  :  1196
 total energy-change (2. order) : 0.4151943E-02  (-0.2154241E-03)
 number of electron      16.0000000 magnetization 
 augmentation part        0.3847883 magnetization 

 Broyden mixing:
  rms(total) = 0.36490E-02    rms(broyden)= 0.36490E-02
  rms(prec ) = 0.85976E-02
  weight for this iteration     100.00

 eigenvalues of (default mixing * dielectric matrix)
  average eigenvalue GAMMA=   2.3102
  5.3597  2.8464  2.3756  2.0704  1.4881  1.0155  1.0155

 Free energy of the ion-electron system (eV)
  ---------------------------------------------------
  alpha Z        PSCENC =        12.54445055
  Ewald energy   TEWEN  =      2435.66406199
  -Hartree energ DENC   =     -2956.38314724
  -exchange      EXHF   =         0.00000000
  -V(xc)+E(xc)   XCENC  =        55.18288018
  PAW double counting   =      1695.84324292    -1698.56830445
  entropy T*S    EENTRO =        -0.00000000
  eigenvalues    EBANDS =      -169.82949853
  atomic energy  EATOM  =       588.61769381
  Solvation  Ediel_sol  =         0.00000000
  ---------------------------------------------------
  free energy    TOTEN  =       -36.92862077 eV

  energy without entropy =      -36.92862077  energy(sigma->0) =      -36.92862077


--------------------------------------------------------------------------------------------------------




--------------------------------------- Iteration      1(  13)  ---------------------------------------


    POTLOK:  cpu time    0.0672: real time    0.0674
    SETDIJ:  cpu time    0.0360: real time    0.0361
     EDDAV:  cpu time    1.5966: real time    1.6013
       DOS:  cpu time    0.0002: real time    0.0002
    CHARGE:  cpu time    0.1748: real time    0.1752
    MIXING:  cpu time    0.0032: real time    0.0032
    --------------------------------------------
      LOOP:  cpu time    1.8778: real time    1.8833

 eigenvalue-minimisations  :  1320
 total energy-change (2. order) : 0.4280263E-04  (-0.1585359E-04)
 number of electron      16.0000000 magnetization 
 augmentation part        0.3847547 magnetization 

 Broyden mixing:
  rms(total) = 0.39890E-02    rms(broyden)= 0.39890E-02
  rms(prec ) = 0.70625E-02
  weight for this iteration     100.00

 eigenvalues of (default mixing * dielectric matrix)
  average eigenvalue GAMMA=   2.6505
  8.1215  3.3327  2.5397  2.0834  2.0834  1.0997  0.9836  0.9603

 Free energy of the ion-electron system (eV)
  ---------------------------------------------------
  alpha Z        PSCENC =        12.54445055
  Ewald energy   TEWEN  =      2435.66406199
  -Hartree energ DENC   =     -2957.78994922
  -exchange      EXHF   =         0.00000000
  -V(xc)+E(xc)   XCENC  =        55.18559218
  PAW double counting   =      1700.04852332    -1702.77167661
  entropy T*S    EENTRO =        -0.00000000
  eigenvalues    EBANDS =      -168.42727399
  atomic energy  EATOM  =       588.61769381
  Solvation  Ediel_sol  =         0.00000000
  ---------------------------------------------------
  free energy    TOTEN  =       -36.92857797 eV

  energy without entropy =      -36.92857797  energy(sigma->0) =      -36.92857797


--------------------------------------------------------------------------------------------------------




--------------------------------------- Iteration      1(  14)  ---------------------------------------


    POTLOK:  cpu time    0.0654: real time    0.0656
    SETDIJ:  cpu time    0.0354: real time    0.0355
     EDDAV:  cpu time    1.5366: real time    1.5414
       DOS:  cpu time    0.0002: real time    0.0002
    CHARGE:  cpu time    0.1755: real time    0.1759
    MIXING:  cpu time    0.0033: real time    0.0033
    --------------------------------------------
      LOOP:  cpu time    1.8164: real time    1.8219

 eigenvalue-minimisations  :  1264
 total energy-change (2. order) :-0.1135780E-02  (-0.2840898E-04)
 number of electron      16.0000000 magnetization 
 augmentation part        0.3847199 magnetization 

 Broyden mixing:
  rms(total) = 0.20021E-02    rms(broyden)= 0.20021E-02
  rms(prec ) = 0.37180E-02
  weight for this iteration     100.00

 eigenvalues of (default mixing * dielectric matrix)
  average eigenvalue GAMMA=   2.9428
 10.3706  4.0888  2.7036  2.7036  1.9230  1.5954  1.1218  1.0303  0.9477

 Free energy of the ion-electron system (eV)
  ---------------------------------------------------
  alpha Z        PSCENC =        12.54445055
  Ewald energy   TEWEN  =      2435.66406199
  -Hartree energ DENC   =     -2959.07843676
  -exchange      EXHF   =         0.00000000
  -V(xc)+E(xc)   XCENC  =        55.18452288
  PAW double counting   =      1697.53460459    -1700.25770977
  entropy T*S    EENTRO =        -0.00000000
  eigenvalues    EBANDS =      -167.13890103
  atomic energy  EATOM  =       588.61769381
  Solvation  Ediel_sol  =         0.00000000
  ---------------------------------------------------
  free energy    TOTEN  =       -36.92971375 eV

  energy without entropy =      -36.92971375  energy(sigma->0) =      -36.92971375


--------------------------------------------------------------------------------------------------------




--------------------------------------- Iteration      1(  15)  ---------------------------------------


    POTLOK:  cpu time    0.0653: real time    0.0655
    SETDIJ:  cpu time    0.0350: real time    0.0351
     EDDAV:  cpu time    1.5786: real time    1.5839
       DOS:  cpu time    0.0002: real time    0.0002
    CHARGE:  cpu time    0.1758: real time    0.1762
    MIXING:  cpu time    0.0033: real time    0.0033
    --------------------------------------------
      LOOP:  cpu time    1.8582: real time    1.8642

 eigenvalue-minimisations  :  1320
 total energy-change (2. order) :-0.9907747E-03  (-0.1792876E-04)
 number of electron      16.0000000 magnetization 
 augmentation part        0.3847406 magnetization 

 Broyden mixing:
  rms(total) = 0.25444E-02    rms(broyden)= 0.25444E-02
  rms(prec ) = 0.27101E-02
  weight for this iteration     100.00

 eigenvalues of (default mixing * dielectric matrix)
  average eigenvalue GAMMA=   3.5248
 15.7254  5.6220  3.0079  2.3099  2.3099  2.0202  1.2965  1.0133  1.0133  0.9298

 Free energy of the ion-electron system (eV)
  ---------------------------------------------------
  alpha Z        PSCENC =        12.54445055
  Ewald energy   TEWEN  =      2435.66406199
  -Hartree energ DENC   =     -2959.79597765
  -exchange      EXHF   =         0.00000000
  -V(xc)+E(xc)   XCENC  =        55.18364850
  PAW double counting   =      1692.27901628    -1695.00016800
  entropy T*S    EENTRO =        -0.00000000
  eigenvalues    EBANDS =      -166.42343000
  atomic energy  EATOM  =       588.61769381
  Solvation  Ediel_sol  =         0.00000000
  ---------------------------------------------------
  free energy    TOTEN  =       -36.93070452 eV

  energy without entropy =      -36.93070452  energy(sigma->0) =      -36.93070452


--------------------------------------------------------------------------------------------------------




--------------------------------------- Iteration      1(  16)  ---------------------------------------


    POTLOK:  cpu time    0.0653: real time    0.0656
    SETDIJ:  cpu time    0.0353: real time    0.0353
     EDDAV:  cpu time    1.6282: real time    1.6332
       DOS:  cpu time    0.0002: real time    0.0002
    CHARGE:  cpu time    0.1787: real time    0.1792
    MIXING:  cpu time    0.0036: real time    0.0036
    --------------------------------------------
      LOOP:  cpu time    1.9112: real time    1.9170

 eigenvalue-minimisations  :  1356
 total energy-change (2. order) :-0.1676841E-03  (-0.2259281E-05)
 number of electron      16.0000000 magnetization 
 augmentation part        0.3846909 magnetization 

 Broyden mixing:
  rms(total) = 0.46826E-03    rms(broyden)= 0.46826E-03
  rms(prec ) = 0.58245E-03
  weight for this iteration     100.00

 eigenvalues of (default mixing * dielectric matrix)
  average eigenvalue GAMMA=   4.1738
 22.8026  6.8666  3.3311  2.7147  2.4652  1.9804  1.6798  0.9652  0.9652  1.1015
  1.0393

 Free energy of the ion-electron system (eV)
  ---------------------------------------------------
  alpha Z        PSCENC =        12.54445055
  Ewald energy   TEWEN  =      2435.66406199
  -Hartree energ DENC   =     -2960.01065637
  -exchange      EXHF   =         0.00000000
  -V(xc)+E(xc)   XCENC  =        55.18660186
  PAW double counting   =      1696.07297795    -1698.79527617
  entropy T*S    EENTRO =        -0.00000000
  eigenvalues    EBANDS =      -166.21072583
  atomic energy  EATOM  =       588.61769381
  Solvation  Ediel_sol  =         0.00000000
  ---------------------------------------------------
  free energy    TOTEN  =       -36.93087221 eV

  energy without entropy =      -36.93087221  energy(sigma->0) =      -36.93087221


--------------------------------------------------------------------------------------------------------




--------------------------------------- Iteration      1(  17)  ---------------------------------------


    POTLOK:  cpu time    0.0663: real time    0.0666
    SETDIJ:  cpu time    0.0379: real time    0.0380
     EDDAV:  cpu time    1.5774: real time    1.5822
       DOS:  cpu time    0.0002: real time    0.0002
    CHARGE:  cpu time    0.1772: real time    0.1776
    MIXING:  cpu time    0.0036: real time    0.0036
    --------------------------------------------
      LOOP:  cpu time    1.8626: real time    1.8681

 eigenvalue-minimisations  :  1276
 total energy-change (2. order) :-0.8385088E-04  (-0.3023878E-06)
 number of electron      16.0000000 magnetization 
 augmentation part        0.3846837 magnetization 

 Broyden mixing:
  rms(total) = 0.21430E-03    rms(broyden)= 0.21430E-03
  rms(prec ) = 0.23929E-03
  weight for this iteration     100.00

 eigenvalues of (default mixing * dielectric matrix)
  average eigenvalue GAMMA=   4.0790
 23.4408  6.8846  3.3027  2.6019  2.6019  2.5100  1.9591  1.6278  1.0401  1.0401
  0.9696  0.9696

 Free energy of the ion-electron system (eV)
  ---------------------------------------------------
  alpha Z        PSCENC =        12.54445055
  Ewald energy   TEWEN  =      2435.66406199
  -Hartree energ DENC   =     -2960.04326838
  -exchange      EXHF   =         0.00000000
  -V(xc)+E(xc)   XCENC  =        55.18623154
  PAW double counting   =      1695.69187236    -1698.41469548
  entropy T*S    EENTRO =        -0.00000000
  eigenvalues    EBANDS =      -166.17730245
  atomic energy  EATOM  =       588.61769381
  Solvation  Ediel_sol  =         0.00000000
  ---------------------------------------------------
  free energy    TOTEN  =       -36.93095606 eV

  energy without entropy =      -36.93095606  energy(sigma->0) =      -36.93095606


--------------------------------------------------------------------------------------------------------




--------------------------------------- Iteration      1(  18)  ---------------------------------------


    POTLOK:  cpu time    0.0669: real time    0.0671
    SETDIJ:  cpu time    0.0377: real time    0.0378
     EDDAV:  cpu time    1.6641: real time    1.6691
       DOS:  cpu time    0.0002: real time    0.0002
    CHARGE:  cpu time    0.1767: real time    0.1772
    MIXING:  cpu time    0.0037: real time    0.0037
    --------------------------------------------
      LOOP:  cpu time    1.9494: real time    1.9552

 eigenvalue-minimisations  :  1380
 total energy-change (2. order) :-0.1307160E-04  (-0.4891390E-07)
 number of electron      16.0000000 magnetization 
 augmentation part        0.3846877 magnetization 

 Broyden mixing:
  rms(total) = 0.81994E-04    rms(broyden)= 0.81992E-04
  rms(prec ) = 0.95668E-04
  weight for this iteration     100.00

 eigenvalues of (default mixing * dielectric matrix)
  average eigenvalue GAMMA=   3.9257
 23.5667  6.9450  3.6115  3.1681  2.4813  2.4045  2.0348  1.6299  1.2162  1.0089
  1.0089  1.0058  0.9525

 Free energy of the ion-electron system (eV)
  ---------------------------------------------------
  alpha Z        PSCENC =        12.54445055
  Ewald energy   TEWEN  =      2435.66406199
  -Hartree energ DENC   =     -2960.04128543
  -exchange      EXHF   =         0.00000000
  -V(xc)+E(xc)   XCENC  =        55.18595627
  PAW double counting   =      1695.59141452    -1698.31396633
  entropy T*S    EENTRO =        -0.00000000
  eigenvalues    EBANDS =      -166.17929450
  atomic energy  EATOM  =       588.61769381
  Solvation  Ediel_sol  =         0.00000000
  ---------------------------------------------------
  free energy    TOTEN  =       -36.93096913 eV

  energy without entropy =      -36.93096913  energy(sigma->0) =      -36.93096913


--------------------------------------------------------------------------------------------------------




--------------------------------------- Iteration      1(  19)  ---------------------------------------


    POTLOK:  cpu time    0.0674: real time    0.0676
    SETDIJ:  cpu time    0.0377: real time    0.0378
     EDDAV:  cpu time    1.5418: real time    1.5463
       DOS:  cpu time    0.0002: real time    0.0002
    CHARGE:  cpu time    0.1731: real time    0.1735
    MIXING:  cpu time    0.0039: real time    0.0039
    --------------------------------------------
      LOOP:  cpu time    1.8240: real time    1.8294

 eigenvalue-minimisations  :  1284
 total energy-change (2. order) :-0.5355889E-05  (-0.1632365E-07)
 number of electron      16.0000000 magnetization 
 augmentation part        0.3846857 magnetization 

 Broyden mixing:
  rms(total) = 0.37105E-04    rms(broyden)= 0.37102E-04
  rms(prec ) = 0.39325E-04
  weight for this iteration     100.00

 eigenvalues of (default mixing * dielectric matrix)
  average eigenvalue GAMMA=   3.8361
 23.6064  6.9805  3.8677  3.1431  2.5647  2.5647  2.3082  1.9892  1.6693  1.0459
  1.0155  1.0155  0.9787  0.9556

 Free energy of the ion-electron system (eV)
  ---------------------------------------------------
  alpha Z        PSCENC =        12.54445055
  Ewald energy   TEWEN  =      2435.66406199
  -Hartree energ DENC   =     -2960.04618866
  -exchange      EXHF   =         0.00000000
  -V(xc)+E(xc)   XCENC  =        55.18601252
  PAW double counting   =      1695.59695132    -1698.31960823
  entropy T*S    EENTRO =        -0.00000000
  eigenvalues    EBANDS =      -166.17434778
  atomic energy  EATOM  =       588.61769381
  Solvation  Ediel_sol  =         0.00000000
  ---------------------------------------------------
  free energy    TOTEN  =       -36.93097449 eV

  energy without entropy =      -36.93097449  energy(sigma->0) =      -36.93097449


--------------------------------------------------------------------------------------------------------




--------------------------------------- Iteration      1(  20)  ---------------------------------------


    POTLOK:  cpu time    0.0680: real time    0.0682
    SETDIJ:  cpu time    0.0344: real time    0.0345
     EDDAV:  cpu time    1.5955: real time    1.6002
       DOS:  cpu time    0.0002: real time    0.0002
    CHARGE:  cpu time    0.1740: real time    0.1744
    MIXING:  cpu time    0.0040: real time    0.0040
    --------------------------------------------
      LOOP:  cpu time    1.8761: real time    1.8815

 eigenvalue-minimisations  :  1356
 total energy-change (2. order) :-0.9394025E-06  (-0.3573697E-08)
 number of electron      16.0000000 magnetization 
 augmentation part        0.3846854 magnetization 

 Broyden mixing:
  rms(total) = 0.13246E-04    rms(broyden)= 0.13236E-04
  rms(prec ) = 0.13716E-04
  weight for this iteration     100.00

 eigenvalues of (default mixing * dielectric matrix)
  average eigenvalue GAMMA=   3.7018
 23.6247  6.9751  4.1522  3.1846  3.0105  2.4907  2.2718  2.0540  1.6593  1.1979
  1.0116  1.0116  0.9732  0.9732  0.9358

 Free energy of the ion-electron system (eV)
  ---------------------------------------------------
  alpha Z        PSCENC =        12.54445055
  Ewald energy   TEWEN  =      2435.66406199
  -Hartree energ DENC   =     -2960.04433689
  -exchange      EXHF   =         0.00000000
  -V(xc)+E(xc)   XCENC  =        55.18602900
  PAW double counting   =      1695.60982207    -1698.33246669
  entropy T*S    EENTRO =        -0.00000000
  eigenvalues    EBANDS =      -166.17622926
  atomic energy  EATOM  =       588.61769381
  Solvation  Ediel_sol  =         0.00000000
  ---------------------------------------------------
  free energy    TOTEN  =       -36.93097543 eV

  energy without entropy =      -36.93097543  energy(sigma->0) =      -36.93097543


--------------------------------------------------------------------------------------------------------




--------------------------------------- Iteration      1(  21)  ---------------------------------------


    POTLOK:  cpu time    0.0688: real time    0.0690
    SETDIJ:  cpu time    0.0371: real time    0.0376
     EDDAV:  cpu time    1.2615: real time    1.2658
       DOS:  cpu time    0.0002: real time    0.0002
    CHARGE:  cpu time    0.1761: real time    0.1765
    MIXING:  cpu time    0.0049: real time    0.0049
    --------------------------------------------
      LOOP:  cpu time    1.5486: real time    1.5539

 eigenvalue-minimisations  :   932
 total energy-change (2. order) :-0.5648849E-07  (-0.3049196E-09)
 number of electron      16.0000000 magnetization 
 augmentation part        0.3846856 magnetization 

 Broyden mixing:
  rms(total) = 0.48809E-05    rms(broyden)= 0.48541E-05
  rms(prec ) = 0.51576E-05
  weight for this iteration     100.00

 eigenvalues of (default mixing * dielectric matrix)
  average eigenvalue GAMMA=   3.5956
 23.6323  6.9674  4.2574  3.2880  2.9363  2.5587  2.3402  2.0628  1.7835  1.6903
  1.0123  1.0123  0.9567  0.9821  1.0250  1.0250

 Free energy of the ion-electron system (eV)
  ---------------------------------------------------
  alpha Z        PSCENC =        12.54445055
  Ewald energy   TEWEN  =      2435.66406199
  -Hartree energ DENC   =     -2960.04395234
  -exchange      EXHF   =         0.00000000
  -V(xc)+E(xc)   XCENC  =        55.18601388
  PAW double counting   =      1695.62183582    -1698.34446872
  entropy T*S    EENTRO =        -0.00000000
  eigenvalues    EBANDS =      -166.17661047
  atomic energy  EATOM  =       588.61769381
  Solvation  Ediel_sol  =         0.00000000
  ---------------------------------------------------
  free energy    TOTEN  =       -36.93097548 eV

  energy without entropy =      -36.93097548  energy(sigma->0) =      -36.93097548


--------------------------------------------------------------------------------------------------------




--------------------------------------- Iteration      1(  22)  ---------------------------------------


    POTLOK:  cpu time    0.0697: real time    0.0700
    SETDIJ:  cpu time    0.0355: real time    0.0356
     EDDAV:  cpu time    1.3508: real time    1.3551
       DOS:  cpu time    0.0002: real time    0.0002
    --------------------------------------------
      LOOP:  cpu time    1.4562: real time    1.4609

 eigenvalue-minimisations  :  1036
 total energy-change (2. order) :-0.9765699E-09  (-0.3890372E-10)
 number of electron      16.0000000 magnetization 
 augmentation part        0.3846856 magnetization 

 Free energy of the ion-electron system (eV)
  ---------------------------------------------------
  alpha Z        PSCENC =        12.54445055
  Ewald energy   TEWEN  =      2435.66406199
  -Hartree energ DENC   =     -2960.04406420
  -exchange      EXHF   =         0.00000000
  -V(xc)+E(xc)   XCENC  =        55.18601692
  PAW double counting   =      1695.62258839    -1698.34522794
  entropy T*S    EENTRO =        -0.00000000
  eigenvalues    EBANDS =      -166.17649501
  atomic energy  EATOM  =       588.61769381
  Solvation  Ediel_sol  =         0.00000000
  ---------------------------------------------------
  free energy    TOTEN  =       -36.93097548 eV

  energy without entropy =      -36.93097548  energy(sigma->0) =      -36.93097548


--------------------------------------------------------------------------------------------------------




 average (electrostatic) potential at core
  the test charge radii are     0.6991
  (the norm of the test charge is              1.0000)
       1 -56.6475       2 -56.6476       3 -56.6475       4 -56.6476
 
 
 
 E-fermi :  -1.2208     XC(G=0):  -4.0434     alpha+bet : -3.8262


 k-point     1 :       0.0000    0.0000    0.0000
  band No.  band energies     occupation 
      1     -20.7994      2.00000
      2     -20.7892      2.00000
      3      -8.9709      2.00000
      4      -8.8060      2.00000
      5      -4.2479      2.00000
      6      -4.2479      2.00000
      7      -4.2475      2.00000
      8      -4.2475      2.00000
      9       1.9102      0.00000
     10       2.4800      0.00000
     11       3.0824      0.00000
     12       3.9700      0.00000

 k-point     2 :       0.0476    0.0000    0.0000
  band No.  band energies     occupation 
      1     -20.7455      2.00000
      2     -20.7354      2.00000
      3      -8.9063      2.00000
      4      -8.7418      2.00000
      5      -4.4688      2.00000
      6      -4.4683      2.00000
      7      -4.3648      2.00000
      8      -4.3643      2.00000
      9       1.9823      0.00000
     10       2.5532      0.00000
     11       3.1557      0.00000
     12       4.0425      0.00000

 k-point     3 :       0.0952    0.0000    0.0000
  band No.  band energies     occupation 
      1     -20.5841      2.00000
      2     -20.5741      2.00000
      3      -8.7128      2.00000
      4      -8.5498      2.00000
      5      -5.0888      2.00000
      6      -5.0880      2.00000
      7      -4.6846      2.00000
      8      -4.6840      2.00000
      9       2.1986      0.00000
     10       2.7728      0.00000
     11       3.3757      0.00000
     12       4.2598      0.00000

 k-point     4 :       0.1429    0.0000    0.0000
  band No.  band energies     occupation 
      1     -20.3158      2.00000
      2     -20.3060      2.00000
      3      -8.3922      2.00000
      4      -8.2317      2.00000
      5      -6.0084      2.00000
      6      -6.0071      2.00000
      7      -5.1363      2.00000
      8      -5.1356      2.00000
      9       2.5591      0.00000
     10       3.1384      0.00000
     11       3.7419      0.00000
     12       4.6211      0.00000

 k-point     5 :       0.1905    0.0000    0.0000
  band No.  band energies     occupation 
      1     -19.9414      2.00000
      2     -19.9320      2.00000
      3      -7.9475      2.00000
      4      -7.7907      2.00000
      5      -7.1212      2.00000
      6      -7.1195      2.00000
      7      -5.6450      2.00000
      8      -5.6443      2.00000
      9       3.0632      0.00000
     10       3.6492      0.00000
     11       4.2529      0.00000
     12       5.1235      0.00000

 k-point     6 :       0.2381    0.0000    0.0000
  band No.  band energies     occupation 
      1     -19.4627      2.00000
      2     -19.4536      2.00000
      3      -8.3410      2.00000
      4      -8.3388      2.00000
      5      -7.3841      2.00000
      6      -7.2321      2.00000
      7      -6.1520      2.00000
      8      -6.1512      2.00000
      9       3.7100      0.00000
     10       4.3019      0.00000
     11       4.9012      0.00000
     12       5.7348      0.00000

 k-point     7 :       0.2857    0.0000    0.0000
  band No.  band energies     occupation 
      1     -18.8817      2.00000
      2     -18.8731      2.00000
      3      -9.6052      2.00000
      4      -9.6024      2.00000
      5      -6.7109      2.00000
      6      -6.6164      2.00000
      7      -6.6156      2.00000
      8      -6.5654      2.00000
      9       4.4947      0.00000
     10       4.9649      0.00000
     11       4.9768      0.00000
     12       5.2571      0.00000

 k-point     8 :       0.3333    0.0000    0.0000
  band No.  band energies     occupation 
      1     -18.2020      2.00000
      2     -18.1939      2.00000
      3     -10.8692      2.00000
      4     -10.8656      2.00000
      5      -7.0113      2.00000
      6      -7.0104      2.00000
      7      -5.9443      2.00000
      8      -5.8074      2.00000
      9       3.6634      0.00000
     10       3.7687      0.00000
     11       5.4205      0.00000
     12       6.0541      0.00000

 k-point     9 :       0.3810    0.0000    0.0000
  band No.  band energies     occupation 
      1     -17.4298      2.00000
      2     -17.4222      2.00000
      3     -12.0993      2.00000
      4     -12.0951      2.00000
      5      -7.3195      2.00000
      6      -7.3186      2.00000
      7      -5.1179      2.00000
      8      -4.9921      2.00000
      9       2.3744      0.00000
     10       2.4947      0.00000
     11       6.3019      0.00000
     12       6.3991      0.00000

 k-point    10 :       0.4286    0.0000    0.0000
  band No.  band energies     occupation 
      1     -16.5800      2.00000
      2     -16.5731      2.00000
      3     -13.2629      2.00000
      4     -13.2581      2.00000
      5      -7.5301      2.00000
      6      -7.5292      2.00000
      7      -4.3113      2.00000
      8      -4.1999      2.00000
      9       1.2414      0.00000
     10       1.3794      0.00000
     11       6.2828      0.00000
     12       6.3021      0.00000

 k-point    11 :       0.4762    0.0000    0.0000
  band No.  band energies     occupation 
      1     -15.7350      2.00000
      2     -15.7286      2.00000
      3     -14.2673      2.00000
      4     -14.2620      2.00000
      5      -7.6368      2.00000
      6      -7.6359      2.00000
      7      -3.7313      2.00000
      8      -3.6347      2.00000
      9       0.4932      0.00000
     10       0.6479      0.00000
     11       6.2332      0.00000
     12       6.2490      0.00000

 k-point    12 :       0.0952    0.0476    0.0000
  band No.  band energies     occupation 
      1     -20.6379      2.00000
      2     -20.6279      2.00000
      3      -8.7772      2.00000
      4      -8.6137      2.00000
      5      -4.8739      2.00000
      6      -4.8731      2.00000
      7      -4.5986      2.00000
      8      -4.5981      2.00000
      9       2.1265      0.00000
     10       2.6996      0.00000
     11       3.3024      0.00000
     12       4.1874      0.00000

 k-point    13 :       0.1429    0.0476    0.0000
  band No.  band energies     occupation 
      1     -20.4230      2.00000
      2     -20.4132      2.00000
      3      -8.5201      2.00000
      4      -8.3586      2.00000
      5      -5.6109      2.00000
      6      -5.6098      2.00000
      7      -5.0177      2.00000
      8      -5.0170      2.00000
      9       2.4150      0.00000
     10       2.9923      0.00000
     11       3.5955      0.00000
     12       4.4769      0.00000

 k-point    14 :       0.1905    0.0476    0.0000
  band No.  band energies     occupation 
      1     -20.1017      2.00000
      2     -20.0921      2.00000
      3      -8.1374      2.00000
      4      -7.9789      2.00000
      5      -6.5971      2.00000
      6      -6.5956      2.00000
      7      -5.5287      2.00000
      8      -5.5279      2.00000
      9       2.8475      0.00000
     10       3.4307      0.00000
     11       4.0344      0.00000
     12       4.9094      0.00000

 k-point    15 :       0.2381    0.0476    0.0000
  band No.  band energies     occupation 
      1     -19.6751      2.00000
      2     -19.6659      2.00000
      3      -7.7421      2.00000
      4      -7.7401      2.00000
      5      -7.6330      2.00000
      6      -7.4788      2.00000
      7      -6.0586      2.00000
      8      -6.0577      2.00000
      9       3.4233      0.00000
     10       4.0133      0.00000
     11       4.6164      0.00000
     12       5.4781      0.00000

 k-point    16 :       0.2857    0.0476    0.0000
  band No.  band energies     occupation 
      1     -19.1453      2.00000
      2     -19.1365      2.00000
      3      -8.9703      2.00000
      4      -8.9678      2.00000
      5      -7.0138      2.00000
      6      -6.8653      2.00000
      7      -6.5584      2.00000
      8      -6.5575      2.00000
      9       4.1406      0.00000
     10       4.7303      0.00000
     11       5.2890      0.00000
     12       5.6634      0.00000

 k-point    17 :       0.3333    0.0476    0.0000
  band No.  band energies     occupation 
      1     -18.5149      2.00000
      2     -18.5065      2.00000
      3     -10.2258      2.00000
      4     -10.2226      2.00000
      5      -6.9968      2.00000
      6      -6.9958      2.00000
      7      -6.2917      2.00000
      8      -6.1507      2.00000
      9       4.2916      0.00000
     10       4.3856      0.00000
     11       5.0004      0.00000
     12       5.6338      0.00000

[...]
      7      -6.1670      2.00000
      8      -6.1659      2.00000
      9       3.2802      0.00000
     10       3.8688      0.00000
     11       4.4727      0.00000
     12       5.3408      0.00000

 k-point    24 :       0.2857    0.0952    0.0000
  band No.  band energies     occupation 
      1     -19.3040      2.00000
      2     -19.2950      2.00000
      3      -8.3961      2.00000
      4      -8.3939      2.00000
      5      -7.1969      2.00000
      6      -7.0466      2.00000
      7      -6.7441      2.00000
      8      -6.7429      2.00000
      9       3.9273      0.00000
     10       4.5222      0.00000
     11       5.1221      0.00000
     12       5.9247      0.00000

 k-point    25 :       0.3333    0.0952    0.0000
  band No.  band energies     occupation 
      1     -18.7246      2.00000
      2     -18.7161      2.00000
      3      -9.5841      2.00000
      4      -9.5814      2.00000
      5      -7.2499      2.00000
      6      -7.2486      2.00000
      7      -6.5262      2.00000
      8      -6.3825      2.00000
      9       4.7078      0.00000
     10       4.8197      0.00000
     11       4.8765      0.00000
     12       5.3494      0.00000

 k-point    26 :       0.3810    0.0952    0.0000
  band No.  band energies     occupation 
      1     -18.0471      2.00000
      2     -18.0392      2.00000
      3     -10.8002      2.00000
      4     -10.7968      2.00000
      5      -7.6681      2.00000
      6      -7.6667      2.00000
      7      -5.7620      2.00000
      8      -5.6266      2.00000
      9       3.5394      0.00000
     10       3.6290      0.00000
     11       5.6418      0.00000
     12       6.2706      0.00000

 k-point    27 :       0.4286    0.0952    0.0000
  band No.  band energies     occupation 
      1     -17.2780      2.00000
      2     -17.2706      2.00000
      3     -11.9998      2.00000
      4     -11.9957      2.00000
      5      -7.9889      2.00000
      6      -7.9874      2.00000
      7      -4.9363      2.00000
      8      -4.8118      2.00000
      9       2.2950      0.00000
     10       2.4012      0.00000
     11       6.6891      0.00000
     12       7.2616      0.00000

 k-point    28 :       0.4762    0.0952    0.0000
  band No.  band energies     occupation 
      1     -16.4328      2.00000
      2     -16.4260      2.00000
      3     -13.1434      2.00000
      4     -13.1387      2.00000
      5      -8.2060      2.00000
      6      -8.2045      2.00000
      7      -4.1260      2.00000
      8      -4.0156      2.00000
      9       1.1887      0.00000
     10       1.3132      0.00000
     11       7.2022      0.00000
     12       7.2336      0.00000

 k-point    29 :      -0.4762    0.0952    0.0000
  band No.  band energies     occupation 
      1     -15.5942      2.00000
      2     -15.5879      2.00000
      3     -14.1343      2.00000
      4     -14.1291      2.00000
      5      -8.3155      2.00000
      6      -8.3140      2.00000
      7      -3.5366      2.00000
      8      -3.4406      2.00000
      9       0.4463      0.00000
     10       0.5876      0.00000
     11       7.1604      0.00000
     12       7.1817      0.00000

 k-point    30 :       0.2857    0.1429    0.0000
  band No.  band energies     occupation 
      1     -19.3570      2.00000
      2     -19.3480      2.00000
      3      -8.1114      2.00000
      4      -8.1093      2.00000
      5      -7.2581      2.00000
      6      -7.1072      2.00000
      7      -6.9061      2.00000
      8      -6.9047      2.00000
      9       3.8562      0.00000
     10       4.4516      0.00000
     11       5.0549      0.00000
     12       5.9137      0.00000

 k-point    31 :       0.3333    0.1429    0.0000
  band No.  band energies     occupation 
      1     -18.8298      2.00000
      2     -18.8212      2.00000
      3      -9.0780      2.00000
      4      -9.0756      2.00000
      5      -7.5829      2.00000
      6      -7.5812      2.00000
      7      -6.6443      2.00000
      8      -6.4992      2.00000
      9       4.5737      0.00000
     10       5.1272      0.00000
     11       5.1428      0.00000
     12       5.2200      0.00000

 k-point    32 :       0.3810    0.1429    0.0000
  band No.  band energies     occupation 
      1     -18.2032      2.00000
      2     -18.1952      2.00000
      3     -10.1699      2.00000
      4     -10.1669      2.00000
      5      -8.1259      2.00000
      6      -8.1240      2.00000
      7      -5.9279      2.00000
      8      -5.7902      2.00000
      9       3.9467      0.00000
     10       4.0151      0.00000
     11       5.4311      0.00000
     12       6.0469      0.00000

 k-point    33 :       0.4286    0.1429    0.0000
  band No.  band energies     occupation 
      1     -17.4822      2.00000
      2     -17.4747      2.00000
      3     -11.3156      2.00000
      4     -11.3120      2.00000
      5      -8.5370      2.00000
      6      -8.5351      2.00000
      7      -5.1300      2.00000
      8      -5.0017      2.00000
      9       2.7488      0.00000
     10       2.8325      0.00000
     11       6.4226      0.00000
     12       7.0490      0.00000

 k-point    34 :       0.4762    0.1429    0.0000
  band No.  band energies     occupation 
      1     -16.6767      2.00000
      2     -16.6697      2.00000
      3     -12.4532      2.00000
      4     -12.4490      2.00000
      5      -8.8268      2.00000
      6      -8.8248      2.00000
      7      -4.2962      2.00000
      8      -4.1800      2.00000
      9       1.6067      0.00000
     10       1.7073      0.00000
     11       7.5351      0.00000
     12       8.1491      0.00000

 k-point    35 :      -0.4762    0.1429    0.0000
  band No.  band energies     occupation 
      1     -15.8182      2.00000
      2     -15.8118      2.00000
      3     -13.5210      2.00000
      4     -13.5161      2.00000
      5      -8.9998      2.00000
      6      -8.9977      2.00000
      7      -3.5474      2.00000
      8      -3.4458      2.00000
      9       0.6632      0.00000
     10       0.7818      0.00000
     11       8.1927      0.00000
     12       8.2334      0.00000

 k-point    36 :      -0.4286    0.1429    0.0000
  band No.  band energies     occupation 
      1     -15.2105      2.00000
      2     -15.2044      2.00000
      3     -14.1999      2.00000
      4     -14.1948      2.00000
      5      -9.0574      2.00000
      6      -9.0553      2.00000
      7      -3.1998      2.00000
      8      -3.1075      2.00000
      9       0.2490      0.00000
     10       0.3781      0.00000
     11       8.1759      0.00000
     12       8.2076      0.00000

 k-point    37 :       0.3810    0.1905    0.0000
  band No.  band energies     occupation 
      1     -18.2554      2.00000
      2     -18.2473      2.00000
      3      -9.8404      2.00000
      4      -9.8376      2.00000
      5      -8.4053      2.00000
      6      -8.4031      2.00000
      7      -5.9837      2.00000
      8      -5.8452      2.00000
      9       4.1008      0.00000
     10       4.1590      0.00000
     11       5.3601      0.00000
     12       5.9696      0.00000

 k-point    38 :       0.4286    0.1905    0.0000
  band No.  band energies     occupation 
      1     -17.5850      2.00000
      2     -17.5774      2.00000
      3     -10.7503      2.00000
      4     -10.7471      2.00000
      5      -9.0534      2.00000
      6      -9.0510      2.00000
      7      -5.2291      2.00000
      8      -5.0988      2.00000
      9       3.0195      0.00000
     10       3.0862      0.00000
     11       6.2823      0.00000
     12       6.8972      0.00000

 k-point    39 :       0.4762    0.1905    0.0000
  band No.  band energies     occupation 
      1     -16.8259      2.00000
      2     -16.8188      2.00000
      3     -11.7764      2.00000
      4     -11.7726      2.00000
      5      -9.4932      2.00000
      6      -9.4907      2.00000
      7      -4.4080      2.00000
      8      -4.2881      2.00000
      9       1.9313      0.00000
     10       2.0102      0.00000
     11       7.3325      0.00000
     12       7.9480      0.00000

 k-point    40 :      -0.4762    0.1905    0.0000
  band No.  band energies     occupation 
      1     -15.9949      2.00000
      2     -15.9883      2.00000
      3     -12.8250      2.00000
      4     -12.8206      2.00000
      5      -9.7645      2.00000
      6      -9.7619      2.00000
      7      -3.5859      2.00000
      8      -3.4787      2.00000
      9       0.9188      0.00000
     10       1.0125      0.00000
     11       8.4900      0.00000
     12       9.0858      0.00000

 k-point    41 :      -0.4286    0.1905    0.0000
  band No.  band energies     occupation 
      1     -15.1747      2.00000
      2     -15.1687      2.00000
      3     -13.7640      2.00000
      4     -13.7591      2.00000
      5      -9.8950      2.00000
      6      -9.8924      2.00000
      7      -2.9588      2.00000
      8      -2.8650      2.00000
      9       0.1923      0.00000
     10       0.3007      0.00000
     11       9.3927      0.00000
     12       9.4652      0.00000

 k-point    42 :       0.4762    0.2381    0.0000
  band No.  band energies     occupation 
      1     -16.8760      2.00000
      2     -16.8689      2.00000
      3     -11.4054      2.00000
      4     -11.4019      2.00000
      5      -9.8660      2.00000
      6      -9.8632      2.00000
      7      -4.4467      2.00000
      8      -4.3256      2.00000
      9       2.0557      0.00000
     10       2.1252      0.00000
     11       7.2620      0.00000
     12       7.8689      0.00000

 k-point    43 :      -0.4762    0.2381    0.0000
  band No.  band energies     occupation 
      1     -16.0877      2.00000
      2     -16.0811      2.00000
      3     -12.2199      2.00000
      4     -12.2159      2.00000
      5     -10.4139      2.00000
      6     -10.4109      2.00000
      7      -3.6150      2.00000
      8      -3.5046      2.00000
      9       1.0905      0.00000
     10       1.1671      0.00000
     11       8.3481      0.00000
     12       8.9181      0.00000

 k-point    44 :      -0.4286    0.2381    0.0000
  band No.  band energies     occupation 
      1     -15.2525      2.00000
      2     -15.2465      2.00000
      3     -13.1260      2.00000
      4     -13.1215      2.00000
      5     -10.6991      2.00000
      6     -10.6959      2.00000
      7      -2.8264      2.00000
      8      -2.7285      2.00000
      9       0.2192      0.00000
     10       0.3065      0.00000
     11       9.2849      0.00000
     12       9.6860      0.00000

 k-point    45 :      -0.3810    0.2381    0.0000
  band No.  band energies     occupation 
      1     -14.6591      2.00000
      2     -14.6534      2.00000
      3     -13.7528      2.00000
      4     -13.7478      2.00000
      5     -10.7863      2.00000
      6     -10.7831      2.00000
      7      -2.4186      2.00000
      8      -2.3293      2.00000
      9      -0.2168      0.00000
     10      -0.1214      0.00000
     11       9.4137      0.00000
     12      10.1808      0.00000

 k-point    46 :      -0.4286    0.2857    0.0000
  band No.  band energies     occupation 
      1     -15.2871      2.00000
      2     -15.2811      2.00000
      3     -12.7465      2.00000
      4     -12.7422      2.00000
      5     -11.1292      2.00000
      6     -11.1257      2.00000
      7      -2.7863      2.00000
      8      -2.6862      2.00000
      9       0.2425      0.00000
     10       0.3209      0.00000
     11       9.1376      0.00000
     12       9.6029      0.00000

 k-point    47 :      -0.3810    0.2857    0.0000
  band No.  band energies     occupation 
      1     -14.4953      2.00000
      2     -14.4899      2.00000
      3     -13.4107      2.00000
      4     -13.4059      2.00000
      5     -11.4841      2.00000
      6     -11.4805      2.00000
      7      -2.0434      2.00000
      8      -1.9535      2.00000
      9      -0.5061      0.00000
     10      -0.4222      0.00000
     11       9.1328      0.00000
     12       9.9211      0.00000

 k-point    48 :      -0.3333    0.3333    0.0000
  band No.  band energies     occupation 
      1     -13.8355      2.00000
      2     -13.8355      2.00000
      3     -13.8305      2.00000
      4     -13.8305      2.00000
      5     -11.8259      2.00000
      6     -11.8220      2.00000
      7      -1.2631      2.00000
      8      -1.2631      2.00000
      9      -1.1783      0.00000
     10      -1.1783      0.00000
     11       9.0241      0.00000
     12       9.8284      0.00000


--------------------------------------------------------------------------------------------------------


 soft charge-density along one line, spin component           1
         0         1         2         3         4         5         6         7         8         9
 total charge-density along one line
 
 pseudopotential strength for first ion, spin component:           1
 10.124  13.461  -0.000  -0.000   0.000   0.000   0.000  -0.000
 13.461  17.898  -0.000  -0.000   0.000   0.000   0.000  -0.000
 -0.000  -0.000  -4.266  -0.000  -0.000   8.344   0.000   0.000
 -0.000  -0.000  -0.000  -4.258  -0.000   0.000   8.334   0.000
  0.000   0.000  -0.000  -0.000  -4.266   0.000   0.000   8.344
  0.000   0.000   8.344   0.000   0.000 -18.452  -0.000  -0.000
  0.000   0.000   0.000   8.334   0.000  -0.000 -18.443  -0.000
 -0.000  -0.000   0.000   0.000   8.344  -0.000  -0.000 -18.452
 total augmentation occupancy for first ion, spin component:           1
  8.116  -3.602   0.000  -0.000  -0.000  -0.000  -0.000   0.000
 -3.602   1.656   0.000   0.000   0.000   0.000   0.000   0.000
 -0.000   0.000   1.837   0.000   0.000   0.173  -0.000   0.000
 -0.000   0.000   0.000   1.199  -0.000  -0.000   0.073   0.000
 -0.000   0.000   0.000  -0.000   1.837   0.000  -0.000   0.173
 -0.000  -0.000   0.173  -0.000   0.000   0.018   0.000   0.000
 -0.000   0.000  -0.000   0.073   0.000  -0.000   0.005  -0.000
  0.000   0.000   0.000  -0.000   0.173   0.000  -0.000   0.018


------------------------ aborting loop because EDIFF is reached ----------------------------------------


    CHARGE:  cpu time    0.1834: real time    0.1838
    FORLOC:  cpu time    0.0050: real time    0.0050
    FORNL :  cpu time    0.3436: real time    0.3445
    STRESS:  cpu time    1.3473: real time    1.3505
    FORCOR:  cpu time    0.0712: real time    0.0713
    FORHAR:  cpu time    0.0188: real time    0.0189
    MIXING:  cpu time    0.0044: real time    0.0044
    OFIELD:  cpu time    0.0000: real time    0.0000

  FORCE on cell =-STRESS in cart. coord.  units (eV):
  Direction    XX          YY          ZZ          XY          YZ          ZX
  --------------------------------------------------------------------------------------
  Alpha Z    12.54445    12.54445    12.54445
  Ewald    2974.82161  2974.82037 -3513.97829     0.00000     0.00000     0.00000
  Hartree  2937.51217  2937.51216 -2914.98018    -0.00000    -0.00000    -0.00000
  E(xc)     -59.51998   -59.51998   -61.75139     0.00000    -0.00000     0.00000
  Local   -6089.63958 -6089.63897  6217.24817    -0.00000    -0.00000     0.00000
  n-local   -14.82523   -13.75048   -13.00630     0.71034    -0.00000    -0.00000
  augment    -1.57105    -1.57105    -1.44410    -0.00000     0.00000    -0.00000
  Kinetic   245.07328   236.87147   275.31992    -6.59859     0.00000     0.00000
  Fock        0.00000     0.00000     0.00000     0.00000     0.00000     0.00000
  -------------------------------------------------------------------------------------
  Total       0.83182     0.83182    -0.04773     0.00000     0.00000    -0.00000
  in kB      12.71985    12.71985    -0.72981     0.00000     0.00000    -0.00000
  external pressure =        8.24 kB  Pullay stress =        0.00 kB


 VOLUME and BASIS-vectors are now :
 -----------------------------------------------------------------------------
  energy-cutoff  :      800.00
  volume of cell :      104.78
      direct lattice vectors                 reciprocal lattice vectors
     2.130000000 -1.229756000  0.000000000     0.234741784 -0.406584721  0.000000000
     2.130000000  1.229756000  0.000000000     0.234741784  0.406584721  0.000000000
     0.000000000  0.000000000 20.000000000     0.000000000  0.000000000  0.050000000

  length of vectors
     2.459512110  2.459512110 20.000000000     0.469483589  0.469483589  0.050000000


 FORCES acting on ions
    electron-ion (+dipol)            ewald-force                    non-local-force                 convergence-correction
 -----------------------------------------------------------------------------------------------
   -.879E-05 -.285E-12 0.304E+03   -.241E-03 0.684E-14 -.304E+03   0.696E-16 0.123E-16 -.973E-03   -.271E-10 -.216E-14 -.841E-05
   0.262E-03 0.570E-12 0.304E+03   0.241E-03 -.452E-14 -.304E+03   0.433E-16 0.117E-16 -.973E-03   0.446E-10 0.329E-14 -.841E-05
   -.879E-05 0.145E-11 -.304E+03   -.241E-03 0.680E-14 0.304E+03   -.801E-17 -.271E-16 0.973E-03   -.266E-10 -.277E-14 0.841E-05
   0.262E-03 -.121E-11 -.304E+03   0.241E-03 -.456E-14 0.304E+03   -.563E-16 -.800E-16 0.973E-03   0.442E-10 0.355E-14 0.841E-05
 -----------------------------------------------------------------------------------------------
   0.506E-03 0.522E-12 -.130E-03   0.858E-14 0.456E-14 0.000E+00   0.486E-16 -.831E-16 -.542E-18   0.352E-10 0.192E-14 -.117E-09
 
 
 POSITION                                       TOTAL-FORCE (eV/Angst)
 -----------------------------------------------------------------------------------
      0.00000      0.00000      0.00000        -0.000000     -0.000000      0.000376
      1.42000      0.00000      0.00000        -0.000000      0.000000      0.000376
      0.00000      0.00000      4.50000         0.000000      0.000000     -0.000376
      1.42000      0.00000      4.50000        -0.000000     -0.000000     -0.000376
 -----------------------------------------------------------------------------------
    total drift:                                0.000506      0.000000     -0.000130


--------------------------------------------------------------------------------------------------------



  FREE ENERGIE OF THE ION-ELECTRON SYSTEM (eV)
  ---------------------------------------------------
  free  energy   TOTEN  =       -36.93097548 eV

  energy  without entropy=      -36.93097548  energy(sigma->0) =      -36.93097548
 


--------------------------------------------------------------------------------------------------------


    POTLOK:  cpu time    0.1040: real time    0.1043


--------------------------------------------------------------------------------------------------------


     LOOP+:  cpu time   43.0500: real time   43.3545
    4ORBIT:  cpu time    0.0000: real time    0.0000

 total amount of memory used by VASP MPI-rank0   107376. kBytes
=======================================================================

   base      :      30000. kBytes
   nonl-proj :      16997. kBytes
   fftplans  :      32720. kBytes
   grid      :      15086. kBytes
   one-center:         12. kBytes
   wavefun   :      12561. kBytes
 
  
  
 General timing and accounting informations for this job:
 ========================================================
  
                  Total CPU time used (sec):       45.032
                            User time (sec):       44.248
                          System time (sec):        0.784
                         Elapsed time (sec):       45.727
  
                   Maximum memory used (kb):      171504.
                   Average memory used (kb):           0.
  
                          Minor page faults:       189019
                          Major page faults:            0
                 Voluntary context switches:         3451
