 vasp.5.4.4.18Apr17-6-g9f103f2a35 (build May 31 2018 21:15:54) complex          
  
 executed on          c7_intel_O1 date 2020.07.23  19:15:20
 running on    4 total cores
 distrk:  each k-point on    4 cores,    1 groups
 distr:  one band on NCORES_PER_BAND=   1 cores,    4 groups


--------------------------------------------------------------------------------------------------------


 INCAR:
 POTCAR:    PAW_PBE C 08Apr2002                   
 POTCAR:    PAW_PBE C 08Apr2002                   
   VRHFIN =C: s2p2                                                              
   LEXCH  = PE                                                                  
   EATOM  =   147.1560 eV,   10.8157 Ry                                         
                                                                                
   TITEL  = PAW_PBE C 08Apr2002                                                 
   LULTRA =        F    use ultrasoft PP ?                                      
   IUNSCR =        1    unscreen: 0-lin 1-nonlin 2-no                           
   RPACOR =    1.200    partial core radius                                     
   POMASS =   12.011; ZVAL   =    4.000    mass and valenz                      
   RCORE  =    1.500    outmost cutoff radius                                   
   RWIGS  =    1.630; RWIGS  =    0.863    wigner-seitz radius (au A)           
   ENMAX  =  400.000; ENMIN  =  300.000 eV                                      
   ICORE  =        2    local potential                                         
   LCOR   =        T    correct aug charges                                     
   LPAW   =        T    paw PP                                                  
   EAUG   =  644.873                                                            
   DEXC   =    0.000                                                            
   RMAX   =    1.529    core radius for proj-oper                               
   RAUG   =    1.300    factor for augmentation sphere                          
   RDEP   =    1.501    radius for radial grids                                 
   RDEPT  =    1.300    core radius for aug-charge                              
                                                                                
   Atomic configuration                                                         
    4 entries                                                                   
     n  l   j            E        occ.                                          
     1  0  0.50      -273.3789   2.0000                                         
     2  0  0.50       -13.7508   2.0000                                         
     2  1  0.50        -5.2854   2.0000                                         
     3  2  1.50        -5.4423   0.0000                                         
   Description                                                                  
     l       E           TYP  RCUT    TYP  RCUT                                 
     0    -13.7508458     23  1.200                                             
     0     -8.2022199     23  1.200                                             
     1     -5.2854383     23  1.500                                             
     1     34.0145650     23  1.500                                             
     2     -5.4423304      7  1.500                                             
  local pseudopotential read in
  partial core-charges read in
  partial kinetic energy density read in
  atomic valenz-charges read in
  non local Contribution for L=           0  read in
    real space projection operators read in
  non local Contribution for L=           0  read in
    real space projection operators read in
  non local Contribution for L=           1  read in
    real space projection operators read in
  non local Contribution for L=           1  read in
    real space projection operators read in
    PAW grid and wavefunctions read in
 
   number of l-projection  operators is LMAX  =           4
   number of lm-projection operators is LMMAX =           8
 
  PAW_PBE C 08Apr2002                   :
 energy of atom  1       EATOM= -147.1560
 kinetic energy error for atom=    0.0016 (will be added to EATOM!!)
 
 
 POSCAR: C2_bilayer                              
  positions in direct lattice
  No initial velocities read in
 exchange correlation table for  LEXCH =        8
   RHO(1)=    0.500       N(1)  =     2000
   RHO(2)=  100.500       N(2)  =     4000
 


--------------------------------------------------------------------------------------------------------


 ion  position               nearest neighbor table
   1  0.000  0.000  0.000-   2 1.42   2 1.42   2 1.42
   2  0.333  0.333  0.000-   1 1.42   1 1.42   1 1.42
   3  0.000  0.000  0.180-   4 1.42   4 1.42   4 1.42
   4  0.333  0.333  0.180-   3 1.42   3 1.42   3 1.42
 
  LATTYP: Found a hexagonal cell.
 ALAT       =     2.4595120000
 C/A-ratio  =     8.1316944174
  
  Lattice vectors:
  
 A1 = (   0.0000000000,  -2.4595120000,   0.0000000000)
 A2 = (  -2.1300000000,   1.2297560000,   0.0000000000)
 A3 = (   0.0000000000,   0.0000000000, -20.0000000000)


Analysis of symmetry for initial positions (statically):
=====================================================================
 Subroutine PRICEL returns:
 Original cell was already a primitive cell.
 

 Routine SETGRP: Setting up the symmetry group for a 
 hexagonal supercell.


 Subroutine GETGRP returns: Found 24 space group operations
 (whereof  6 operations were pure point group operations)
 out of a pool of 24 trial point group operations.


The static configuration has the point symmetry C_3v.
 The point group associated with its full space group is D_6h.


Analysis of symmetry for dynamics (positions and initial velocities):
=====================================================================
 Subroutine PRICEL returns:
 Original cell was already a primitive cell.
 

 Routine SETGRP: Setting up the symmetry group for a 
 hexagonal supercell.


 Subroutine GETGRP returns: Found 24 space group operations
 (whereof  6 operations were pure point group operations)
 out of a pool of 24 trial point group operations.


The dynamic configuration has the point symmetry C_3v.
 The point group associated with its full space group is D_6h.


 Subroutine INISYM returns: Found 24 space group operations
 (whereof  6 operations are pure point group operations),
 and found     1 'primitive' translations

 
 
 KPOINTS: k grid                                  

Automatic generation of k-mesh.
Space group operators:
 irot       det(A)        alpha          n_x          n_y          n_z        tau_x        tau_y        tau_z
    1     1.000000     0.000000     1.000000     0.000000     0.000000     0.000000     0.000000     0.000000
    2     1.000000   120.000000     0.000000     0.000000     1.000000     0.000000     0.000000     0.000000
    3     1.000000   120.000000     0.000000     0.000000    -1.000000     0.000000     0.000000     0.000000
    4    -1.000000   180.000000    -0.000000     1.000000     0.000000     0.000000     0.000000     0.000000
    5    -1.000000   180.000000     0.866025    -0.500000     0.000000     0.000000     0.000000     0.000000
    6    -1.000000   180.000000     0.866025     0.500000     0.000000     0.000000     0.000000     0.000000
    7    -1.000000     0.000000     1.000000     0.000000     0.000000     0.333333    -0.666667    -0.820000
    8     1.000000    60.000000     0.000000     0.000000     1.000000     0.333333    -0.666667     0.000000
    9    -1.000000    60.000000     0.000000     0.000000     1.000000    -0.000001    -0.000000    -0.820000
   10    -1.000000   120.000000     0.000000     0.000000     1.000000     0.333333    -0.666667    -0.820000
   11     1.000000   180.000000     0.000000     0.000000     1.000000     0.333333    -0.666667     0.000000
   12    -1.000000   180.000000     0.000000     0.000000     1.000000     0.000000     0.000000    -0.820000
   13    -1.000000   120.000000     0.000000     0.000000    -1.000000     0.333333    -0.666667    -0.820000
   14     1.000000    60.000000     0.000000     0.000000    -1.000000     0.333333    -0.666667     0.000000
   15    -1.000000    60.000000     0.000000     0.000000    -1.000000    -0.000000    -0.000001    -0.820000
   16     1.000000   180.000000    -0.000000     1.000000     0.000000     0.333333    -0.666667    -0.820000
   17     1.000000   180.000000     0.500000    -0.866025     0.000000    -0.000000    -0.000001    -0.820000
   18    -1.000000   180.000000     0.500000    -0.866025     0.000000     0.333333    -0.666667     0.000000
   19     1.000000   180.000000     0.866025    -0.500000     0.000000     0.333333    -0.666667    -0.820000
   20     1.000000   180.000000     1.000000     0.000000     0.000000     0.000000     0.000000    -0.820000
   21    -1.000000   180.000000     1.000000     0.000000     0.000000     0.333333    -0.666667     0.000000
   22     1.000000   180.000000     0.866025     0.500000     0.000000     0.333333    -0.666667    -0.820000
   23     1.000000   180.000000    -0.500000    -0.866025     0.000000    -0.000001    -0.000000    -0.820000
   24    -1.000000   180.000000    -0.500000    -0.866025     0.000000     0.333333    -0.666667     0.000000
 
 Subroutine IBZKPT returns following result:
 ===========================================
 
 Found     48 irreducible k-points:
 
 Following reciprocal coordinates:
            Coordinates               Weight
  0.000000  0.000000  0.000000      1.000000
  0.047619  0.000000  0.000000      6.000000
  0.095238  0.000000  0.000000      6.000000
  0.142857  0.000000  0.000000      6.000000
  0.190476  0.000000  0.000000      6.000000
  0.238095  0.000000  0.000000      6.000000
  0.285714  0.000000  0.000000      6.000000
  0.333333  0.000000  0.000000      6.000000
  0.380952  0.000000  0.000000      6.000000
  0.428571  0.000000  0.000000      6.000000
  0.476190  0.000000  0.000000      6.000000
  0.095238  0.047619  0.000000      6.000000
  0.142857  0.047619  0.000000     12.000000
  0.190476  0.047619  0.000000     12.000000
  0.238095  0.047619  0.000000     12.000000
  0.285714  0.047619  0.000000     12.000000
  0.333333  0.047619  0.000000     12.000000
  0.380952  0.047619  0.000000     12.000000
  0.428571  0.047619  0.000000     12.000000
  0.476190  0.047619  0.000000     12.000000
 -0.476190  0.047619  0.000000      6.000000
  0.190476  0.095238  0.000000      6.000000
  0.238095  0.095238  0.000000     12.000000
  0.285714  0.095238  0.000000     12.000000
  0.333333  0.095238  0.000000     12.000000
  0.380952  0.095238  0.000000     12.000000
  0.428571  0.095238  0.000000     12.000000
  0.476190  0.095238  0.000000     12.000000
 -0.476190  0.095238  0.000000     12.000000
  0.285714  0.142857  0.000000      6.000000
  0.333333  0.142857  0.000000     12.000000
  0.380952  0.142857  0.000000     12.000000
  0.428571  0.142857  0.000000     12.000000
  0.476190  0.142857  0.000000     12.000000
 -0.476190  0.142857  0.000000     12.000000
 -0.428571  0.142857  0.000000      6.000000
  0.380952  0.190476  0.000000      6.000000
  0.428571  0.190476  0.000000     12.000000
  0.476190  0.190476  0.000000     12.000000
 -0.476190  0.190476  0.000000     12.000000
 -0.428571  0.190476  0.000000     12.000000
  0.476190  0.238095  0.000000      6.000000
 -0.476190  0.238095  0.000000     12.000000
 -0.428571  0.238095  0.000000     12.000000
 -0.380952  0.238095  0.000000      6.000000
 -0.428571  0.285714  0.000000      6.000000
 -0.380952  0.285714  0.000000     12.000000
 -0.333333  0.333333  0.000000      2.000000
 
 Following cartesian coordinates:
            Coordinates               Weight
  0.000000  0.000000  0.000000      1.000000
  0.011178 -0.019361  0.000000      6.000000
  0.022356 -0.038722  0.000000      6.000000
  0.033535 -0.058084  0.000000      6.000000
  0.044713 -0.077445  0.000000      6.000000
  0.055891 -0.096806  0.000000      6.000000
  0.067069 -0.116167  0.000000      6.000000
  0.078247 -0.135528  0.000000      6.000000
  0.089425 -0.154889  0.000000      6.000000
  0.100604 -0.174251  0.000000      6.000000
  0.111782 -0.193612  0.000000      6.000000
  0.033535 -0.019361  0.000000      6.000000
  0.044713 -0.038722  0.000000     12.000000
  0.055891 -0.058084  0.000000     12.000000
  0.067069 -0.077445  0.000000     12.000000
  0.078247 -0.096806  0.000000     12.000000
  0.089425 -0.116167  0.000000     12.000000
  0.100604 -0.135528  0.000000     12.000000
  0.111782 -0.154889  0.000000     12.000000
  0.122960 -0.174251  0.000000     12.000000
 -0.100604  0.212973  0.000000      6.000000
  0.067069 -0.038722  0.000000      6.000000
  0.078247 -0.058084  0.000000     12.000000
  0.089425 -0.077445  0.000000     12.000000
  0.100604 -0.096806  0.000000     12.000000
  0.111782 -0.116167  0.000000     12.000000
  0.122960 -0.135528  0.000000     12.000000
  0.134138 -0.154889  0.000000     12.000000
 -0.089425  0.232334  0.000000     12.000000
  0.100604 -0.058084  0.000000      6.000000
  0.111782 -0.077445  0.000000     12.000000
  0.122960 -0.096806  0.000000     12.000000
  0.134138 -0.116167  0.000000     12.000000
  0.145316 -0.135528  0.000000     12.000000
 -0.078247  0.251695  0.000000     12.000000
 -0.067069  0.232334  0.000000      6.000000
  0.134138 -0.077445  0.000000      6.000000
  0.145316 -0.096806  0.000000     12.000000
  0.156495 -0.116167  0.000000     12.000000
 -0.067069  0.271056  0.000000     12.000000
 -0.055891  0.251695  0.000000     12.000000
  0.167673 -0.096806  0.000000      6.000000
 -0.055891  0.290418  0.000000     12.000000
 -0.044713  0.271056  0.000000     12.000000
 -0.033535  0.251695  0.000000      6.000000
 -0.033535  0.290418  0.000000      6.000000
 -0.022356  0.271056  0.000000     12.000000
  0.000000  0.271056  0.000000      2.000000
 


--------------------------------------------------------------------------------------------------------




 Dimension of arrays:
   k-points           NKPTS =     48   k-points in BZ     NKDIM =     48   number of bands    NBANDS=     12
   number of dos      NEDOS =    301   number of ions     NIONS =      4
   non local maximal  LDIM  =      4   non local SUM 2l+1 LMDIM =      8
   total plane-waves  NPLWV = 110592
   max r-space proj   IRMAX =      1   max aug-charges    IRDMAX=  99836
   dimension x,y,z NGX =    24 NGY =   24 NGZ =  192
   dimension x,y,z NGXF=    48 NGYF=   48 NGZF=  384
   support grid    NGXF=    96 NGYF=   96 NGZF=  768
   ions per type =               4
   NGX,Y,Z   is equivalent  to a cutoff of  16.22, 16.22, 15.96 a.u.
   NGXF,Y,Z  is equivalent  to a cutoff of  32.44, 32.44, 31.92 a.u.

 SYSTEM =  C:graphene                              
 POSCAR =  C2_bilayer                              

 Startparameter for this run:
   NWRITE =      2    write-flag & timer
   PREC   = accura    normal or accurate (medium, high low for compatibility)
   ISTART =      0    job   : 0-new  1-cont  2-samecut
   ICHARG =      2    charge: 1-file 2-atom 10-const
   ISPIN  =      1    spin polarized calculation?
   LNONCOLLINEAR =      F non collinear calculations
   LSORBIT =      F    spin-orbit coupling
   INIWAV =      1    electr: 0-lowe 1-rand  2-diag
   LASPH  =      F    aspherical Exc in radial PAW
   METAGGA=      F    non-selfconsistent MetaGGA calc.

 Electronic Relaxation 1
   ENCUT  =  800.0 eV  58.80 Ry    7.67 a.u.   5.67  5.67 46.12*2*pi/ulx,y,z
   ENINI  =  800.0     initial cutoff
   ENAUG  =  644.9 eV  augmentation charge cutoff
   NELM   =     60;   NELMIN=  5; NELMDL= -5     # of ELM steps 
   EDIFF  = 0.1E-07   stopping-criterion for ELM
   LREAL  =      F    real-space projection
   NLSPLINE    = F    spline interpolate recip. space projectors
   LCOMPAT=      F    compatible to vasp.4.4
   GGA_COMPAT  = T    GGA compatible to vasp.4.4-vasp.4.6
   LMAXPAW     = -100 max onsite density
   LMAXMIX     =    2 max onsite mixed and CHGCAR
   VOSKOWN=      0    Vosko Wilk Nusair interpolation
   ROPT   =    0.00000
 Ionic relaxation
   EDIFFG = 0.1E-06   stopping-criterion for IOM
   NSW    =      1    number of steps for IOM
   NBLOCK =      1;   KBLOCK =      1    inner block; outer block 
   IBRION =     -1    ionic relax: 0-MD 1-quasi-New 2-CG
   NFREE  =      0    steps in history (QN), initial steepest desc. (CG)
   ISIF   =      2    stress and relaxation
   IWAVPR =     10    prediction:  0-non 1-charg 2-wave 3-comb
   ISYM   =      2    0-nonsym 1-usesym 2-fastsym
   LCORR  =      T    Harris-Foulkes like correction to forces

   POTIM  = 0.5000    time-step for ionic-motion
   TEIN   =    0.0    initial temperature
   TEBEG  =    0.0;   TEEND  =   0.0 temperature during run
   SMASS  =  -3.00    Nose mass-parameter (am)
   estimated Nose-frequenzy (Omega)   =  0.10E-29 period in steps =****** mass=  -0.138E-27a.u.
   SCALEE = 1.0000    scale energy and forces
   NPACO  =    256;   APACO  = 16.0  distance and # of slots for P.C.
   PSTRESS=    0.0 pullay stress

  Mass of Ions in am
   POMASS =  12.01
  Ionic Valenz
   ZVAL   =   4.00
  Atomic Wigner-Seitz radii
   RWIGS  =  -1.00
  virtual crystal weights 
   VCA    =   1.00
   NELECT =      16.0000    total number of electrons
   NUPDOWN=      -1.0000    fix difference up-down

 DOS related values:
   EMIN   =  10.00;   EMAX   =-10.00  energy-range for DOS
   EFERMI =   0.00
   ISMEAR =     0;   SIGMA  =   0.01  broadening in eV -4-tet -1-fermi 0-gaus

 Electronic relaxation 2 (details)
   IALGO  =     38    algorithm
   LDIAG  =      T    sub-space diagonalisation (order eigenvalues)
   LSUBROT=      F    optimize rotation matrix (better conditioning)
   TURBO    =      0    0=normal 1=particle mesh
   IRESTART =      0    0=no restart 2=restart with 2 vectors
   NREBOOT  =      0    no. of reboots
   NMIN     =      0    reboot dimension
   EREF     =   0.00    reference energy to select bands
   IMIX   =      4    mixing-type and parameters
     AMIX     =   0.40;   BMIX     =  1.00
     AMIX_MAG =   1.60;   BMIX_MAG =  1.00
     AMIN     =   0.01
     WC   =   100.;   INIMIX=   1;  MIXPRE=   1;  MAXMIX= -45

 Intra band minimization:
   WEIMIN = 0.0000     energy-eigenvalue tresh-hold
   EBREAK =  0.21E-09  absolut break condition
   DEPER  =   0.30     relativ break condition  

   TIME   =   0.40     timestep for ELM

  volume/ion in A,a.u.               =      26.19       176.76
  Fermi-wavevector in a.u.,A,eV,Ry     =   0.875041  1.653589 10.417948  0.765698
  Thomas-Fermi vector in A             =   1.994657
 
 Write flags
   LWAVE        =      F    write WAVECAR
   LDOWNSAMPLE  =      F    k-point downsampling of WAVECAR
   LCHARG       =      T    write CHGCAR
   LVTOT        =      F    write LOCPOT, total local potential
   LVHAR        =      F    write LOCPOT, Hartree potential only
   LELF         =      F    write electronic localiz. function (ELF)
   LORBIT       =      0    0 simple, 1 ext, 2 COOP (PROOUT), +10 PAW based schemes


 Dipole corrections
   LMONO  =      F    monopole corrections only (constant potential shift)
   LDIPOL =      F    correct potential (dipole corrections)
   IDIPOL =      0    1-x, 2-y, 3-z, 4-all directions 
   EPSILON=  1.0000000 bulk dielectric constant

 Exchange correlation treatment:
   GGA     =    --    GGA type
   LEXCH   =     8    internal setting for exchange type
   VOSKOWN=      0    Vosko Wilk Nusair interpolation
   LHFCALC =     F    Hartree Fock is set to
   LHFONE  =     F    Hartree Fock one center treatment
   AEXX    =    0.0000 exact exchange contribution

 Linear response parameters
   LEPSILON=     F    determine dielectric tensor
   LRPA    =     F    only Hartree local field effects (RPA)
   LNABLA  =     F    use nabla operator in PAW spheres
   LVEL    =     F    velocity operator in full k-point grid
   LINTERFAST=   F  fast interpolation
   KINTER  =     0    interpolate to denser k-point grid
   CSHIFT  =0.1000    complex shift for real part using Kramers Kronig
   OMEGAMAX=  -1.0    maximum frequency
   DEG_THRESHOLD= 0.2000000E-02 threshold for treating states as degnerate
   RTIME   =   -0.100 relaxation time in fs
  (WPLASMAI=    0.000 imaginary part of plasma frequency in eV, 0.658/RTIME)
   DFIELD  = 0.0000000 0.0000000 0.0000000 field for delta impulse in time
 
 Orbital magnetization related:
   ORBITALMAG=     F  switch on orbital magnetization
   LCHIMAG   =     F  perturbation theory with respect to B field
   DQ        =  0.001000  dq finite difference perturbation B field
   LLRAUG    =     F  two centre corrections for induced B field



--------------------------------------------------------------------------------------------------------


 Static calculation
 charge density and potential will be updated during run
 non-spin polarized calculation
 Variant of blocked Davidson
 Davidson routine will perform the subspace rotation
 perform sub-space diagonalisation
    after iterative eigenvector-optimisation
 modified Broyden-mixing scheme, WC =      100.0
 initial mixing is a Kerker type mixing with AMIX =  0.4000 and BMIX =      1.0000
 Hartree-type preconditioning will be used
 using additional bands            4
 reciprocal scheme for non local part
 use partial core corrections
 calculate Harris-corrections to forces 
   (improved forces if not selfconsistent)
 use gradient corrections 
 use of overlap-Matrix (Vanderbilt PP)
 Gauss-broadening in eV      SIGMA  =   0.01


--------------------------------------------------------------------------------------------------------


  energy-cutoff  :      800.00
  volume of cell :      104.78
      direct lattice vectors                 reciprocal lattice vectors
     2.130000000 -1.229756000  0.000000000     0.234741784 -0.406584721  0.000000000
     2.130000000  1.229756000  0.000000000     0.234741784  0.406584721  0.000000000
     0.000000000  0.000000000 20.000000000     0.000000000  0.000000000  0.050000000

  length of vectors
     2.459512110  2.459512110 20.000000000     0.469483589  0.469483589  0.050000000


 
 k-points in units of 2pi/SCALE and weight: k grid                                  
   0.00000000  0.00000000  0.00000000       0.002
   0.01117818 -0.01936118  0.00000000       0.014
   0.02235636 -0.03872235  0.00000000       0.014
   0.03353454 -0.05808353  0.00000000       0.014
   0.04471272 -0.07744471  0.00000000       0.014
   0.05589090 -0.09680589  0.00000000       0.014
   0.06706908 -0.11616706  0.00000000       0.014
   0.07824726 -0.13552824  0.00000000       0.014
   0.08942544 -0.15488942  0.00000000       0.014
   0.10060362 -0.17425059  0.00000000       0.014
   0.11178180 -0.19361177  0.00000000       0.014
   0.03353454 -0.01936118  0.00000000       0.014
   0.04471272 -0.03872235  0.00000000       0.027
   0.05589090 -0.05808353  0.00000000       0.027
   0.06706908 -0.07744471  0.00000000       0.027
   0.07824726 -0.09680589  0.00000000       0.027
   0.08942544 -0.11616706  0.00000000       0.027
   0.10060362 -0.13552824  0.00000000       0.027
   0.11178180 -0.15488942  0.00000000       0.027
   0.12295998 -0.17425059  0.00000000       0.027
  -0.10060362  0.21297295  0.00000000       0.014
   0.06706908 -0.03872235  0.00000000       0.014
   0.07824726 -0.05808353  0.00000000       0.027
   0.08942544 -0.07744471  0.00000000       0.027
   0.10060362 -0.09680589  0.00000000       0.027
   0.11178180 -0.11616706  0.00000000       0.027
   0.12295998 -0.13552824  0.00000000       0.027
   0.13413816 -0.15488942  0.00000000       0.027
  -0.08942544  0.23233413  0.00000000       0.027
   0.10060362 -0.05808353  0.00000000       0.014
   0.11178180 -0.07744471  0.00000000       0.027
   0.12295998 -0.09680589  0.00000000       0.027
   0.13413816 -0.11616706  0.00000000       0.027
   0.14531634 -0.13552824  0.00000000       0.027
  -0.07824726  0.25169530  0.00000000       0.027
  -0.06706908  0.23233413  0.00000000       0.014
   0.13413816 -0.07744471  0.00000000       0.014
   0.14531634 -0.09680589  0.00000000       0.027
   0.15649452 -0.11616706  0.00000000       0.027
  -0.06706908  0.27105648  0.00000000       0.027
  -0.05589090  0.25169530  0.00000000       0.027
   0.16767270 -0.09680589  0.00000000       0.014
  -0.05589090  0.29041766  0.00000000       0.027
  -0.04471272  0.27105648  0.00000000       0.027
  -0.03353454  0.25169530  0.00000000       0.014
  -0.03353454  0.29041766  0.00000000       0.014
  -0.02235636  0.27105648  0.00000000       0.027
   0.00000000  0.27105648  0.00000000       0.005
 
 k-points in reciprocal lattice and weights: k grid                                  
   0.00000000  0.00000000  0.00000000       0.002
   0.04761905  0.00000000  0.00000000       0.014
   0.09523810  0.00000000  0.00000000       0.014
   0.14285714  0.00000000  0.00000000       0.014
   0.19047619  0.00000000  0.00000000       0.014
   0.23809524  0.00000000  0.00000000       0.014
   0.28571429  0.00000000  0.00000000       0.014
   0.33333333  0.00000000  0.00000000       0.014
   0.38095238  0.00000000  0.00000000       0.014
   0.42857143  0.00000000  0.00000000       0.014
   0.47619048  0.00000000  0.00000000       0.014
   0.09523810  0.04761905  0.00000000       0.014
   0.14285714  0.04761905  0.00000000       0.027
   0.19047619  0.04761905  0.00000000       0.027
   0.23809524  0.04761905  0.00000000       0.027
   0.28571429  0.04761905  0.00000000       0.027
   0.33333333  0.04761905  0.00000000       0.027
   0.38095238  0.04761905  0.00000000       0.027
   0.42857143  0.04761905  0.00000000       0.027
   0.47619048  0.04761905  0.00000000       0.027
  -0.47619048  0.04761905  0.00000000       0.014
   0.19047619  0.09523810  0.00000000       0.014
   0.23809524  0.09523810  0.00000000       0.027
   0.28571429  0.09523810  0.00000000       0.027
   0.33333333  0.09523810  0.00000000       0.027
   0.38095238  0.09523810  0.00000000       0.027
   0.42857143  0.09523810  0.00000000       0.027
   0.47619048  0.09523810  0.00000000       0.027
  -0.47619048  0.09523810  0.00000000       0.027
   0.28571429  0.14285714  0.00000000       0.014
   0.33333333  0.14285714  0.00000000       0.027
   0.38095238  0.14285714  0.00000000       0.027
   0.42857143  0.14285714  0.00000000       0.027
   0.47619048  0.14285714  0.00000000       0.027
  -0.47619048  0.14285714  0.00000000       0.027
  -0.42857143  0.14285714  0.00000000       0.014
   0.38095238  0.19047619  0.00000000       0.014
   0.42857143  0.19047619  0.00000000       0.027
   0.47619048  0.19047619  0.00000000       0.027
  -0.47619048  0.19047619  0.00000000       0.027
  -0.42857143  0.19047619  0.00000000       0.027
   0.47619048  0.23809524  0.00000000       0.014
  -0.47619048  0.23809524  0.00000000       0.027
  -0.42857143  0.23809524  0.00000000       0.027
  -0.38095238  0.23809524  0.00000000       0.014
  -0.42857143  0.28571429  0.00000000       0.014
  -0.38095238  0.28571429  0.00000000       0.027
  -0.33333333  0.33333333  0.00000000       0.005
 
 position of ions in fractional coordinates (direct lattice) 
   0.00000000  0.00000000  0.00000000
   0.33333300  0.33333300  0.00000000
   0.00000000  0.00000000  0.18000000
   0.33333300  0.33333300  0.18000000
 
 position of ions in cartesian coordinates  (Angst):
   0.00000000  0.00000000  0.00000000
   1.41999858  0.00000000  0.00000000
   0.00000000  0.00000000  3.60000000
   1.41999858  0.00000000  3.60000000
 


--------------------------------------------------------------------------------------------------------


 k-point  1 :   0.0000 0.0000 0.0000  plane waves:    5409
 k-point  2 :   0.0476 0.0000 0.0000  plane waves:    5413
 k-point  3 :   0.0952 0.0000 0.0000  plane waves:    5402
 k-point  4 :   0.1429 0.0000 0.0000  plane waves:    5398
 k-point  5 :   0.1905 0.0000 0.0000  plane waves:    5404
 k-point  6 :   0.2381 0.0000 0.0000  plane waves:    5408
 k-point  7 :   0.2857 0.0000 0.0000  plane waves:    5404
 k-point  8 :   0.3333 0.0000 0.0000  plane waves:    5394
 k-point  9 :   0.3810 0.0000 0.0000  plane waves:    5382
 k-point 10 :   0.4286 0.0000 0.0000  plane waves:    5396
 k-point 11 :   0.4762 0.0000 0.0000  plane waves:    5380
 k-point 12 :   0.0952 0.0476 0.0000  plane waves:    5411
 k-point 13 :   0.1429 0.0476 0.0000  plane waves:    5415
 k-point 14 :   0.1905 0.0476 0.0000  plane waves:    5413
 k-point 15 :   0.2381 0.0476 0.0000  plane waves:    5399
 k-point 16 :   0.2857 0.0476 0.0000  plane waves:    5396
 k-point 17 :   0.3333 0.0476 0.0000  plane waves:    5389
 k-point 18 :   0.3810 0.0476 0.0000  plane waves:    5378
 k-point 19 :   0.4286 0.0476 0.0000  plane waves:    5381
 k-point 20 :   0.4762 0.0476 0.0000  plane waves:    5391
 k-point 21 :  -0.4762 0.0476 0.0000  plane waves:    5394
 k-point 22 :   0.1905 0.0952 0.0000  plane waves:    5403
 k-point 23 :   0.2381 0.0952 0.0000  plane waves:    5409
 k-point 24 :   0.2857 0.0952 0.0000  plane waves:    5419
 k-point 25 :   0.3333 0.0952 0.0000  plane waves:    5384
 k-point 26 :   0.3810 0.0952 0.0000  plane waves:    5369
 k-point 27 :   0.4286 0.0952 0.0000  plane waves:    5364
 k-point 28 :   0.4762 0.0952 0.0000  plane waves:    5382
 k-point 29 :  -0.4762 0.0952 0.0000  plane waves:    5404
 k-point 30 :   0.2857 0.1429 0.0000  plane waves:    5405
 k-point 31 :   0.3333 0.1429 0.0000  plane waves:    5404
 k-point 32 :   0.3810 0.1429 0.0000  plane waves:    5382
 k-point 33 :   0.4286 0.1429 0.0000  plane waves:    5347
 k-point 34 :   0.4762 0.1429 0.0000  plane waves:    5367
 k-point 35 :  -0.4762 0.1429 0.0000  plane waves:    5376
 k-point 36 :  -0.4286 0.1429 0.0000  plane waves:    5400
 k-point 37 :   0.3810 0.1905 0.0000  plane waves:    5390
 k-point 38 :   0.4286 0.1905 0.0000  plane waves:    5358
 k-point 39 :   0.4762 0.1905 0.0000  plane waves:    5365
 k-point 40 :  -0.4762 0.1905 0.0000  plane waves:    5363
 k-point 41 :  -0.4286 0.1905 0.0000  plane waves:    5377
 k-point 42 :   0.4762 0.2381 0.0000  plane waves:    5364
 k-point 43 :  -0.4762 0.2381 0.0000  plane waves:    5368
 k-point 44 :  -0.4286 0.2381 0.0000  plane waves:    5360
 k-point 45 :  -0.3810 0.2381 0.0000  plane waves:    5366
 k-point 46 :  -0.4286 0.2857 0.0000  plane waves:    5362
 k-point 47 :  -0.3810 0.2857 0.0000  plane waves:    5326
 k-point 48 :  -0.3333 0.3333 0.0000  plane waves:    5334

 maximum and minimum number of plane-waves per node :      5419     5326

 maximum number of plane-waves:      5419
 maximum index in each direction: 
   IXMAX=    6   IYMAX=    5   IZMAX=   46
   IXMIN=   -6   IYMIN=   -5   IZMIN=  -46


 serial   3D FFT for wavefunctions
 parallel 3D FFT for charge:
    minimum data exchange during FFTs selected (reduces bandwidth)


 total amount of memory used by VASP MPI-rank0   107376. kBytes
=======================================================================

   base      :      30000. kBytes
   nonl-proj :      16997. kBytes
   fftplans  :      32720. kBytes
   grid      :      15086. kBytes
   one-center:         12. kBytes
   wavefun   :      12561. kBytes
 
     INWAV:  cpu time    0.0000: real time    0.0001
 Broyden mixing: mesh for mixing (old mesh)
   NGX = 11   NGY = 11   NGZ = 93
  (NGX  = 48   NGY  = 48   NGZ  =384)
  gives a total of  11253 points

 initial charge density was supplied:
 charge density of overlapping atoms calculated
 number of electron      16.0000000 magnetization 
 keeping initial charge density in first step


--------------------------------------------------------------------------------------------------------


 Maximum index for augmentation-charges        24168 (set IRDMAX)


--------------------------------------------------------------------------------------------------------


 First call to EWALD:  gamma=   0.376
 Maximum number of real-space cells 5x 5x 1
 Maximum number of reciprocal cells 2x 2x10

    FEWALD:  cpu time    0.0011: real time    0.0011


--------------------------------------- Iteration      1(   1)  ---------------------------------------


    POTLOK:  cpu time    0.0857: real time    0.1029
    SETDIJ:  cpu time    0.0410: real time    0.0412
     EDDAV:  cpu time    1.4595: real time    1.4645
       DOS:  cpu time    0.0004: real time    0.0004
    --------------------------------------------
      LOOP:  cpu time    1.5866: real time    1.6089

 eigenvalue-minimisations  :  1152
 total energy-change (2. order) : 0.1287160E+03  (-0.8011808E+03)
 number of electron      16.0000000 magnetization 
 augmentation part       16.0000000 magnetization 

 Free energy of the ion-electron system (eV)
  ---------------------------------------------------
  alpha Z        PSCENC =        12.54445055
  Ewald energy   TEWEN  =      3027.57480298
  -Hartree energ DENC   =     -3489.16669819
  -exchange      EXHF   =         0.00000000
  -V(xc)+E(xc)   XCENC  =        52.87846864
  PAW double counting   =       434.08818552     -436.36580876
  entropy T*S    EENTRO =        -0.00024601
  eigenvalues    EBANDS =       -61.45481657
  atomic energy  EATOM  =       588.61769381
  Solvation  Ediel_sol  =         0.00000000
  ---------------------------------------------------
  free energy    TOTEN  =       128.71603198 eV

  energy without entropy =      128.71627799  energy(sigma->0) =      128.71615499


--------------------------------------------------------------------------------------------------------




--------------------------------------- Iteration      1(   2)  ---------------------------------------


     EDDAV:  cpu time    2.0420: real time    2.0486
       DOS:  cpu time    0.0003: real time    0.0003
    --------------------------------------------
      LOOP:  cpu time    2.0423: real time    2.0488

 eigenvalue-minimisations  :  1868
 total energy-change (2. order) :-0.1536742E+03  (-0.1401988E+03)
 number of electron      16.0000000 magnetization 
 augmentation part       16.0000000 magnetization 

 Free energy of the ion-electron system (eV)
  ---------------------------------------------------
  alpha Z        PSCENC =        12.54445055
  Ewald energy   TEWEN  =      3027.57480298
  -Hartree energ DENC   =     -3489.16669819
  -exchange      EXHF   =         0.00000000
  -V(xc)+E(xc)   XCENC  =        52.87846864
  PAW double counting   =       434.08818552     -436.36580876
  entropy T*S    EENTRO =        -0.00000000
  eigenvalues    EBANDS =      -215.12924787
  atomic energy  EATOM  =       588.61769381
  Solvation  Ediel_sol  =         0.00000000
  ---------------------------------------------------
  free energy    TOTEN  =       -24.95815331 eV

  energy without entropy =      -24.95815331  energy(sigma->0) =      -24.95815331


--------------------------------------------------------------------------------------------------------




--------------------------------------- Iteration      1(   3)  ---------------------------------------


     EDDAV:  cpu time    1.6537: real time    1.6593
       DOS:  cpu time    0.0002: real time    0.0002
    --------------------------------------------
      LOOP:  cpu time    1.6539: real time    1.6594

 eigenvalue-minimisations  :  1412
 total energy-change (2. order) :-0.1416191E+02  (-0.1406245E+02)
 number of electron      16.0000000 magnetization 
 augmentation part       16.0000000 magnetization 

 Free energy of the ion-electron system (eV)
  ---------------------------------------------------
  alpha Z        PSCENC =        12.54445055
  Ewald energy   TEWEN  =      3027.57480298
  -Hartree energ DENC   =     -3489.16669819
  -exchange      EXHF   =         0.00000000
  -V(xc)+E(xc)   XCENC  =        52.87846864
  PAW double counting   =       434.08818552     -436.36580876
  entropy T*S    EENTRO =        -0.00000000
  eigenvalues    EBANDS =      -229.29115411
  atomic energy  EATOM  =       588.61769381
  Solvation  Ediel_sol  =         0.00000000
  ---------------------------------------------------
  free energy    TOTEN  =       -39.12005955 eV

  energy without entropy =      -39.12005955  energy(sigma->0) =      -39.12005955


--------------------------------------------------------------------------------------------------------




--------------------------------------- Iteration      1(   4)  ---------------------------------------


     EDDAV:  cpu time    1.7079: real time    1.7134
       DOS:  cpu time    0.0002: real time    0.0002
    --------------------------------------------
      LOOP:  cpu time    1.7081: real time    1.7136

 eigenvalue-minimisations  :  1476
 total energy-change (2. order) :-0.3243193E+00  (-0.3232008E+00)
 number of electron      16.0000000 magnetization 
 augmentation part       16.0000000 magnetization 

 Free energy of the ion-electron system (eV)
  ---------------------------------------------------
  alpha Z        PSCENC =        12.54445055
  Ewald energy   TEWEN  =      3027.57480298
  -Hartree energ DENC   =     -3489.16669819
  -exchange      EXHF   =         0.00000000
  -V(xc)+E(xc)   XCENC  =        52.87846864
  PAW double counting   =       434.08818552     -436.36580876
  entropy T*S    EENTRO =        -0.00000000
  eigenvalues    EBANDS =      -229.61547338
  atomic energy  EATOM  =       588.61769381
  Solvation  Ediel_sol  =         0.00000000
  ---------------------------------------------------
  free energy    TOTEN  =       -39.44437882 eV

  energy without entropy =      -39.44437882  energy(sigma->0) =      -39.44437882


--------------------------------------------------------------------------------------------------------




--------------------------------------- Iteration      1(   5)  ---------------------------------------


     EDDAV:  cpu time    1.6665: real time    1.6739
       DOS:  cpu time    0.0002: real time    0.0002
    CHARGE:  cpu time    0.1863: real time    0.1868
    MIXING:  cpu time    0.0025: real time    0.0025
    --------------------------------------------
      LOOP:  cpu time    1.8554: real time    1.8633

 eigenvalue-minimisations  :  1432
 total energy-change (2. order) :-0.1015977E-01  (-0.1013996E-01)
 number of electron      16.0000000 magnetization 
 augmentation part        0.4277202 magnetization 

 Broyden mixing:
  rms(total) = 0.90233E+00    rms(broyden)= 0.90232E+00
  rms(prec ) = 0.96402E+00
  weight for this iteration     100.00

 Free energy of the ion-electron system (eV)
  ---------------------------------------------------
  alpha Z        PSCENC =        12.54445055
  Ewald energy   TEWEN  =      3027.57480298
  -Hartree energ DENC   =     -3489.16669819
  -exchange      EXHF   =         0.00000000
  -V(xc)+E(xc)   XCENC  =        52.87846864
  PAW double counting   =       434.08818552     -436.36580876
  entropy T*S    EENTRO =        -0.00000000
  eigenvalues    EBANDS =      -229.62563315
  atomic energy  EATOM  =       588.61769381
  Solvation  Ediel_sol  =         0.00000000
  ---------------------------------------------------
  free energy    TOTEN  =       -39.45453859 eV

  energy without entropy =      -39.45453859  energy(sigma->0) =      -39.45453859


--------------------------------------------------------------------------------------------------------




--------------------------------------- Iteration      1(   6)  ---------------------------------------


    POTLOK:  cpu time    0.0754: real time    0.0804
    SETDIJ:  cpu time    0.0368: real time    0.0369
     EDDAV:  cpu time    1.6373: real time    1.6426
       DOS:  cpu time    0.0002: real time    0.0002
    CHARGE:  cpu time    0.1832: real time    0.1837
    MIXING:  cpu time    0.0027: real time    0.0027
    --------------------------------------------
      LOOP:  cpu time    1.9356: real time    1.9464

 eigenvalue-minimisations  :  1380
 total energy-change (2. order) : 0.1862270E+01  (-0.1751634E+00)
 number of electron      16.0000000 magnetization 
 augmentation part        0.4087534 magnetization 

 Broyden mixing:
  rms(total) = 0.52895E+00    rms(broyden)= 0.52895E+00
  rms(prec ) = 0.55899E+00
  weight for this iteration     100.00

 eigenvalues of (default mixing * dielectric matrix)
  average eigenvalue GAMMA=   2.2047
  2.2047

 Free energy of the ion-electron system (eV)
  ---------------------------------------------------
  alpha Z        PSCENC =        12.54445055
  Ewald energy   TEWEN  =      3027.57480298
  -Hartree energ DENC   =     -3508.69785838
  -exchange      EXHF   =         0.00000000
  -V(xc)+E(xc)   XCENC  =        53.86966190
  PAW double counting   =       803.61715524     -806.19295328
  entropy T*S    EENTRO =        -0.00000000
  eigenvalues    EBANDS =      -208.92522164
  atomic energy  EATOM  =       588.61769381
  Solvation  Ediel_sol  =         0.00000000
  ---------------------------------------------------
  free energy    TOTEN  =       -37.59226883 eV

  energy without entropy =      -37.59226883  energy(sigma->0) =      -37.59226883


--------------------------------------------------------------------------------------------------------




--------------------------------------- Iteration      1(   7)  ---------------------------------------


    POTLOK:  cpu time    0.0731: real time    0.0734
    SETDIJ:  cpu time    0.0358: real time    0.0358
     EDDAV:  cpu time    1.6692: real time    1.6746
       DOS:  cpu time    0.0002: real time    0.0002
    CHARGE:  cpu time    0.1739: real time    0.1744
    MIXING:  cpu time    0.0027: real time    0.0027
    --------------------------------------------
      LOOP:  cpu time    1.9549: real time    1.9610

 eigenvalue-minimisations  :  1424
 total energy-change (2. order) : 0.6617767E+00  (-0.2258327E+00)
 number of electron      16.0000000 magnetization 
 augmentation part        0.3866461 magnetization 

 Broyden mixing:
  rms(total) = 0.13628E+00    rms(broyden)= 0.13628E+00
  rms(prec ) = 0.14219E+00
  weight for this iteration     100.00

 eigenvalues of (default mixing * dielectric matrix)
  average eigenvalue GAMMA=   2.2684
  2.1461  2.3907

 Free energy of the ion-electron system (eV)
  ---------------------------------------------------
  alpha Z        PSCENC =        12.54445055
  Ewald energy   TEWEN  =      3027.57480298
  -Hartree energ DENC   =     -3533.88701128
  -exchange      EXHF   =         0.00000000
  -V(xc)+E(xc)   XCENC  =        55.14932871
  PAW double counting   =      1519.87968233    -1522.71856379
  entropy T*S    EENTRO =        -0.00000000
  eigenvalues    EBANDS =      -184.09087545
  atomic energy  EATOM  =       588.61769381
  Solvation  Ediel_sol  =         0.00000000
  ---------------------------------------------------
  free energy    TOTEN  =       -36.93049215 eV

  energy without entropy =      -36.93049215  energy(sigma->0) =      -36.93049215


--------------------------------------------------------------------------------------------------------




--------------------------------------- Iteration      1(   8)  ---------------------------------------


    POTLOK:  cpu time    0.0714: real time    0.0717
    SETDIJ:  cpu time    0.0350: real time    0.0351
     EDDAV:  cpu time    1.6992: real time    1.7043
       DOS:  cpu time    0.0002: real time    0.0002
    CHARGE:  cpu time    0.1829: real time    0.1834
    MIXING:  cpu time    0.0028: real time    0.0028
    --------------------------------------------
      LOOP:  cpu time    1.9914: real time    1.9974

 eigenvalue-minimisations  :  1420
 total energy-change (2. order) : 0.5968223E-02  (-0.8112347E-02)
 number of electron      16.0000000 magnetization 
 augmentation part        0.3861625 magnetization 

 Broyden mixing:
  rms(total) = 0.12652E-01    rms(broyden)= 0.12652E-01
  rms(prec ) = 0.28474E-01
  weight for this iteration     100.00

 eigenvalues of (default mixing * dielectric matrix)
  average eigenvalue GAMMA=   1.8195
  1.0103  2.3413  2.1071

 Free energy of the ion-electron system (eV)
  ---------------------------------------------------
  alpha Z        PSCENC =        12.54445055
  Ewald energy   TEWEN  =      3027.57480298
  -Hartree energ DENC   =     -3535.71488808
  -exchange      EXHF   =         0.00000000
  -V(xc)+E(xc)   XCENC  =        55.11608417
  PAW double counting   =      1708.27266093    -1710.99819184
  entropy T*S    EENTRO =        -0.00000000
  eigenvalues    EBANDS =      -182.33713645
  atomic energy  EATOM  =       588.61769381
  Solvation  Ediel_sol  =         0.00000000
  ---------------------------------------------------
  free energy    TOTEN  =       -36.92452392 eV

  energy without entropy =      -36.92452392  energy(sigma->0) =      -36.92452392


--------------------------------------------------------------------------------------------------------




--------------------------------------- Iteration      1(   9)  ---------------------------------------


    POTLOK:  cpu time    0.0721: real time    0.0723
    SETDIJ:  cpu time    0.0383: real time    0.0384
     EDDAV:  cpu time    1.7537: real time    1.7590
       DOS:  cpu time    0.0002: real time    0.0002
    CHARGE:  cpu time    0.1801: real time    0.1805
    MIXING:  cpu time    0.0028: real time    0.0028
    --------------------------------------------
      LOOP:  cpu time    2.0471: real time    2.0531

 eigenvalue-minimisations  :  1484
 total energy-change (2. order) : 0.2100911E-02  (-0.3154154E-03)
 number of electron      16.0000000 magnetization 
 augmentation part        0.3856850 magnetization 

 Broyden mixing:
  rms(total) = 0.95808E-02    rms(broyden)= 0.95808E-02
  rms(prec ) = 0.25570E-01
  weight for this iteration     100.00

 eigenvalues of (default mixing * dielectric matrix)
  average eigenvalue GAMMA=   1.9931
  1.0671  2.4743  2.4743  1.9567

 Free energy of the ion-electron system (eV)
  ---------------------------------------------------
  alpha Z        PSCENC =        12.54445055
  Ewald energy   TEWEN  =      3027.57480298
  -Hartree energ DENC   =     -3536.91358145
  -exchange      EXHF   =         0.00000000
  -V(xc)+E(xc)   XCENC  =        55.14075059
  PAW double counting   =      1704.62561215    -1707.35497542
  entropy T*S    EENTRO =        -0.00000000
  eigenvalues    EBANDS =      -181.15717622
  atomic energy  EATOM  =       588.61769381
  Solvation  Ediel_sol  =         0.00000000
  ---------------------------------------------------
  free energy    TOTEN  =       -36.92242301 eV

  energy without entropy =      -36.92242301  energy(sigma->0) =      -36.92242301


--------------------------------------------------------------------------------------------------------




--------------------------------------- Iteration      1(  10)  ---------------------------------------


    POTLOK:  cpu time    0.0722: real time    0.0724
    SETDIJ:  cpu time    0.0375: real time    0.0376
     EDDAV:  cpu time    1.7010: real time    1.7061
       DOS:  cpu time    0.0002: real time    0.0002
    CHARGE:  cpu time    0.1761: real time    0.1765
    MIXING:  cpu time    0.0029: real time    0.0029
    --------------------------------------------
      LOOP:  cpu time    1.9898: real time    1.9957

 eigenvalue-minimisations  :  1424
 total energy-change (2. order) : 0.6642099E-02  (-0.3471049E-03)
 number of electron      16.0000000 magnetization 
 augmentation part        0.3851659 magnetization 

 Broyden mixing:
  rms(total) = 0.95396E-02    rms(broyden)= 0.95396E-02
  rms(prec ) = 0.19662E-01
  weight for this iteration     100.00

 eigenvalues of (default mixing * dielectric matrix)
  average eigenvalue GAMMA=   1.8882
  3.0575  2.5355  1.9629  1.0526  0.8328

 Free energy of the ion-electron system (eV)
  ---------------------------------------------------
  alpha Z        PSCENC =        12.54445055
  Ewald energy   TEWEN  =      3027.57480298
  -Hartree energ DENC   =     -3541.08202504
  -exchange      EXHF   =         0.00000000
  -V(xc)+E(xc)   XCENC  =        55.19287815
  PAW double counting   =      1687.31985834    -1690.04694361
  entropy T*S    EENTRO =        -0.00000000
  eigenvalues    EBANDS =      -177.03649609
  atomic energy  EATOM  =       588.61769381
  Solvation  Ediel_sol  =         0.00000000
  ---------------------------------------------------
  free energy    TOTEN  =       -36.91578091 eV

  energy without entropy =      -36.91578091  energy(sigma->0) =      -36.91578091


--------------------------------------------------------------------------------------------------------




--------------------------------------- Iteration      1(  11)  ---------------------------------------


    POTLOK:  cpu time    0.0712: real time    0.0714
    SETDIJ:  cpu time    0.0348: real time    0.0349
     EDDAV:  cpu time    1.5950: real time    1.5997
       DOS:  cpu time    0.0002: real time    0.0002
    CHARGE:  cpu time    0.1830: real time    0.1834
    MIXING:  cpu time    0.0030: real time    0.0030
    --------------------------------------------
      LOOP:  cpu time    1.8871: real time    1.8926

 eigenvalue-minimisations  :  1344
 total energy-change (2. order) : 0.2808044E-02  (-0.1006528E-03)
 number of electron      16.0000000 magnetization 
 augmentation part        0.3850817 magnetization 

 Broyden mixing:
  rms(total) = 0.52743E-02    rms(broyden)= 0.52743E-02
  rms(prec ) = 0.15074E-01
  weight for this iteration     100.00

 eigenvalues of (default mixing * dielectric matrix)
  average eigenvalue GAMMA=   2.0902
  4.2093  2.4109  2.1054  0.9763  1.5762  1.2634

 Free energy of the ion-electron system (eV)
  ---------------------------------------------------
  alpha Z        PSCENC =        12.54445055
  Ewald energy   TEWEN  =      3027.57480298
  -Hartree energ DENC   =     -3543.09838387
  -exchange      EXHF   =         0.00000000
  -V(xc)+E(xc)   XCENC  =        55.20730670
  PAW double counting   =      1700.89656516    -1703.61664033
  entropy T*S    EENTRO =        -0.00000000
  eigenvalues    EBANDS =      -175.03876787
  atomic energy  EATOM  =       588.61769381
  Solvation  Ediel_sol  =         0.00000000
  ---------------------------------------------------
  free energy    TOTEN  =       -36.91297287 eV

  energy without entropy =      -36.91297287  energy(sigma->0) =      -36.91297287


--------------------------------------------------------------------------------------------------------




--------------------------------------- Iteration      1(  12)  ---------------------------------------


    POTLOK:  cpu time    0.0688: real time    0.0690
    SETDIJ:  cpu time    0.0347: real time    0.0348
     EDDAV:  cpu time    1.5052: real time    1.5098
       DOS:  cpu time    0.0002: real time    0.0002
    CHARGE:  cpu time    0.1823: real time    0.1828
    MIXING:  cpu time    0.0030: real time    0.0031
    --------------------------------------------
      LOOP:  cpu time    1.7943: real time    1.7996

 eigenvalue-minimisations  :  1236
 total energy-change (2. order) : 0.3682643E-02  (-0.1736506E-03)
 number of electron      16.0000000 magnetization 
 augmentation part        0.3849310 magnetization 

 Broyden mixing:
  rms(total) = 0.35572E-02    rms(broyden)= 0.35572E-02
  rms(prec ) = 0.10664E-01
  weight for this iteration     100.00

 eigenvalues of (default mixing * dielectric matrix)
  average eigenvalue GAMMA=   2.4359
  6.4764  2.7853  2.2185  2.0312  1.4499  1.0054  1.0846

 Free energy of the ion-electron system (eV)
  ---------------------------------------------------
  alpha Z        PSCENC =        12.54445055
  Ewald energy   TEWEN  =      3027.57480298
  -Hartree energ DENC   =     -3546.33464618
  -exchange      EXHF   =         0.00000000
  -V(xc)+E(xc)   XCENC  =        55.21663730
  PAW double counting   =      1699.02538105    -1701.74874618
  entropy T*S    EENTRO =        -0.00000000
  eigenvalues    EBANDS =      -171.80486356
  atomic energy  EATOM  =       588.61769381
  Solvation  Ediel_sol  =         0.00000000
  ---------------------------------------------------
  free energy    TOTEN  =       -36.90929023 eV

  energy without entropy =      -36.90929023  energy(sigma->0) =      -36.90929023


--------------------------------------------------------------------------------------------------------




--------------------------------------- Iteration      1(  13)  ---------------------------------------


    POTLOK:  cpu time    0.0669: real time    0.0671
    SETDIJ:  cpu time    0.0355: real time    0.0356
     EDDAV:  cpu time    1.5045: real time    1.5093
       DOS:  cpu time    0.0002: real time    0.0002
    CHARGE:  cpu time    0.1751: real time    0.1755
    MIXING:  cpu time    0.0032: real time    0.0032
    --------------------------------------------
      LOOP:  cpu time    1.7854: real time    1.7909

 eigenvalue-minimisations  :  1232
 total energy-change (2. order) : 0.2654569E-03  (-0.3425978E-04)
 number of electron      16.0000000 magnetization 
 augmentation part        0.3849083 magnetization 

 Broyden mixing:
  rms(total) = 0.32276E-02    rms(broyden)= 0.32276E-02
  rms(prec ) = 0.79885E-02
  weight for this iteration     100.00

 eigenvalues of (default mixing * dielectric matrix)
  average eigenvalue GAMMA=   2.6902
  8.0490  3.7104  2.5052  2.0758  1.7782  1.3821  1.0103  1.0103

 Free energy of the ion-electron system (eV)
  ---------------------------------------------------
  alpha Z        PSCENC =        12.54445055
  Ewald energy   TEWEN  =      3027.57480298
  -Hartree energ DENC   =     -3548.34885744
  -exchange      EXHF   =         0.00000000
  -V(xc)+E(xc)   XCENC  =        55.21134147
  PAW double counting   =      1696.36907884    -1699.09342731
  entropy T*S    EENTRO =        -0.00000000
  eigenvalues    EBANDS =      -169.78410767
  atomic energy  EATOM  =       588.61769381
  Solvation  Ediel_sol  =         0.00000000
  ---------------------------------------------------
  free energy    TOTEN  =       -36.90902477 eV

  energy without entropy =      -36.90902477  energy(sigma->0) =      -36.90902477


--------------------------------------------------------------------------------------------------------




--------------------------------------- Iteration      1(  14)  ---------------------------------------


    POTLOK:  cpu time    0.0647: real time    0.0650
    SETDIJ:  cpu time    0.0349: real time    0.0350
     EDDAV:  cpu time    1.5803: real time    1.5854
       DOS:  cpu time    0.0002: real time    0.0002
    CHARGE:  cpu time    0.1751: real time    0.1755
    MIXING:  cpu time    0.0033: real time    0.0033
    --------------------------------------------
      LOOP:  cpu time    1.8585: real time    1.8643

 eigenvalue-minimisations  :  1328
 total energy-change (2. order) :-0.1032831E-02  (-0.5621200E-04)
 number of electron      16.0000000 magnetization 
 augmentation part        0.3848420 magnetization 

 Broyden mixing:
  rms(total) = 0.31709E-02    rms(broyden)= 0.31709E-02
  rms(prec ) = 0.46324E-02
  weight for this iteration     100.00

 eigenvalues of (default mixing * dielectric matrix)
  average eigenvalue GAMMA=   3.1477
 10.9394  4.9955  3.0229  2.5405  2.0023  1.5700  1.2553  1.0016  1.0016

 Free energy of the ion-electron system (eV)
  ---------------------------------------------------
  alpha Z        PSCENC =        12.54445055
  Ewald energy   TEWEN  =      3027.57480298
  -Hartree energ DENC   =     -3550.64114636
  -exchange      EXHF   =         0.00000000
  -V(xc)+E(xc)   XCENC  =        55.21177139
  PAW double counting   =      1700.82280274    -1703.54596766
  entropy T*S    EENTRO =        -0.00000000
  eigenvalues    EBANDS =      -167.49446505
  atomic energy  EATOM  =       588.61769381
  Solvation  Ediel_sol  =         0.00000000
  ---------------------------------------------------
  free energy    TOTEN  =       -36.91005760 eV

  energy without entropy =      -36.91005760  energy(sigma->0) =      -36.91005760


--------------------------------------------------------------------------------------------------------




--------------------------------------- Iteration      1(  15)  ---------------------------------------


    POTLOK:  cpu time    0.0644: real time    0.0646
    SETDIJ:  cpu time    0.0357: real time    0.0358
     EDDAV:  cpu time    1.6167: real time    1.6220
       DOS:  cpu time    0.0002: real time    0.0002
    CHARGE:  cpu time    0.1776: real time    0.1780
    MIXING:  cpu time    0.0033: real time    0.0033
    --------------------------------------------
      LOOP:  cpu time    1.8979: real time    1.9039

 eigenvalue-minimisations  :  1360
 total energy-change (2. order) :-0.7610667E-03  (-0.1470234E-04)
 number of electron      16.0000000 magnetization 
 augmentation part        0.3847649 magnetization 

 Broyden mixing:
  rms(total) = 0.35776E-02    rms(broyden)= 0.35776E-02
  rms(prec ) = 0.37855E-02
  weight for this iteration     100.00

 eigenvalues of (default mixing * dielectric matrix)
  average eigenvalue GAMMA=   3.6177
 15.9372  6.1366  2.9726  2.5382  1.9766  1.9766  1.5698  0.9916  0.9916  1.0864

 Free energy of the ion-electron system (eV)
  ---------------------------------------------------
  alpha Z        PSCENC =        12.54445055
  Ewald energy   TEWEN  =      3027.57480298
  -Hartree energ DENC   =     -3551.78039517
  -exchange      EXHF   =         0.00000000
  -V(xc)+E(xc)   XCENC  =        55.21891876
  PAW double counting   =      1692.05832209    -1694.78113553
  entropy T*S    EENTRO =        -0.00000000
  eigenvalues    EBANDS =      -166.36347616
  atomic energy  EATOM  =       588.61769381
  Solvation  Ediel_sol  =         0.00000000
  ---------------------------------------------------
  free energy    TOTEN  =       -36.91081867 eV

  energy without entropy =      -36.91081867  energy(sigma->0) =      -36.91081867


--------------------------------------------------------------------------------------------------------




--------------------------------------- Iteration      1(  16)  ---------------------------------------


    POTLOK:  cpu time    0.0649: real time    0.0651
    SETDIJ:  cpu time    0.0353: real time    0.0354
     EDDAV:  cpu time    1.5685: real time    1.5737
       DOS:  cpu time    0.0002: real time    0.0002
    CHARGE:  cpu time    0.1794: real time    0.1798
    MIXING:  cpu time    0.0036: real time    0.0036
    --------------------------------------------
      LOOP:  cpu time    1.8518: real time    1.8577

 eigenvalue-minimisations  :  1324
 total energy-change (2. order) :-0.2589255E-03  (-0.2392619E-05)
 number of electron      16.0000000 magnetization 
 augmentation part        0.3847983 magnetization 

 Broyden mixing:
  rms(total) = 0.48989E-03    rms(broyden)= 0.48989E-03
  rms(prec ) = 0.73135E-03
  weight for this iteration     100.00

 eigenvalues of (default mixing * dielectric matrix)
  average eigenvalue GAMMA=   4.2459
 22.4770  7.1246  3.8927  2.7275  2.4986  1.9889  1.5869  0.9934  0.9934  1.0601
  1.3619

 Free energy of the ion-electron system (eV)
  ---------------------------------------------------
  alpha Z        PSCENC =        12.54445055
  Ewald energy   TEWEN  =      3027.57480298
  -Hartree energ DENC   =     -3551.69953993
  -exchange      EXHF   =         0.00000000
  -V(xc)+E(xc)   XCENC  =        55.21511940
  PAW double counting   =      1696.18196848    -1698.90488272
  entropy T*S    EENTRO =        -0.00000000
  eigenvalues    EBANDS =      -166.44069015
  atomic energy  EATOM  =       588.61769381
  Solvation  Ediel_sol  =         0.00000000
  ---------------------------------------------------
  free energy    TOTEN  =       -36.91107759 eV

  energy without entropy =      -36.91107759  energy(sigma->0) =      -36.91107759


--------------------------------------------------------------------------------------------------------




--------------------------------------- Iteration      1(  17)  ---------------------------------------


    POTLOK:  cpu time    0.0651: real time    0.0653
    SETDIJ:  cpu time    0.0352: real time    0.0353
     EDDAV:  cpu time    1.5728: real time    1.5777
       DOS:  cpu time    0.0002: real time    0.0002
    CHARGE:  cpu time    0.1770: real time    0.1775
    MIXING:  cpu time    0.0036: real time    0.0036
    --------------------------------------------
      LOOP:  cpu time    1.8539: real time    1.8595

 eigenvalue-minimisations  :  1324
 total energy-change (2. order) :-0.1438396E-03  (-0.5740637E-06)
 number of electron      16.0000000 magnetization 
 augmentation part        0.3847903 magnetization 

 Broyden mixing:
  rms(total) = 0.96967E-03    rms(broyden)= 0.96967E-03
  rms(prec ) = 0.98117E-03
  weight for this iteration     100.00

 eigenvalues of (default mixing * dielectric matrix)
  average eigenvalue GAMMA=   4.2187
 24.1376  7.2512  4.0225  2.9046  2.3763  2.1102  2.1102  1.5996  1.1025  0.9876
  0.9876  1.0342

 Free energy of the ion-electron system (eV)
  ---------------------------------------------------
  alpha Z        PSCENC =        12.54445055
  Ewald energy   TEWEN  =      3027.57480298
  -Hartree energ DENC   =     -3551.85902048
  -exchange      EXHF   =         0.00000000
  -V(xc)+E(xc)   XCENC  =        55.21593268
  PAW double counting   =      1697.47263336    -1700.19571938
  entropy T*S    EENTRO =        -0.00000000
  eigenvalues    EBANDS =      -166.28199496
  atomic energy  EATOM  =       588.61769381
  Solvation  Ediel_sol  =         0.00000000
  ---------------------------------------------------
  free energy    TOTEN  =       -36.91122143 eV

  energy without entropy =      -36.91122143  energy(sigma->0) =      -36.91122143


--------------------------------------------------------------------------------------------------------




--------------------------------------- Iteration      1(  18)  ---------------------------------------


    POTLOK:  cpu time    0.0664: real time    0.0691
    SETDIJ:  cpu time    0.0362: real time    0.0363
     EDDAV:  cpu time    1.6212: real time    1.6261
       DOS:  cpu time    0.0002: real time    0.0002
    CHARGE:  cpu time    0.1759: real time    0.1763
    MIXING:  cpu time    0.0037: real time    0.0037
    --------------------------------------------
      LOOP:  cpu time    1.9036: real time    1.9118

 eigenvalue-minimisations  :  1380
 total energy-change (2. order) :-0.2028379E-04  (-0.7906101E-07)
 number of electron      16.0000000 magnetization 
 augmentation part        0.3847826 magnetization 

 Broyden mixing:
  rms(total) = 0.15343E-03    rms(broyden)= 0.15343E-03
  rms(prec ) = 0.16006E-03
  weight for this iteration     100.00

 eigenvalues of (default mixing * dielectric matrix)
  average eigenvalue GAMMA=   4.0842
 24.4901  7.3596  4.1519  3.1588  2.6057  2.4357  1.9668  1.5485  1.3508  1.0833
  0.9999  0.9999  0.9434

 Free energy of the ion-electron system (eV)
  ---------------------------------------------------
  alpha Z        PSCENC =        12.54445055
  Ewald energy   TEWEN  =      3027.57480298
  -Hartree energ DENC   =     -3551.85069959
  -exchange      EXHF   =         0.00000000
  -V(xc)+E(xc)   XCENC  =        55.21598335
  PAW double counting   =      1696.15314935    -1698.87636739
  entropy T*S    EENTRO =        -0.00000000
  eigenvalues    EBANDS =      -166.29025477
  atomic energy  EATOM  =       588.61769381
  Solvation  Ediel_sol  =         0.00000000
  ---------------------------------------------------
  free energy    TOTEN  =       -36.91124172 eV

  energy without entropy =      -36.91124172  energy(sigma->0) =      -36.91124172


--------------------------------------------------------------------------------------------------------




--------------------------------------- Iteration      1(  19)  ---------------------------------------


    POTLOK:  cpu time    0.0661: real time    0.0663
    SETDIJ:  cpu time    0.0352: real time    0.0352
     EDDAV:  cpu time    1.5862: real time    1.5914
       DOS:  cpu time    0.0002: real time    0.0002
    CHARGE:  cpu time    0.1754: real time    0.1758
    MIXING:  cpu time    0.0039: real time    0.0039
    --------------------------------------------
      LOOP:  cpu time    1.8669: real time    1.8728

 eigenvalue-minimisations  :  1348
 total energy-change (2. order) :-0.4209310E-05  (-0.1752338E-07)
 number of electron      16.0000000 magnetization 
 augmentation part        0.3847856 magnetization 

 Broyden mixing:
  rms(total) = 0.80887E-04    rms(broyden)= 0.80886E-04
  rms(prec ) = 0.83339E-04
  weight for this iteration     100.00

 eigenvalues of (default mixing * dielectric matrix)
  average eigenvalue GAMMA=   3.9662
 24.6931  7.3150  4.4824  3.0366  2.7605  2.4449  2.1142  1.9577  1.6049  1.0021
  1.0055  1.0055  1.0523  1.0523

 Free energy of the ion-electron system (eV)
  ---------------------------------------------------
  alpha Z        PSCENC =        12.54445055
  Ewald energy   TEWEN  =      3027.57480298
  -Hartree energ DENC   =     -3551.84120815
  -exchange      EXHF   =         0.00000000
  -V(xc)+E(xc)   XCENC  =        55.21569778
  PAW double counting   =      1696.25832414    -1698.98135722
  entropy T*S    EENTRO =        -0.00000000
  eigenvalues    EBANDS =      -166.29964980
  atomic energy  EATOM  =       588.61769381
  Solvation  Ediel_sol  =         0.00000000
  ---------------------------------------------------
  free energy    TOTEN  =       -36.91124593 eV

  energy without entropy =      -36.91124593  energy(sigma->0) =      -36.91124593


--------------------------------------------------------------------------------------------------------




--------------------------------------- Iteration      1(  20)  ---------------------------------------


    POTLOK:  cpu time    0.0666: real time    0.0668
    SETDIJ:  cpu time    0.0352: real time    0.0353
     EDDAV:  cpu time    1.5425: real time    1.5475
       DOS:  cpu time    0.0002: real time    0.0002
    CHARGE:  cpu time    0.1741: real time    0.1745
    MIXING:  cpu time    0.0040: real time    0.0040
    --------------------------------------------
      LOOP:  cpu time    1.8225: real time    1.8283

 eigenvalue-minimisations  :  1280
 total energy-change (2. order) :-0.8767056E-06  (-0.4689309E-08)
 number of electron      16.0000000 magnetization 
 augmentation part        0.3847849 magnetization 

 Broyden mixing:
  rms(total) = 0.12652E-04    rms(broyden)= 0.12648E-04
  rms(prec ) = 0.13258E-04
  weight for this iteration     100.00

 eigenvalues of (default mixing * dielectric matrix)
  average eigenvalue GAMMA=   3.8310
 24.6892  7.3274  4.4672  3.2297  2.6729  2.6729  2.3188  1.9908  1.6090  1.3700
  0.9983  1.0141  1.0141  1.0453  1.0453

 Free energy of the ion-electron system (eV)
  ---------------------------------------------------
  alpha Z        PSCENC =        12.54445055
  Ewald energy   TEWEN  =      3027.57480298
  -Hartree energ DENC   =     -3551.84735056
  -exchange      EXHF   =         0.00000000
  -V(xc)+E(xc)   XCENC  =        55.21577881
  PAW double counting   =      1696.32079678    -1699.04386159
  entropy T*S    EENTRO =        -0.00000000
  eigenvalues    EBANDS =      -166.29355758
  atomic energy  EATOM  =       588.61769381
  Solvation  Ediel_sol  =         0.00000000
  ---------------------------------------------------
  free energy    TOTEN  =       -36.91124680 eV

  energy without entropy =      -36.91124680  energy(sigma->0) =      -36.91124680


--------------------------------------------------------------------------------------------------------




--------------------------------------- Iteration      1(  21)  ---------------------------------------


    POTLOK:  cpu time    0.0685: real time    0.0712
    SETDIJ:  cpu time    0.0389: real time    0.0389
     EDDAV:  cpu time    1.3476: real time    1.3520
       DOS:  cpu time    0.0002: real time    0.0002
    CHARGE:  cpu time    0.1833: real time    0.1838
    MIXING:  cpu time    0.0043: real time    0.0043
    --------------------------------------------
      LOOP:  cpu time    1.6428: real time    1.6504

 eigenvalue-minimisations  :   992
 total energy-change (2. order) :-0.7776134E-07  (-0.2684625E-09)
 number of electron      16.0000000 magnetization 
 augmentation part        0.3847850 magnetization 

 Broyden mixing:
  rms(total) = 0.32547E-05    rms(broyden)= 0.32400E-05
  rms(prec ) = 0.34308E-05
  weight for this iteration     100.00

 eigenvalues of (default mixing * dielectric matrix)
  average eigenvalue GAMMA=   3.7336
 24.6833  7.3292  4.4769  3.2756  2.9263  2.5676  2.4162  2.4162  1.9718  1.6028
  1.0883  1.0437  0.9984  0.9984  0.9923  0.9514

 Free energy of the ion-electron system (eV)
  ---------------------------------------------------
  alpha Z        PSCENC =        12.54445055
  Ewald energy   TEWEN  =      3027.57480298
  -Hartree energ DENC   =     -3551.84573450
  -exchange      EXHF   =         0.00000000
  -V(xc)+E(xc)   XCENC  =        55.21576115
  PAW double counting   =      1696.32781979    -1699.05089054
  entropy T*S    EENTRO =        -0.00000000
  eigenvalues    EBANDS =      -166.29515012
  atomic energy  EATOM  =       588.61769381
  Solvation  Ediel_sol  =         0.00000000
  ---------------------------------------------------
  free energy    TOTEN  =       -36.91124688 eV

  energy without entropy =      -36.91124688  energy(sigma->0) =      -36.91124688


--------------------------------------------------------------------------------------------------------




--------------------------------------- Iteration      1(  22)  ---------------------------------------


    POTLOK:  cpu time    0.0706: real time    0.0732
    SETDIJ:  cpu time    0.0385: real time    0.0387
     EDDAV:  cpu time    1.2192: real time    1.2231
       DOS:  cpu time    0.0002: real time    0.0002
    CHARGE:  cpu time    0.1839: real time    0.1843
    MIXING:  cpu time    0.0045: real time    0.0045
    --------------------------------------------
      LOOP:  cpu time    1.5168: real time    1.5240

 eigenvalue-minimisations  :   840
 total energy-change (2. order) :-0.2522916E-07  (-0.9776669E-10)
 number of electron      16.0000000 magnetization 
 augmentation part        0.3847850 magnetization 

 Broyden mixing:
  rms(total) = 0.17429E-05    rms(broyden)= 0.17153E-05
  rms(prec ) = 0.19281E-05
  weight for this iteration     100.00

 eigenvalues of (default mixing * dielectric matrix)
  average eigenvalue GAMMA=   3.5941
 24.6815  7.3292  4.4828  3.2996  3.0006  2.5425  2.5425  2.2904  1.9858  1.6153
  1.2358  1.0993  0.9997  0.9997  0.9892  1.0031  1.0031

 Free energy of the ion-electron system (eV)
  ---------------------------------------------------
  alpha Z        PSCENC =        12.54445055
  Ewald energy   TEWEN  =      3027.57480298
  -Hartree energ DENC   =     -3551.84594397
  -exchange      EXHF   =         0.00000000
  -V(xc)+E(xc)   XCENC  =        55.21576028
  PAW double counting   =      1696.32572996    -1699.04879710
  entropy T*S    EENTRO =        -0.00000000
  eigenvalues    EBANDS =      -166.29494342
  atomic energy  EATOM  =       588.61769381
  Solvation  Ediel_sol  =         0.00000000
  ---------------------------------------------------
  free energy    TOTEN  =       -36.91124691 eV

  energy without entropy =      -36.91124691  energy(sigma->0) =      -36.91124691


--------------------------------------------------------------------------------------------------------




--------------------------------------- Iteration      1(  23)  ---------------------------------------


    POTLOK:  cpu time    0.0696: real time    0.0698
    SETDIJ:  cpu time    0.0377: real time    0.0378
     EDDAV:  cpu time    1.3477: real time    1.3519
       DOS:  cpu time    0.0002: real time    0.0002
    --------------------------------------------
      LOOP:  cpu time    1.4551: real time    1.4597

 eigenvalue-minimisations  :  1000
 total energy-change (2. order) : 0.2170736E-08  (-0.1818334E-10)
 number of electron      16.0000000 magnetization 
 augmentation part        0.3847850 magnetization 

 Free energy of the ion-electron system (eV)
  ---------------------------------------------------
  alpha Z        PSCENC =        12.54445055
  Ewald energy   TEWEN  =      3027.57480298
  -Hartree energ DENC   =     -3551.84607655
  -exchange      EXHF   =         0.00000000
  -V(xc)+E(xc)   XCENC  =        55.21576305
  PAW double counting   =      1696.32583062    -1699.04889943
  entropy T*S    EENTRO =        -0.00000000
  eigenvalues    EBANDS =      -166.29481192
  atomic energy  EATOM  =       588.61769381
  Solvation  Ediel_sol  =         0.00000000
  ---------------------------------------------------
  free energy    TOTEN  =       -36.91124690 eV

  energy without entropy =      -36.91124690  energy(sigma->0) =      -36.91124690


--------------------------------------------------------------------------------------------------------




 average (electrostatic) potential at core
  the test charge radii are     0.6991
  (the norm of the test charge is              1.0000)
       1 -56.6506       2 -56.6506       3 -56.6506       4 -56.6506
 
 
 
 E-fermi :  -1.3456     XC(G=0):  -3.9255     alpha+bet : -3.8262


 k-point     1 :       0.0000    0.0000    0.0000
  band No.  band energies     occupation 
      1     -20.8450      2.00000
      2     -20.7597      2.00000
      3      -9.2317      2.00000
      4      -8.5577      2.00000
      5      -4.2570      2.00000
      6      -4.2569      2.00000
      7      -4.2487      2.00000
      8      -4.2486      2.00000
      9       2.1191      0.00000
     10       2.5437      0.00000
     11       3.3043      0.00000
     12       4.5354      0.00000

 k-point     2 :       0.0476    0.0000    0.0000
  band No.  band energies     occupation 
      1     -20.7911      2.00000
      2     -20.7060      2.00000
      3      -9.1666      2.00000
      4      -8.4941      2.00000
      5      -4.4784      2.00000
      6      -4.4690      2.00000
      7      -4.3740      2.00000
      8      -4.3654      2.00000
      9       2.1915      0.00000
     10       2.6170      0.00000
     11       3.3784      0.00000
     12       4.6090      0.00000

 k-point     3 :       0.0952    0.0000    0.0000
  band No.  band energies     occupation 
      1     -20.6293      2.00000
      2     -20.5451      2.00000
      3      -8.9719      2.00000
      4      -8.3036      2.00000
      5      -5.0999      2.00000
      6      -5.0875      2.00000
      7      -4.6942      2.00000
      8      -4.6848      2.00000
      9       2.4085      0.00000
     10       2.8369      0.00000
     11       3.6005      0.00000
     12       4.8298      0.00000

 k-point     4 :       0.1429    0.0000    0.0000
  band No.  band energies     occupation 
      1     -20.3602      2.00000
      2     -20.2776      2.00000
      3      -8.6492      2.00000
      4      -7.9882      2.00000
      5      -6.0216      2.00000
      6      -6.0049      2.00000
      7      -5.1463      2.00000
      8      -5.1360      2.00000
      9       2.7701      0.00000
     10       3.2031      0.00000
     11       3.9707      0.00000
     12       5.1975      0.00000

 k-point     5 :       0.1905    0.0000    0.0000
  band No.  band energies     occupation 
      1     -19.9850      2.00000
      2     -19.9043      2.00000
      3      -8.2014      2.00000
      4      -7.5510      2.00000
      5      -7.1368      2.00000
      6      -7.1153      2.00000
      7      -5.6555      2.00000
      8      -5.6444      2.00000
      9       3.2758      0.00000
     10       3.7144      0.00000
     11       4.4885      0.00000
     12       5.7104      0.00000

 k-point     6 :       0.2381    0.0000    0.0000
  band No.  band energies     occupation 
      1     -19.5051      2.00000
      2     -19.4269      2.00000
      3      -8.3592      2.00000
      4      -8.3326      2.00000
      5      -7.6337      2.00000
      6      -6.9976      2.00000
      7      -6.1629      2.00000
      8      -6.1511      2.00000
      9       3.9243      0.00000
     10       4.3670      0.00000
     11       5.1520      0.00000
     12       6.1069      0.00000

 k-point     7 :       0.2857    0.0000    0.0000
  band No.  band energies     occupation 
      1     -18.9227      2.00000
      2     -18.8476      2.00000
      3      -9.6259      2.00000
      4      -9.5941      2.00000
      5      -6.9550      2.00000
      6      -6.6276      2.00000
      7      -6.6152      2.00000
      8      -6.3377      2.00000
      9       4.7102      0.00000
     10       4.8607      0.00000
     11       5.0405      0.00000
     12       5.3796      0.00000

 k-point     8 :       0.3333    0.0000    0.0000
  band No.  band energies     occupation 
      1     -18.2415      2.00000
      2     -18.1697      2.00000
      3     -10.8923      2.00000
      4     -10.8553      2.00000
      5      -7.0227      2.00000
      6      -7.0099      2.00000
      7      -6.1811      2.00000
      8      -5.5884      2.00000
      9       3.4949      0.00000
     10       3.9179      0.00000
     11       5.6307      0.00000
     12       6.1328      0.00000

 k-point     9 :       0.3810    0.0000    0.0000
  band No.  band energies     occupation 
      1     -17.4675      2.00000
      2     -17.3995      2.00000
      3     -12.1249      2.00000
      4     -12.0827      2.00000
      5      -7.3311      2.00000
      6      -7.3179      2.00000
      7      -5.3449      2.00000
      8      -4.7843      2.00000
      9       2.1791      0.00000
     10       2.6687      0.00000
     11       6.2924      0.00000
     12       6.4436      0.00000

 k-point    10 :       0.4286    0.0000    0.0000
  band No.  band energies     occupation 
      1     -16.6160      2.00000
      2     -16.5519      2.00000
      3     -13.2907      2.00000
      4     -13.2438      2.00000
      5      -7.5418      2.00000
      6      -7.5284      2.00000
      7      -4.5256      2.00000
      8      -4.0064      2.00000
      9       1.0234      0.00000
     10       1.5762      0.00000
     11       6.2253      0.00000
     12       6.3439      0.00000

 k-point    11 :       0.4762    0.0000    0.0000
  band No.  band energies     occupation 
      1     -15.7697      2.00000
      2     -15.7083      2.00000
      3     -14.2966      2.00000
      4     -14.2465      2.00000
      5      -7.6486      2.00000
      6      -7.6351      2.00000
      7      -3.9324      2.00000
      8      -3.4550      2.00000
      9       0.2572      0.00000
     10       0.8629      0.00000
     11       6.1745      0.00000
     12       6.2907      0.00000

 k-point    12 :       0.0952    0.0476    0.0000
  band No.  band energies     occupation 
      1     -20.6832      2.00000
      2     -20.5987      2.00000
      3      -9.0367      2.00000
      4      -8.3670      2.00000
      5      -4.8845      2.00000
      6      -4.8731      2.00000
      7      -4.6082      2.00000
      8      -4.5989      2.00000
      9       2.3362      0.00000
     10       2.7637      0.00000
     11       3.5265      0.00000
     12       4.7563      0.00000

 k-point    13 :       0.1429    0.0476    0.0000
  band No.  band energies     occupation 
      1     -20.4678      2.00000
      2     -20.3845      2.00000
      3      -8.7780      2.00000
      4      -8.1140      2.00000
      5      -5.6231      2.00000
      6      -5.6084      2.00000
      7      -5.0279      2.00000
      8      -5.0174      2.00000
      9       2.6256      0.00000
     10       3.0567      0.00000
     11       3.8227      0.00000
     12       5.0506      0.00000

 k-point    14 :       0.1905    0.0476    0.0000
[...]
      7      -6.1791      2.00000
      8      -6.1647      2.00000
      9       3.4935      0.00000
     10       3.9340      0.00000
     11       4.7113      0.00000
     12       5.9510      0.00000

 k-point    24 :       0.2857    0.0952    0.0000
  band No.  band energies     occupation 
      1     -19.3460      2.00000
      2     -19.2687      2.00000
      3      -8.4141      2.00000
      4      -8.3879      2.00000
      5      -7.4452      2.00000
      6      -6.8142      2.00000
      7      -6.7569      2.00000
      8      -6.7408      2.00000
      9       4.1425      0.00000
     10       4.5875      0.00000
     11       5.3756      0.00000
     12       5.9357      0.00000

 k-point    25 :       0.3333    0.0952    0.0000
  band No.  band energies     occupation 
      1     -18.7652      2.00000
      2     -18.6909      2.00000
      3      -9.6045      2.00000
      4      -9.5733      2.00000
      5      -7.2634      2.00000
      6      -7.2464      2.00000
      7      -6.7688      2.00000
      8      -6.1565      2.00000
      9       4.6743      0.00000
     10       4.9332      0.00000
     11       4.9904      0.00000
     12       5.4272      0.00000

 k-point    26 :       0.3810    0.0952    0.0000
  band No.  band energies     occupation 
      1     -18.0862      2.00000
      2     -18.0153      2.00000
      3     -10.8231      2.00000
      4     -10.7867      2.00000
      5      -7.6819      2.00000
      6      -7.6642      2.00000
      7      -5.9973      2.00000
      8      -5.4093      2.00000
      9       3.3744      0.00000
     10       3.7724      0.00000
     11       5.8583      0.00000
     12       6.3417      0.00000

 k-point    27 :       0.4286    0.0952    0.0000
  band No.  band energies     occupation 
      1     -17.3154      2.00000
      2     -17.2482      2.00000
      3     -12.0251      2.00000
      4     -11.9836      2.00000
      5      -8.0029      2.00000
      6      -7.9848      2.00000
      7      -5.1620      2.00000
      8      -4.6056      2.00000
      9       2.1071      0.00000
     10       2.5665      0.00000
     11       6.8859      0.00000
     12       7.3368      0.00000

 k-point    28 :       0.4762    0.0952    0.0000
  band No.  band energies     occupation 
      1     -16.4684      2.00000
      2     -16.4050      2.00000
      3     -13.1709      2.00000
      4     -13.1247      2.00000
      5      -8.2202      2.00000
      6      -8.2018      2.00000
      7      -4.3392      2.00000
      8      -3.8233      2.00000
      9       0.9796      0.00000
     10       1.5000      0.00000
     11       7.1427      0.00000
     12       7.2803      0.00000

 k-point    29 :      -0.4762    0.0952    0.0000
  band No.  band energies     occupation 
      1     -15.6285      2.00000
      2     -15.5680      2.00000
      3     -14.1634      2.00000
      4     -14.1138      2.00000
      5      -8.3298      2.00000
      6      -8.3112      2.00000
      7      -3.7368      2.00000
      8      -3.2620      2.00000
      9       0.2199      0.00000
     10       0.7920      0.00000
     11       7.0966      0.00000
     12       7.2276      0.00000

 k-point    30 :       0.2857    0.1429    0.0000
  band No.  band energies     occupation 
      1     -19.3991      2.00000
      2     -19.3215      2.00000
      3      -8.1285      2.00000
      4      -8.1040      2.00000
      5      -7.5070      2.00000
      6      -6.9197      2.00000
      7      -6.9037      2.00000
      8      -6.8724      2.00000
      9       4.0712      0.00000
     10       4.5171      0.00000
     11       5.3032      0.00000
     12       6.1179      0.00000

 k-point    31 :       0.3333    0.1429    0.0000
  band No.  band energies     occupation 
      1     -18.8707      2.00000
      2     -18.7958      2.00000
      3      -9.0971      2.00000
      4      -9.0686      2.00000
      5      -7.5979      2.00000
      6      -7.5779      2.00000
      7      -6.8881      2.00000
      8      -6.2718      2.00000
      9       4.7906      0.00000
     10       4.9920      0.00000
     11       5.2195      0.00000
     12       5.3233      0.00000

 k-point    32 :       0.3810    0.1429    0.0000
  band No.  band energies     occupation 
      1     -18.2427      2.00000
      2     -18.1710      2.00000
      3     -10.1913      2.00000
      4     -10.1580      2.00000
      5      -8.1415      2.00000
      6      -8.1201      2.00000
      7      -6.1653      2.00000
      8      -5.5705      2.00000
      9       3.7945      0.00000
     10       4.1444      0.00000
     11       5.6496      0.00000
     12       6.1136      0.00000

 k-point    33 :       0.4286    0.1429    0.0000
  band No.  band energies     occupation 
      1     -17.5200      2.00000
      2     -17.4519      2.00000
      3     -11.3394      2.00000
      4     -11.3011      2.00000
      5      -8.5531      2.00000
      6      -8.5308      2.00000
      7      -5.3590      2.00000
      8      -4.7917      2.00000
      9       2.5784      0.00000
     10       2.9796      0.00000
     11       6.6420      0.00000
     12       7.1163      0.00000

 k-point    34 :       0.4762    0.1429    0.0000
  band No.  band energies     occupation 
      1     -16.7127      2.00000
      2     -16.6484      2.00000
      3     -12.4793      2.00000
      4     -12.4361      2.00000
      5      -8.8432      2.00000
      6      -8.8203      2.00000
      7      -4.5144      2.00000
      8      -3.9822      2.00000
      9       1.4172      0.00000
     10       1.8735      0.00000
     11       7.7428      0.00000
     12       8.2301      0.00000

 k-point    35 :      -0.4762    0.1429    0.0000
  band No.  band energies     occupation 
      1     -15.8526      2.00000
      2     -15.7919      2.00000
      3     -13.5491      2.00000
      4     -13.5016      2.00000
      5      -9.0163      2.00000
      6      -8.9931      2.00000
      7      -3.7524      2.00000
      8      -3.2623      2.00000
      9       0.4551      0.00000
     10       0.9669      0.00000
     11       8.1226      0.00000
     12       8.2879      0.00000

 k-point    36 :      -0.4286    0.1429    0.0000
  band No.  band energies     occupation 
      1     -15.2443      2.00000
      2     -15.1850      2.00000
      3     -14.2289      2.00000
      4     -14.1797      2.00000
      5      -9.0739      2.00000
      6      -9.0506      2.00000
      7      -3.3964      2.00000
      8      -2.9328      2.00000
      9       0.0306      0.00000
     10       0.5736      0.00000
     11       8.1016      0.00000
     12       8.2611      0.00000

 k-point    37 :       0.3810    0.1905    0.0000
  band No.  band energies     occupation 
      1     -18.2949      2.00000
      2     -18.2230      2.00000
      3      -9.8609      2.00000
      4      -9.8294      2.00000
      5      -8.4219      2.00000
      6      -8.3984      2.00000
      7      -6.2217      2.00000
      8      -5.6247      2.00000
      9       3.9532      0.00000
     10       4.2826      0.00000
     11       5.5792      0.00000
     12       6.0345      0.00000

 k-point    38 :       0.4286    0.1905    0.0000
  band No.  band energies     occupation 
      1     -17.6230      2.00000
      2     -17.5544      2.00000
      3     -10.7728      2.00000
      4     -10.7373      2.00000
      5      -9.0712      2.00000
      6      -9.0453      2.00000
      7      -5.4597      2.00000
      8      -4.8870      2.00000
      9       2.8607      0.00000
     10       3.2210      0.00000
     11       6.5037      0.00000
     12       6.9610      0.00000

 k-point    39 :       0.4762    0.1905    0.0000
  band No.  band energies     occupation 
      1     -16.8622      2.00000
      2     -16.7973      2.00000
      3     -11.8010      2.00000
      4     -11.7609      2.00000
      5      -9.5117      2.00000
      6      -9.4845      2.00000
      7      -4.6293      2.00000
      8      -4.0868      2.00000
      9       1.7590      0.00000
     10       2.1587      0.00000
     11       7.5563      0.00000
     12       8.0106      0.00000

 k-point    40 :      -0.4762    0.1905    0.0000
  band No.  band energies     occupation 
      1     -16.0294      2.00000
      2     -15.9683      2.00000
      3     -12.8518      2.00000
      4     -12.8071      2.00000
      5      -9.7833      2.00000
      6      -9.7554      2.00000
      7      -3.7956      2.00000
      8      -3.2903      2.00000
      9       0.7309      0.00000
     10       1.1768      0.00000
     11       8.7134      0.00000
     12       9.1633      0.00000

 k-point    41 :      -0.4286    0.1905    0.0000
  band No.  band energies     occupation 
      1     -15.2078      2.00000
      2     -15.1498      2.00000
      3     -13.7925      2.00000
      4     -13.7443      2.00000
      5      -9.9140      2.00000
      6      -9.8858      2.00000
      7      -3.1563      2.00000
      8      -2.6894      2.00000
      9      -0.0101      0.00000
     10       0.4797      0.00000
     11       9.2851      0.00000
     12       9.5335      0.00000

 k-point    42 :       0.4762    0.2381    0.0000
  band No.  band energies     occupation 
      1     -16.9124      2.00000
      2     -16.8473      2.00000
      3     -11.4293      2.00000
      4     -11.3909      2.00000
      5      -9.8855      2.00000
      6      -9.8562      2.00000
      7      -4.6691      2.00000
      8      -4.1232      2.00000
      9       1.8904      0.00000
     10       2.2666      0.00000
     11       7.4875      0.00000
     12       7.9296      0.00000

 k-point    43 :      -0.4762    0.2381    0.0000
  band No.  band energies     occupation 
      1     -16.1224      2.00000
      2     -16.0610      2.00000
      3     -12.2455      2.00000
      4     -12.2033      2.00000
      5     -10.4344      2.00000
      6     -10.4030      2.00000
      7      -3.8273      2.00000
      8      -3.3133      2.00000
      9       0.9164      0.00000
     10       1.3175      0.00000
     11       8.5864      0.00000
     12       8.9830      0.00000

 k-point    44 :      -0.4286    0.2381    0.0000
  band No.  band energies     occupation 
      1     -15.2854      2.00000
      2     -15.2278      2.00000
      3     -13.1535      2.00000
      4     -13.1074      2.00000
      5     -10.7200      2.00000
      6     -10.6877      2.00000
      7      -3.0273      2.00000
      8      -2.5496      2.00000
      9       0.0338      0.00000
     10       0.4684      0.00000
     11       9.1691      0.00000
     12       9.7592      0.00000

 k-point    45 :      -0.3810    0.2381    0.0000
  band No.  band energies     occupation 
      1     -14.6912      2.00000
      2     -14.6354      2.00000
      3     -13.7812      2.00000
      4     -13.7331      2.00000
      5     -10.8074      2.00000
      6     -10.7748      2.00000
      7      -2.6115      2.00000
      8      -2.1586      2.00000
      9      -0.4102      0.00000
     10       0.0485      0.00000
     11       9.1177      0.00000
     12      10.5088      0.00000

 k-point    46 :      -0.4286    0.2857    0.0000
  band No.  band energies     occupation 
      1     -15.3200      2.00000
      2     -15.2624      2.00000
      3     -12.7735      2.00000
      4     -12.7285      2.00000
      5     -11.1510      2.00000
      6     -11.1168      2.00000
      7      -2.9888      2.00000
      8      -2.5056      2.00000
      9       0.0646      0.00000
     10       0.4754      0.00000
     11       8.9792      0.00000
     12       9.6983      0.00000

 k-point    47 :      -0.3810    0.2857    0.0000
  band No.  band energies     occupation 
      1     -14.5267      2.00000
      2     -14.4725      2.00000
      3     -13.4391      2.00000
      4     -13.3910      2.00000
      5     -11.5065      2.00000
      6     -11.4711      2.00000
      7      -2.2361      2.00000
      8      -1.7832      2.00000
      9      -0.6906      0.00000
     10      -0.2609      0.00000
     11       8.7753      0.00000
     12      10.2390      0.00000

 k-point    48 :      -0.3333    0.3333    0.0000
  band No.  band energies     occupation 
      1     -13.8653      2.00000
      2     -13.8653      2.00000
      3     -13.8144      2.00000
      4     -13.8144      2.00000
      5     -11.8487      2.00000
      6     -11.8124      2.00000
      7      -1.4500      2.00000
      8      -1.4499      2.00000
      9      -1.0143      0.00000
     10      -1.0142      0.00000
     11       8.6239      0.00000
     12      10.2155      0.00000


--------------------------------------------------------------------------------------------------------


 soft charge-density along one line, spin component           1
         0         1         2         3         4         5         6         7         8         9
 total charge-density along one line
 
 pseudopotential strength for first ion, spin component:           1
 10.124  13.462  -0.000   0.000   0.000   0.000  -0.000  -0.000
 13.462  17.898  -0.000   0.000   0.000   0.000  -0.000  -0.000
 -0.000  -0.000  -4.266  -0.000   0.000   8.344   0.000  -0.000
  0.000   0.000  -0.000  -4.258  -0.000   0.000   8.334   0.000
  0.000   0.000   0.000  -0.000  -4.266  -0.000   0.000   8.344
  0.000   0.000   8.344   0.000  -0.000 -18.453  -0.000   0.000
 -0.000  -0.000   0.000   8.334   0.000  -0.000 -18.443  -0.000
 -0.000  -0.000  -0.000   0.000   8.344   0.000  -0.000 -18.453
 total augmentation occupancy for first ion, spin component:           1
  8.119  -3.604   0.000   0.001  -0.000   0.000   0.000   0.000
 -3.604   1.657  -0.000  -0.000   0.000   0.000  -0.000   0.000
 -0.000  -0.000   1.836  -0.000   0.000   0.173   0.000   0.000
  0.001  -0.000  -0.000   1.200   0.000   0.000   0.073  -0.000
  0.000   0.000   0.000   0.000   1.836   0.000  -0.000   0.173
  0.000  -0.000   0.173   0.000   0.000   0.018  -0.000   0.000
  0.000  -0.000   0.000   0.073  -0.000   0.000   0.005   0.000
  0.000   0.000   0.000   0.000   0.173   0.000   0.000   0.018


------------------------ aborting loop because EDIFF is reached ----------------------------------------


    CHARGE:  cpu time    0.1792: real time    0.1796
    FORLOC:  cpu time    0.0050: real time    0.0050
    FORNL :  cpu time    0.3470: real time    0.3478
    STRESS:  cpu time    1.3283: real time    1.3315
    FORCOR:  cpu time    0.0698: real time    0.0700
    FORHAR:  cpu time    0.0187: real time    0.0188
    MIXING:  cpu time    0.0043: real time    0.0043
    OFIELD:  cpu time    0.0000: real time    0.0000

  FORCE on cell =-STRESS in cart. coord.  units (eV):
  Direction    XX          YY          ZZ          XY          YZ          ZX
  --------------------------------------------------------------------------------------
  Alpha Z    12.54445    12.54445    12.54445
  Ewald    3566.65935  3566.65811 -4105.74293     0.00000    -0.00000     0.00000
  Hartree  3529.25763  3529.25761 -3506.66919    -0.00000    -0.00000    -0.00000
  E(xc)     -59.55017   -59.55017   -61.72798    -0.00000     0.00000     0.00000
  Local   -7273.24964 -7273.24903  7400.73703    -0.00000     0.00000     0.00000
  n-local   -14.82302   -13.74784   -13.02937     0.71107    -0.00000    -0.00000
  augment    -1.57169    -1.57169    -1.44446     0.00000    -0.00000     0.00000
  Kinetic   245.08102   236.87977   275.59024    -6.60093     0.00000     0.00000
  Fock        0.00000     0.00000     0.00000     0.00000     0.00000     0.00000
  -------------------------------------------------------------------------------------
  Total       0.78457     0.78457     0.25779     0.00000     0.00000    -0.00000
  in kB      11.99729    11.99729     3.94207     0.00000     0.00000    -0.00000
  external pressure =        9.31 kB  Pullay stress =        0.00 kB


 VOLUME and BASIS-vectors are now :
 -----------------------------------------------------------------------------
  energy-cutoff  :      800.00
  volume of cell :      104.78
      direct lattice vectors                 reciprocal lattice vectors
     2.130000000 -1.229756000  0.000000000     0.234741784 -0.406584721  0.000000000
     2.130000000  1.229756000  0.000000000     0.234741784  0.406584721  0.000000000
     0.000000000  0.000000000 20.000000000     0.000000000  0.000000000  0.050000000

  length of vectors
     2.459512110  2.459512110 20.000000000     0.469483589  0.469483589  0.050000000


 FORCES acting on ions
    electron-ion (+dipol)            ewald-force                    non-local-force                 convergence-correction
 -----------------------------------------------------------------------------------------------
   -.879E-05 -.840E-12 0.354E+03   -.241E-03 0.672E-14 -.354E+03   -.735E-16 0.772E-18 -.263E-01   -.209E-10 0.279E-15 0.701E-05
   0.262E-03 0.439E-12 0.354E+03   0.241E-03 -.432E-14 -.354E+03   -.336E-16 -.137E-16 -.263E-01   0.319E-10 -.160E-15 0.701E-05
   -.880E-05 0.139E-12 -.354E+03   -.241E-03 0.660E-14 0.354E+03   0.912E-17 -.499E-16 0.263E-01   -.209E-10 -.101E-14 -.701E-05
   0.262E-03 -.171E-12 -.354E+03   0.241E-03 -.444E-14 0.354E+03   0.755E-16 0.214E-16 0.263E-01   0.313E-10 0.150E-14 -.701E-05
 -----------------------------------------------------------------------------------------------
   0.506E-03 -.434E-12 -.129E-03   0.858E-14 0.456E-14 0.000E+00   -.226E-16 -.414E-16 0.347E-17   0.214E-10 0.605E-15 -.258E-10
 
 
 POSITION                                       TOTAL-FORCE (eV/Angst)
 -----------------------------------------------------------------------------------
      0.00000      0.00000      0.00000         0.000000      0.000000     -0.041937
      1.42000      0.00000      0.00000        -0.000000     -0.000000     -0.041937
      0.00000      0.00000      3.60000         0.000000      0.000000      0.041937
      1.42000      0.00000      3.60000        -0.000000     -0.000000      0.041937
 -----------------------------------------------------------------------------------
    total drift:                                0.000506     -0.000000     -0.000129


--------------------------------------------------------------------------------------------------------



  FREE ENERGIE OF THE ION-ELECTRON SYSTEM (eV)
  ---------------------------------------------------
  free  energy   TOTEN  =       -36.91124690 eV

  energy  without entropy=      -36.91124690  energy(sigma->0) =      -36.91124690
 


--------------------------------------------------------------------------------------------------------


    POTLOK:  cpu time    0.1032: real time    0.1034


--------------------------------------------------------------------------------------------------------


     LOOP+:  cpu time   44.5423: real time   44.8578
    4ORBIT:  cpu time    0.0000: real time    0.0000

 total amount of memory used by VASP MPI-rank0   107376. kBytes
=======================================================================

   base      :      30000. kBytes
   nonl-proj :      16997. kBytes
   fftplans  :      32720. kBytes
   grid      :      15086. kBytes
   one-center:         12. kBytes
   wavefun   :      12561. kBytes
 
  
  
 General timing and accounting informations for this job:
 ========================================================
  
                  Total CPU time used (sec):       46.530
                            User time (sec):       45.672
                          System time (sec):        0.858
                         Elapsed time (sec):       47.234
  
                   Maximum memory used (kb):      171484.
                   Average memory used (kb):           0.
  
                          Minor page faults:       189732
                          Major page faults:            0
                 Voluntary context switches:         3852
