 vasp.5.4.4.18Apr17-6-g9f103f2a35 (build May 31 2018 21:15:54) complex          
  
 executed on          c7_intel_O1 date 2020.07.23  19:24:38
 running on    4 total cores
 distrk:  each k-point on    4 cores,    1 groups
 distr:  one band on NCORES_PER_BAND=   1 cores,    4 groups


--------------------------------------------------------------------------------------------------------


 INCAR:
 POTCAR:    PAW_PBE C 08Apr2002                   
 POTCAR:    PAW_PBE C 08Apr2002                   
   VRHFIN =C: s2p2                                                              
   LEXCH  = PE                                                                  
   EATOM  =   147.1560 eV,   10.8157 Ry                                         
                                                                                
   TITEL  = PAW_PBE C 08Apr2002                                                 
   LULTRA =        F    use ultrasoft PP ?                                      
   IUNSCR =        1    unscreen: 0-lin 1-nonlin 2-no                           
   RPACOR =    1.200    partial core radius                                     
   POMASS =   12.011; ZVAL   =    4.000    mass and valenz                      
   RCORE  =    1.500    outmost cutoff radius                                   
   RWIGS  =    1.630; RWIGS  =    0.863    wigner-seitz radius (au A)           
   ENMAX  =  400.000; ENMIN  =  300.000 eV                                      
   ICORE  =        2    local potential                                         
   LCOR   =        T    correct aug charges                                     
   LPAW   =        T    paw PP                                                  
   EAUG   =  644.873                                                            
   DEXC   =    0.000                                                            
   RMAX   =    1.529    core radius for proj-oper                               
   RAUG   =    1.300    factor for augmentation sphere                          
   RDEP   =    1.501    radius for radial grids                                 
   RDEPT  =    1.300    core radius for aug-charge                              
                                                                                
   Atomic configuration                                                         
    4 entries                                                                   
     n  l   j            E        occ.                                          
     1  0  0.50      -273.3789   2.0000                                         
     2  0  0.50       -13.7508   2.0000                                         
     2  1  0.50        -5.2854   2.0000                                         
     3  2  1.50        -5.4423   0.0000                                         
   Description                                                                  
     l       E           TYP  RCUT    TYP  RCUT                                 
     0    -13.7508458     23  1.200                                             
     0     -8.2022199     23  1.200                                             
     1     -5.2854383     23  1.500                                             
     1     34.0145650     23  1.500                                             
     2     -5.4423304      7  1.500                                             
  local pseudopotential read in
  partial core-charges read in
  partial kinetic energy density read in
  atomic valenz-charges read in
  non local Contribution for L=           0  read in
    real space projection operators read in
  non local Contribution for L=           0  read in
    real space projection operators read in
  non local Contribution for L=           1  read in
    real space projection operators read in
  non local Contribution for L=           1  read in
    real space projection operators read in
    PAW grid and wavefunctions read in
 
   number of l-projection  operators is LMAX  =           4
   number of lm-projection operators is LMMAX =           8
 
  PAW_PBE C 08Apr2002                   :
 energy of atom  1       EATOM= -147.1560
 kinetic energy error for atom=    0.0016 (will be added to EATOM!!)
 
 
 POSCAR: C2_bilayer                              
  positions in direct lattice
  No initial velocities read in
 exchange correlation table for  LEXCH =        8
   RHO(1)=    0.500       N(1)  =     2000
   RHO(2)=  100.500       N(2)  =     4000
 


--------------------------------------------------------------------------------------------------------


 ion  position               nearest neighbor table
   1  0.000  0.000  0.000-   2 1.42   2 1.42   2 1.42
   2  0.333  0.333  0.000-   1 1.42   1 1.42   1 1.42
   3  0.000  0.000  0.240-   4 1.42   4 1.42   4 1.42
   4  0.333  0.333  0.240-   3 1.42   3 1.42   3 1.42
 
  LATTYP: Found a hexagonal cell.
 ALAT       =     2.4595120000
 C/A-ratio  =     8.1316944174
  
  Lattice vectors:
  
 A1 = (   0.0000000000,  -2.4595120000,   0.0000000000)
 A2 = (  -2.1300000000,   1.2297560000,   0.0000000000)
 A3 = (   0.0000000000,   0.0000000000, -20.0000000000)


Analysis of symmetry for initial positions (statically):
=====================================================================
 Subroutine PRICEL returns:
 Original cell was already a primitive cell.
 

 Routine SETGRP: Setting up the symmetry group for a 
 hexagonal supercell.


 Subroutine GETGRP returns: Found 24 space group operations
 (whereof  6 operations were pure point group operations)
 out of a pool of 24 trial point group operations.


The static configuration has the point symmetry C_3v.
 The point group associated with its full space group is D_6h.


Analysis of symmetry for dynamics (positions and initial velocities):
=====================================================================
 Subroutine PRICEL returns:
 Original cell was already a primitive cell.
 

 Routine SETGRP: Setting up the symmetry group for a 
 hexagonal supercell.


 Subroutine GETGRP returns: Found 24 space group operations
 (whereof  6 operations were pure point group operations)
 out of a pool of 24 trial point group operations.


The dynamic configuration has the point symmetry C_3v.
 The point group associated with its full space group is D_6h.


 Subroutine INISYM returns: Found 24 space group operations
 (whereof  6 operations are pure point group operations),
 and found     1 'primitive' translations

 
 
 KPOINTS: k grid                                  

Automatic generation of k-mesh.
Space group operators:
 irot       det(A)        alpha          n_x          n_y          n_z        tau_x        tau_y        tau_z
    1     1.000000     0.000000     1.000000     0.000000     0.000000     0.000000     0.000000     0.000000
    2     1.000000   120.000000     0.000000     0.000000     1.000000     0.000000     0.000000     0.000000
    3     1.000000   120.000000     0.000000     0.000000    -1.000000     0.000000     0.000000     0.000000
    4    -1.000000   180.000000    -0.000000     1.000000     0.000000     0.000000     0.000000     0.000000
    5    -1.000000   180.000000     0.866025    -0.500000     0.000000     0.000000     0.000000     0.000000
    6    -1.000000   180.000000     0.866025     0.500000     0.000000     0.000000     0.000000     0.000000
    7    -1.000000     0.000000     1.000000     0.000000     0.000000     0.333333    -0.666667    -0.760000
    8     1.000000    60.000000     0.000000     0.000000     1.000000     0.333333    -0.666667     0.000000
    9    -1.000000    60.000000     0.000000     0.000000     1.000000    -0.000001    -0.000000    -0.760000
   10    -1.000000   120.000000     0.000000     0.000000     1.000000     0.333333    -0.666667    -0.760000
   11     1.000000   180.000000     0.000000     0.000000     1.000000     0.333333    -0.666667     0.000000
   12    -1.000000   180.000000     0.000000     0.000000     1.000000     0.000000     0.000000    -0.760000
   13    -1.000000   120.000000     0.000000     0.000000    -1.000000     0.333333    -0.666667    -0.760000
   14     1.000000    60.000000     0.000000     0.000000    -1.000000     0.333333    -0.666667     0.000000
   15    -1.000000    60.000000     0.000000     0.000000    -1.000000    -0.000000    -0.000001    -0.760000
   16     1.000000   180.000000    -0.000000     1.000000     0.000000     0.333333    -0.666667    -0.760000
   17     1.000000   180.000000     0.500000    -0.866025     0.000000    -0.000000    -0.000001    -0.760000
   18    -1.000000   180.000000     0.500000    -0.866025     0.000000     0.333333    -0.666667     0.000000
   19     1.000000   180.000000     0.866025    -0.500000     0.000000     0.333333    -0.666667    -0.760000
   20     1.000000   180.000000     1.000000     0.000000     0.000000     0.000000     0.000000    -0.760000
   21    -1.000000   180.000000     1.000000     0.000000     0.000000     0.333333    -0.666667     0.000000
   22     1.000000   180.000000     0.866025     0.500000     0.000000     0.333333    -0.666667    -0.760000
   23     1.000000   180.000000    -0.500000    -0.866025     0.000000    -0.000001    -0.000000    -0.760000
   24    -1.000000   180.000000    -0.500000    -0.866025     0.000000     0.333333    -0.666667     0.000000
 
 Subroutine IBZKPT returns following result:
 ===========================================
 
 Found     48 irreducible k-points:
 
 Following reciprocal coordinates:
            Coordinates               Weight
  0.000000  0.000000  0.000000      1.000000
  0.047619  0.000000  0.000000      6.000000
  0.095238  0.000000  0.000000      6.000000
  0.142857  0.000000  0.000000      6.000000
  0.190476  0.000000  0.000000      6.000000
  0.238095  0.000000  0.000000      6.000000
  0.285714  0.000000  0.000000      6.000000
  0.333333  0.000000  0.000000      6.000000
  0.380952  0.000000  0.000000      6.000000
  0.428571  0.000000  0.000000      6.000000
  0.476190  0.000000  0.000000      6.000000
  0.095238  0.047619  0.000000      6.000000
  0.142857  0.047619  0.000000     12.000000
  0.190476  0.047619  0.000000     12.000000
  0.238095  0.047619  0.000000     12.000000
  0.285714  0.047619  0.000000     12.000000
  0.333333  0.047619  0.000000     12.000000
  0.380952  0.047619  0.000000     12.000000
  0.428571  0.047619  0.000000     12.000000
  0.476190  0.047619  0.000000     12.000000
 -0.476190  0.047619  0.000000      6.000000
  0.190476  0.095238  0.000000      6.000000
  0.238095  0.095238  0.000000     12.000000
  0.285714  0.095238  0.000000     12.000000
  0.333333  0.095238  0.000000     12.000000
  0.380952  0.095238  0.000000     12.000000
  0.428571  0.095238  0.000000     12.000000
  0.476190  0.095238  0.000000     12.000000
 -0.476190  0.095238  0.000000     12.000000
  0.285714  0.142857  0.000000      6.000000
  0.333333  0.142857  0.000000     12.000000
  0.380952  0.142857  0.000000     12.000000
  0.428571  0.142857  0.000000     12.000000
  0.476190  0.142857  0.000000     12.000000
 -0.476190  0.142857  0.000000     12.000000
 -0.428571  0.142857  0.000000      6.000000
  0.380952  0.190476  0.000000      6.000000
  0.428571  0.190476  0.000000     12.000000
  0.476190  0.190476  0.000000     12.000000
 -0.476190  0.190476  0.000000     12.000000
 -0.428571  0.190476  0.000000     12.000000
  0.476190  0.238095  0.000000      6.000000
 -0.476190  0.238095  0.000000     12.000000
 -0.428571  0.238095  0.000000     12.000000
 -0.380952  0.238095  0.000000      6.000000
 -0.428571  0.285714  0.000000      6.000000
 -0.380952  0.285714  0.000000     12.000000
 -0.333333  0.333333  0.000000      2.000000
 
 Following cartesian coordinates:
            Coordinates               Weight
  0.000000  0.000000  0.000000      1.000000
  0.011178 -0.019361  0.000000      6.000000
  0.022356 -0.038722  0.000000      6.000000
  0.033535 -0.058084  0.000000      6.000000
  0.044713 -0.077445  0.000000      6.000000
  0.055891 -0.096806  0.000000      6.000000
  0.067069 -0.116167  0.000000      6.000000
  0.078247 -0.135528  0.000000      6.000000
  0.089425 -0.154889  0.000000      6.000000
  0.100604 -0.174251  0.000000      6.000000
  0.111782 -0.193612  0.000000      6.000000
  0.033535 -0.019361  0.000000      6.000000
  0.044713 -0.038722  0.000000     12.000000
  0.055891 -0.058084  0.000000     12.000000
  0.067069 -0.077445  0.000000     12.000000
  0.078247 -0.096806  0.000000     12.000000
  0.089425 -0.116167  0.000000     12.000000
  0.100604 -0.135528  0.000000     12.000000
  0.111782 -0.154889  0.000000     12.000000
  0.122960 -0.174251  0.000000     12.000000
 -0.100604  0.212973  0.000000      6.000000
  0.067069 -0.038722  0.000000      6.000000
  0.078247 -0.058084  0.000000     12.000000
  0.089425 -0.077445  0.000000     12.000000
  0.100604 -0.096806  0.000000     12.000000
  0.111782 -0.116167  0.000000     12.000000
  0.122960 -0.135528  0.000000     12.000000
  0.134138 -0.154889  0.000000     12.000000
 -0.089425  0.232334  0.000000     12.000000
  0.100604 -0.058084  0.000000      6.000000
  0.111782 -0.077445  0.000000     12.000000
  0.122960 -0.096806  0.000000     12.000000
  0.134138 -0.116167  0.000000     12.000000
  0.145316 -0.135528  0.000000     12.000000
 -0.078247  0.251695  0.000000     12.000000
 -0.067069  0.232334  0.000000      6.000000
  0.134138 -0.077445  0.000000      6.000000
  0.145316 -0.096806  0.000000     12.000000
  0.156495 -0.116167  0.000000     12.000000
 -0.067069  0.271056  0.000000     12.000000
 -0.055891  0.251695  0.000000     12.000000
  0.167673 -0.096806  0.000000      6.000000
 -0.055891  0.290418  0.000000     12.000000
 -0.044713  0.271056  0.000000     12.000000
 -0.033535  0.251695  0.000000      6.000000
 -0.033535  0.290418  0.000000      6.000000
 -0.022356  0.271056  0.000000     12.000000
  0.000000  0.271056  0.000000      2.000000
 


--------------------------------------------------------------------------------------------------------




 Dimension of arrays:
   k-points           NKPTS =     48   k-points in BZ     NKDIM =     48   number of bands    NBANDS=     12
   number of dos      NEDOS =    301   number of ions     NIONS =      4
   non local maximal  LDIM  =      4   non local SUM 2l+1 LMDIM =      8
   total plane-waves  NPLWV = 110592
   max r-space proj   IRMAX =      1   max aug-charges    IRDMAX=  99836
   dimension x,y,z NGX =    24 NGY =   24 NGZ =  192
   dimension x,y,z NGXF=    48 NGYF=   48 NGZF=  384
   support grid    NGXF=    96 NGYF=   96 NGZF=  768
   ions per type =               4
   NGX,Y,Z   is equivalent  to a cutoff of  16.22, 16.22, 15.96 a.u.
   NGXF,Y,Z  is equivalent  to a cutoff of  32.44, 32.44, 31.92 a.u.

 SYSTEM =  C:graphene                              
 POSCAR =  C2_bilayer                              

 Startparameter for this run:
   NWRITE =      2    write-flag & timer
   PREC   = accura    normal or accurate (medium, high low for compatibility)
   ISTART =      0    job   : 0-new  1-cont  2-samecut
   ICHARG =      2    charge: 1-file 2-atom 10-const
   ISPIN  =      1    spin polarized calculation?
   LNONCOLLINEAR =      F non collinear calculations
   LSORBIT =      F    spin-orbit coupling
   INIWAV =      1    electr: 0-lowe 1-rand  2-diag
   LASPH  =      F    aspherical Exc in radial PAW
   METAGGA=      F    non-selfconsistent MetaGGA calc.

 Electronic Relaxation 1
   ENCUT  =  800.0 eV  58.80 Ry    7.67 a.u.   5.67  5.67 46.12*2*pi/ulx,y,z
   ENINI  =  800.0     initial cutoff
   ENAUG  =  644.9 eV  augmentation charge cutoff
   NELM   =     60;   NELMIN=  5; NELMDL= -5     # of ELM steps 
   EDIFF  = 0.1E-07   stopping-criterion for ELM
   LREAL  =      F    real-space projection
   NLSPLINE    = F    spline interpolate recip. space projectors
   LCOMPAT=      F    compatible to vasp.4.4
   GGA_COMPAT  = T    GGA compatible to vasp.4.4-vasp.4.6
   LMAXPAW     = -100 max onsite density
   LMAXMIX     =    2 max onsite mixed and CHGCAR
   VOSKOWN=      0    Vosko Wilk Nusair interpolation
   ROPT   =    0.00000
 Ionic relaxation
   EDIFFG = 0.1E-06   stopping-criterion for IOM
   NSW    =      1    number of steps for IOM
   NBLOCK =      1;   KBLOCK =      1    inner block; outer block 
   IBRION =     -1    ionic relax: 0-MD 1-quasi-New 2-CG
   NFREE  =      0    steps in history (QN), initial steepest desc. (CG)
   ISIF   =      2    stress and relaxation
   IWAVPR =     10    prediction:  0-non 1-charg 2-wave 3-comb
   ISYM   =      2    0-nonsym 1-usesym 2-fastsym
   LCORR  =      T    Harris-Foulkes like correction to forces

   POTIM  = 0.5000    time-step for ionic-motion
   TEIN   =    0.0    initial temperature
   TEBEG  =    0.0;   TEEND  =   0.0 temperature during run
   SMASS  =  -3.00    Nose mass-parameter (am)
   estimated Nose-frequenzy (Omega)   =  0.10E-29 period in steps =****** mass=  -0.138E-27a.u.
   SCALEE = 1.0000    scale energy and forces
   NPACO  =    256;   APACO  = 16.0  distance and # of slots for P.C.
   PSTRESS=    0.0 pullay stress

  Mass of Ions in am
   POMASS =  12.01
  Ionic Valenz
   ZVAL   =   4.00
  Atomic Wigner-Seitz radii
   RWIGS  =  -1.00
  virtual crystal weights 
   VCA    =   1.00
   NELECT =      16.0000    total number of electrons
   NUPDOWN=      -1.0000    fix difference up-down

 DOS related values:
   EMIN   =  10.00;   EMAX   =-10.00  energy-range for DOS
   EFERMI =   0.00
   ISMEAR =     0;   SIGMA  =   0.01  broadening in eV -4-tet -1-fermi 0-gaus

 Electronic relaxation 2 (details)
   IALGO  =     38    algorithm
   LDIAG  =      T    sub-space diagonalisation (order eigenvalues)
   LSUBROT=      F    optimize rotation matrix (better conditioning)
   TURBO    =      0    0=normal 1=particle mesh
   IRESTART =      0    0=no restart 2=restart with 2 vectors
   NREBOOT  =      0    no. of reboots
   NMIN     =      0    reboot dimension
   EREF     =   0.00    reference energy to select bands
   IMIX   =      4    mixing-type and parameters
     AMIX     =   0.40;   BMIX     =  1.00
     AMIX_MAG =   1.60;   BMIX_MAG =  1.00
     AMIN     =   0.01
     WC   =   100.;   INIMIX=   1;  MIXPRE=   1;  MAXMIX= -45

 Intra band minimization:
   WEIMIN = 0.0000     energy-eigenvalue tresh-hold
   EBREAK =  0.21E-09  absolut break condition
   DEPER  =   0.30     relativ break condition  

   TIME   =   0.40     timestep for ELM

  volume/ion in A,a.u.               =      26.19       176.76
  Fermi-wavevector in a.u.,A,eV,Ry     =   0.875041  1.653589 10.417948  0.765698
  Thomas-Fermi vector in A             =   1.994657
 
 Write flags
   LWAVE        =      F    write WAVECAR
   LDOWNSAMPLE  =      F    k-point downsampling of WAVECAR
   LCHARG       =      T    write CHGCAR
   LVTOT        =      F    write LOCPOT, total local potential
   LVHAR        =      F    write LOCPOT, Hartree potential only
   LELF         =      F    write electronic localiz. function (ELF)
   LORBIT       =      0    0 simple, 1 ext, 2 COOP (PROOUT), +10 PAW based schemes


 Dipole corrections
   LMONO  =      F    monopole corrections only (constant potential shift)
   LDIPOL =      F    correct potential (dipole corrections)
   IDIPOL =      0    1-x, 2-y, 3-z, 4-all directions 
   EPSILON=  1.0000000 bulk dielectric constant

 Exchange correlation treatment:
   GGA     =    --    GGA type
   LEXCH   =     8    internal setting for exchange type
   VOSKOWN=      0    Vosko Wilk Nusair interpolation
   LHFCALC =     F    Hartree Fock is set to
   LHFONE  =     F    Hartree Fock one center treatment
   AEXX    =    0.0000 exact exchange contribution

 Linear response parameters
   LEPSILON=     F    determine dielectric tensor
   LRPA    =     F    only Hartree local field effects (RPA)
   LNABLA  =     F    use nabla operator in PAW spheres
   LVEL    =     F    velocity operator in full k-point grid
   LINTERFAST=   F  fast interpolation
   KINTER  =     0    interpolate to denser k-point grid
   CSHIFT  =0.1000    complex shift for real part using Kramers Kronig
   OMEGAMAX=  -1.0    maximum frequency
   DEG_THRESHOLD= 0.2000000E-02 threshold for treating states as degnerate
   RTIME   =   -0.100 relaxation time in fs
  (WPLASMAI=    0.000 imaginary part of plasma frequency in eV, 0.658/RTIME)
   DFIELD  = 0.0000000 0.0000000 0.0000000 field for delta impulse in time
 
 Orbital magnetization related:
   ORBITALMAG=     F  switch on orbital magnetization
   LCHIMAG   =     F  perturbation theory with respect to B field
   DQ        =  0.001000  dq finite difference perturbation B field
   LLRAUG    =     F  two centre corrections for induced B field



--------------------------------------------------------------------------------------------------------


 Static calculation
 charge density and potential will be updated during run
 non-spin polarized calculation
 Variant of blocked Davidson
 Davidson routine will perform the subspace rotation
 perform sub-space diagonalisation
    after iterative eigenvector-optimisation
 modified Broyden-mixing scheme, WC =      100.0
 initial mixing is a Kerker type mixing with AMIX =  0.4000 and BMIX =      1.0000
 Hartree-type preconditioning will be used
 using additional bands            4
 reciprocal scheme for non local part
 use partial core corrections
 calculate Harris-corrections to forces 
   (improved forces if not selfconsistent)
 use gradient corrections 
 use of overlap-Matrix (Vanderbilt PP)
 Gauss-broadening in eV      SIGMA  =   0.01


--------------------------------------------------------------------------------------------------------


  energy-cutoff  :      800.00
  volume of cell :      104.78
      direct lattice vectors                 reciprocal lattice vectors
     2.130000000 -1.229756000  0.000000000     0.234741784 -0.406584721  0.000000000
     2.130000000  1.229756000  0.000000000     0.234741784  0.406584721  0.000000000
     0.000000000  0.000000000 20.000000000     0.000000000  0.000000000  0.050000000

  length of vectors
     2.459512110  2.459512110 20.000000000     0.469483589  0.469483589  0.050000000


 
 k-points in units of 2pi/SCALE and weight: k grid                                  
   0.00000000  0.00000000  0.00000000       0.002
   0.01117818 -0.01936118  0.00000000       0.014
   0.02235636 -0.03872235  0.00000000       0.014
   0.03353454 -0.05808353  0.00000000       0.014
   0.04471272 -0.07744471  0.00000000       0.014
   0.05589090 -0.09680589  0.00000000       0.014
   0.06706908 -0.11616706  0.00000000       0.014
   0.07824726 -0.13552824  0.00000000       0.014
   0.08942544 -0.15488942  0.00000000       0.014
   0.10060362 -0.17425059  0.00000000       0.014
   0.11178180 -0.19361177  0.00000000       0.014
   0.03353454 -0.01936118  0.00000000       0.014
   0.04471272 -0.03872235  0.00000000       0.027
   0.05589090 -0.05808353  0.00000000       0.027
   0.06706908 -0.07744471  0.00000000       0.027
   0.07824726 -0.09680589  0.00000000       0.027
   0.08942544 -0.11616706  0.00000000       0.027
   0.10060362 -0.13552824  0.00000000       0.027
   0.11178180 -0.15488942  0.00000000       0.027
   0.12295998 -0.17425059  0.00000000       0.027
  -0.10060362  0.21297295  0.00000000       0.014
   0.06706908 -0.03872235  0.00000000       0.014
   0.07824726 -0.05808353  0.00000000       0.027
   0.08942544 -0.07744471  0.00000000       0.027
   0.10060362 -0.09680589  0.00000000       0.027
   0.11178180 -0.11616706  0.00000000       0.027
   0.12295998 -0.13552824  0.00000000       0.027
   0.13413816 -0.15488942  0.00000000       0.027
  -0.08942544  0.23233413  0.00000000       0.027
   0.10060362 -0.05808353  0.00000000       0.014
   0.11178180 -0.07744471  0.00000000       0.027
   0.12295998 -0.09680589  0.00000000       0.027
   0.13413816 -0.11616706  0.00000000       0.027
   0.14531634 -0.13552824  0.00000000       0.027
  -0.07824726  0.25169530  0.00000000       0.027
  -0.06706908  0.23233413  0.00000000       0.014
   0.13413816 -0.07744471  0.00000000       0.014
   0.14531634 -0.09680589  0.00000000       0.027
   0.15649452 -0.11616706  0.00000000       0.027
  -0.06706908  0.27105648  0.00000000       0.027
  -0.05589090  0.25169530  0.00000000       0.027
   0.16767270 -0.09680589  0.00000000       0.014
  -0.05589090  0.29041766  0.00000000       0.027
  -0.04471272  0.27105648  0.00000000       0.027
  -0.03353454  0.25169530  0.00000000       0.014
  -0.03353454  0.29041766  0.00000000       0.014
  -0.02235636  0.27105648  0.00000000       0.027
   0.00000000  0.27105648  0.00000000       0.005
 
 k-points in reciprocal lattice and weights: k grid                                  
   0.00000000  0.00000000  0.00000000       0.002
   0.04761905  0.00000000  0.00000000       0.014
   0.09523810  0.00000000  0.00000000       0.014
   0.14285714  0.00000000  0.00000000       0.014
   0.19047619  0.00000000  0.00000000       0.014
   0.23809524  0.00000000  0.00000000       0.014
   0.28571429  0.00000000  0.00000000       0.014
   0.33333333  0.00000000  0.00000000       0.014
   0.38095238  0.00000000  0.00000000       0.014
   0.42857143  0.00000000  0.00000000       0.014
   0.47619048  0.00000000  0.00000000       0.014
   0.09523810  0.04761905  0.00000000       0.014
   0.14285714  0.04761905  0.00000000       0.027
   0.19047619  0.04761905  0.00000000       0.027
   0.23809524  0.04761905  0.00000000       0.027
   0.28571429  0.04761905  0.00000000       0.027
   0.33333333  0.04761905  0.00000000       0.027
   0.38095238  0.04761905  0.00000000       0.027
   0.42857143  0.04761905  0.00000000       0.027
   0.47619048  0.04761905  0.00000000       0.027
  -0.47619048  0.04761905  0.00000000       0.014
   0.19047619  0.09523810  0.00000000       0.014
   0.23809524  0.09523810  0.00000000       0.027
   0.28571429  0.09523810  0.00000000       0.027
   0.33333333  0.09523810  0.00000000       0.027
   0.38095238  0.09523810  0.00000000       0.027
   0.42857143  0.09523810  0.00000000       0.027
   0.47619048  0.09523810  0.00000000       0.027
  -0.47619048  0.09523810  0.00000000       0.027
   0.28571429  0.14285714  0.00000000       0.014
   0.33333333  0.14285714  0.00000000       0.027
   0.38095238  0.14285714  0.00000000       0.027
   0.42857143  0.14285714  0.00000000       0.027
   0.47619048  0.14285714  0.00000000       0.027
  -0.47619048  0.14285714  0.00000000       0.027
  -0.42857143  0.14285714  0.00000000       0.014
   0.38095238  0.19047619  0.00000000       0.014
   0.42857143  0.19047619  0.00000000       0.027
   0.47619048  0.19047619  0.00000000       0.027
  -0.47619048  0.19047619  0.00000000       0.027
  -0.42857143  0.19047619  0.00000000       0.027
   0.47619048  0.23809524  0.00000000       0.014
  -0.47619048  0.23809524  0.00000000       0.027
  -0.42857143  0.23809524  0.00000000       0.027
  -0.38095238  0.23809524  0.00000000       0.014
  -0.42857143  0.28571429  0.00000000       0.014
  -0.38095238  0.28571429  0.00000000       0.027
  -0.33333333  0.33333333  0.00000000       0.005
 
 position of ions in fractional coordinates (direct lattice) 
   0.00000000  0.00000000  0.00000000
   0.33333300  0.33333300  0.00000000
   0.00000000  0.00000000  0.24000000
   0.33333300  0.33333300  0.24000000
 
 position of ions in cartesian coordinates  (Angst):
   0.00000000  0.00000000  0.00000000
   1.41999858  0.00000000  0.00000000
   0.00000000  0.00000000  4.80000000
   1.41999858  0.00000000  4.80000000
 


--------------------------------------------------------------------------------------------------------


 k-point  1 :   0.0000 0.0000 0.0000  plane waves:    5409
 k-point  2 :   0.0476 0.0000 0.0000  plane waves:    5413
 k-point  3 :   0.0952 0.0000 0.0000  plane waves:    5402
 k-point  4 :   0.1429 0.0000 0.0000  plane waves:    5398
 k-point  5 :   0.1905 0.0000 0.0000  plane waves:    5404
 k-point  6 :   0.2381 0.0000 0.0000  plane waves:    5408
 k-point  7 :   0.2857 0.0000 0.0000  plane waves:    5404
 k-point  8 :   0.3333 0.0000 0.0000  plane waves:    5394
 k-point  9 :   0.3810 0.0000 0.0000  plane waves:    5382
 k-point 10 :   0.4286 0.0000 0.0000  plane waves:    5396
 k-point 11 :   0.4762 0.0000 0.0000  plane waves:    5380
 k-point 12 :   0.0952 0.0476 0.0000  plane waves:    5411
 k-point 13 :   0.1429 0.0476 0.0000  plane waves:    5415
 k-point 14 :   0.1905 0.0476 0.0000  plane waves:    5413
 k-point 15 :   0.2381 0.0476 0.0000  plane waves:    5399
 k-point 16 :   0.2857 0.0476 0.0000  plane waves:    5396
 k-point 17 :   0.3333 0.0476 0.0000  plane waves:    5389
 k-point 18 :   0.3810 0.0476 0.0000  plane waves:    5378
 k-point 19 :   0.4286 0.0476 0.0000  plane waves:    5381
 k-point 20 :   0.4762 0.0476 0.0000  plane waves:    5391
 k-point 21 :  -0.4762 0.0476 0.0000  plane waves:    5394
 k-point 22 :   0.1905 0.0952 0.0000  plane waves:    5403
 k-point 23 :   0.2381 0.0952 0.0000  plane waves:    5409
 k-point 24 :   0.2857 0.0952 0.0000  plane waves:    5419
 k-point 25 :   0.3333 0.0952 0.0000  plane waves:    5384
 k-point 26 :   0.3810 0.0952 0.0000  plane waves:    5369
 k-point 27 :   0.4286 0.0952 0.0000  plane waves:    5364
 k-point 28 :   0.4762 0.0952 0.0000  plane waves:    5382
 k-point 29 :  -0.4762 0.0952 0.0000  plane waves:    5404
 k-point 30 :   0.2857 0.1429 0.0000  plane waves:    5405
 k-point 31 :   0.3333 0.1429 0.0000  plane waves:    5404
 k-point 32 :   0.3810 0.1429 0.0000  plane waves:    5382
 k-point 33 :   0.4286 0.1429 0.0000  plane waves:    5347
 k-point 34 :   0.4762 0.1429 0.0000  plane waves:    5367
 k-point 35 :  -0.4762 0.1429 0.0000  plane waves:    5376
 k-point 36 :  -0.4286 0.1429 0.0000  plane waves:    5400
 k-point 37 :   0.3810 0.1905 0.0000  plane waves:    5390
 k-point 38 :   0.4286 0.1905 0.0000  plane waves:    5358
 k-point 39 :   0.4762 0.1905 0.0000  plane waves:    5365
 k-point 40 :  -0.4762 0.1905 0.0000  plane waves:    5363
 k-point 41 :  -0.4286 0.1905 0.0000  plane waves:    5377
 k-point 42 :   0.4762 0.2381 0.0000  plane waves:    5364
 k-point 43 :  -0.4762 0.2381 0.0000  plane waves:    5368
 k-point 44 :  -0.4286 0.2381 0.0000  plane waves:    5360
 k-point 45 :  -0.3810 0.2381 0.0000  plane waves:    5366
 k-point 46 :  -0.4286 0.2857 0.0000  plane waves:    5362
 k-point 47 :  -0.3810 0.2857 0.0000  plane waves:    5326
 k-point 48 :  -0.3333 0.3333 0.0000  plane waves:    5334

 maximum and minimum number of plane-waves per node :      5419     5326

 maximum number of plane-waves:      5419
 maximum index in each direction: 
   IXMAX=    6   IYMAX=    5   IZMAX=   46
   IXMIN=   -6   IYMIN=   -5   IZMIN=  -46


 serial   3D FFT for wavefunctions
 parallel 3D FFT for charge:
    minimum data exchange during FFTs selected (reduces bandwidth)


 total amount of memory used by VASP MPI-rank0   107376. kBytes
=======================================================================

   base      :      30000. kBytes
   nonl-proj :      16997. kBytes
   fftplans  :      32720. kBytes
   grid      :      15086. kBytes
   one-center:         12. kBytes
   wavefun   :      12561. kBytes
 
     INWAV:  cpu time    0.0000: real time    0.0001
 Broyden mixing: mesh for mixing (old mesh)
   NGX = 11   NGY = 11   NGZ = 93
  (NGX  = 48   NGY  = 48   NGZ  =384)
  gives a total of  11253 points

 initial charge density was supplied:
 charge density of overlapping atoms calculated
 number of electron      16.0000000 magnetization 
 keeping initial charge density in first step


--------------------------------------------------------------------------------------------------------


 Maximum index for augmentation-charges        24186 (set IRDMAX)


--------------------------------------------------------------------------------------------------------


 First call to EWALD:  gamma=   0.376
 Maximum number of real-space cells 5x 5x 1
 Maximum number of reciprocal cells 2x 2x10

    FEWALD:  cpu time    0.0011: real time    0.0011


--------------------------------------- Iteration      1(   1)  ---------------------------------------


    POTLOK:  cpu time    0.0865: real time    0.1036
    SETDIJ:  cpu time    0.0422: real time    0.0423
     EDDAV:  cpu time    1.4568: real time    1.4620
       DOS:  cpu time    0.0004: real time    0.0004
    --------------------------------------------
      LOOP:  cpu time    1.5859: real time    1.6084

 eigenvalue-minimisations  :  1152
 total energy-change (2. order) : 0.1249209E+03  (-0.8019312E+03)
 number of electron      16.0000000 magnetization 
 augmentation part       16.0000000 magnetization 

 Free energy of the ion-electron system (eV)
  ---------------------------------------------------
  alpha Z        PSCENC =        12.54445055
  Ewald energy   TEWEN  =      2258.25990772
  -Hartree energ DENC   =     -2720.02285892
  -exchange      EXHF   =         0.00000000
  -V(xc)+E(xc)   XCENC  =        52.79752707
  PAW double counting   =       434.08818552     -436.36580876
  entropy T*S    EENTRO =        -0.00015541
  eigenvalues    EBANDS =       -64.99799961
  atomic energy  EATOM  =       588.61769381
  Solvation  Ediel_sol  =         0.00000000
  ---------------------------------------------------
  free energy    TOTEN  =       124.92094198 eV

  energy without entropy =      124.92109739  energy(sigma->0) =      124.92101968


--------------------------------------------------------------------------------------------------------




--------------------------------------- Iteration      1(   2)  ---------------------------------------


     EDDAV:  cpu time    2.0241: real time    2.0353
       DOS:  cpu time    0.0004: real time    0.0004
    --------------------------------------------
      LOOP:  cpu time    2.0245: real time    2.0358

 eigenvalue-minimisations  :  1860
 total energy-change (2. order) :-0.1505248E+03  (-0.1368150E+03)
 number of electron      16.0000000 magnetization 
 augmentation part       16.0000000 magnetization 

 Free energy of the ion-electron system (eV)
  ---------------------------------------------------
  alpha Z        PSCENC =        12.54445055
  Ewald energy   TEWEN  =      2258.25990772
  -Hartree energ DENC   =     -2720.02285892
  -exchange      EXHF   =         0.00000000
  -V(xc)+E(xc)   XCENC  =        52.79752707
  PAW double counting   =       434.08818552     -436.36580876
  entropy T*S    EENTRO =        -0.00002559
  eigenvalues    EBANDS =      -215.52295040
  atomic energy  EATOM  =       588.61769381
  Solvation  Ediel_sol  =         0.00000000
  ---------------------------------------------------
  free energy    TOTEN  =       -25.60387898 eV

  energy without entropy =      -25.60385340  energy(sigma->0) =      -25.60386619


--------------------------------------------------------------------------------------------------------




--------------------------------------- Iteration      1(   3)  ---------------------------------------


     EDDAV:  cpu time    1.6671: real time    1.6725
       DOS:  cpu time    0.0004: real time    0.0004
    --------------------------------------------
      LOOP:  cpu time    1.6675: real time    1.6729

 eigenvalue-minimisations  :  1436
 total energy-change (2. order) :-0.1360615E+02  (-0.1350286E+02)
 number of electron      16.0000000 magnetization 
 augmentation part       16.0000000 magnetization 

 Free energy of the ion-electron system (eV)
  ---------------------------------------------------
  alpha Z        PSCENC =        12.54445055
  Ewald energy   TEWEN  =      2258.25990772
  -Hartree energ DENC   =     -2720.02285892
  -exchange      EXHF   =         0.00000000
  -V(xc)+E(xc)   XCENC  =        52.79752707
  PAW double counting   =       434.08818552     -436.36580876
  entropy T*S    EENTRO =        -0.00003650
  eigenvalues    EBANDS =      -229.12908536
  atomic energy  EATOM  =       588.61769381
  Solvation  Ediel_sol  =         0.00000000
  ---------------------------------------------------
  free energy    TOTEN  =       -39.21002486 eV

  energy without entropy =      -39.20998836  energy(sigma->0) =      -39.21000661


--------------------------------------------------------------------------------------------------------




--------------------------------------- Iteration      1(   4)  ---------------------------------------


     EDDAV:  cpu time    1.7211: real time    1.7290
       DOS:  cpu time    0.0004: real time    0.0004
    --------------------------------------------
      LOOP:  cpu time    1.7215: real time    1.7294

 eigenvalue-minimisations  :  1488
 total energy-change (2. order) :-0.3104848E+00  (-0.3096283E+00)
 number of electron      16.0000000 magnetization 
 augmentation part       16.0000000 magnetization 

 Free energy of the ion-electron system (eV)
  ---------------------------------------------------
  alpha Z        PSCENC =        12.54445055
  Ewald energy   TEWEN  =      2258.25990772
  -Hartree energ DENC   =     -2720.02285892
  -exchange      EXHF   =         0.00000000
  -V(xc)+E(xc)   XCENC  =        52.79752707
  PAW double counting   =       434.08818552     -436.36580876
  entropy T*S    EENTRO =        -0.00001929
  eigenvalues    EBANDS =      -229.43958733
  atomic energy  EATOM  =       588.61769381
  Solvation  Ediel_sol  =         0.00000000
  ---------------------------------------------------
  free energy    TOTEN  =       -39.52050962 eV

  energy without entropy =      -39.52049033  energy(sigma->0) =      -39.52049998


--------------------------------------------------------------------------------------------------------




--------------------------------------- Iteration      1(   5)  ---------------------------------------


     EDDAV:  cpu time    1.6582: real time    1.6635
       DOS:  cpu time    0.0004: real time    0.0004
    CHARGE:  cpu time    0.1916: real time    0.1920
    MIXING:  cpu time    0.0025: real time    0.0025
    --------------------------------------------
      LOOP:  cpu time    1.8526: real time    1.8583

 eigenvalue-minimisations  :  1436
 total energy-change (2. order) :-0.9535233E-02  (-0.9523169E-02)
 number of electron      16.0000000 magnetization 
 augmentation part        0.4282985 magnetization 

 Broyden mixing:
  rms(total) = 0.90198E+00    rms(broyden)= 0.90197E+00
  rms(prec ) = 0.96457E+00
  weight for this iteration     100.00

 Free energy of the ion-electron system (eV)
  ---------------------------------------------------
  alpha Z        PSCENC =        12.54445055
  Ewald energy   TEWEN  =      2258.25990772
  -Hartree energ DENC   =     -2720.02285892
  -exchange      EXHF   =         0.00000000
  -V(xc)+E(xc)   XCENC  =        52.79752707
  PAW double counting   =       434.08818552     -436.36580876
  entropy T*S    EENTRO =        -0.00001889
  eigenvalues    EBANDS =      -229.44912296
  atomic energy  EATOM  =       588.61769381
  Solvation  Ediel_sol  =         0.00000000
  ---------------------------------------------------
  free energy    TOTEN  =       -39.53004485 eV

  energy without entropy =      -39.53002596  energy(sigma->0) =      -39.53003541


--------------------------------------------------------------------------------------------------------




--------------------------------------- Iteration      1(   6)  ---------------------------------------


    POTLOK:  cpu time    0.0741: real time    0.0743
    SETDIJ:  cpu time    0.0364: real time    0.0366
     EDDAV:  cpu time    1.6406: real time    1.6460
       DOS:  cpu time    0.0004: real time    0.0004
    CHARGE:  cpu time    0.1838: real time    0.1842
    MIXING:  cpu time    0.0027: real time    0.0027
    --------------------------------------------
      LOOP:  cpu time    1.9379: real time    1.9442

 eigenvalue-minimisations  :  1392
 total energy-change (2. order) : 0.1881969E+01  (-0.1721936E+00)
 number of electron      16.0000000 magnetization 
 augmentation part        0.4095223 magnetization 

 Broyden mixing:
  rms(total) = 0.52946E+00    rms(broyden)= 0.52946E+00
  rms(prec ) = 0.56051E+00
  weight for this iteration     100.00

 eigenvalues of (default mixing * dielectric matrix)
  average eigenvalue GAMMA=   2.2060
  2.2060

 Free energy of the ion-electron system (eV)
  ---------------------------------------------------
  alpha Z        PSCENC =        12.54445055
  Ewald energy   TEWEN  =      2258.25990772
  -Hartree energ DENC   =     -2740.79414836
  -exchange      EXHF   =         0.00000000
  -V(xc)+E(xc)   XCENC  =        53.78313474
  PAW double counting   =       803.57015133     -806.14697958
  entropy T*S    EENTRO =        -0.00000448
  eigenvalues    EBANDS =      -207.48228160
  atomic energy  EATOM  =       588.61769381
  Solvation  Ediel_sol  =         0.00000000
  ---------------------------------------------------
  free energy    TOTEN  =       -37.64807587 eV

  energy without entropy =      -37.64807139  energy(sigma->0) =      -37.64807363


--------------------------------------------------------------------------------------------------------




--------------------------------------- Iteration      1(   7)  ---------------------------------------


    POTLOK:  cpu time    0.0729: real time    0.0731
    SETDIJ:  cpu time    0.0360: real time    0.0361
     EDDAV:  cpu time    1.6973: real time    1.7024
       DOS:  cpu time    0.0003: real time    0.0003
    CHARGE:  cpu time    0.1801: real time    0.1806
    MIXING:  cpu time    0.0027: real time    0.0027
    --------------------------------------------
      LOOP:  cpu time    1.9893: real time    1.9952

 eigenvalue-minimisations  :  1420
 total energy-change (2. order) : 0.7084726E+00  (-0.2326857E+00)
 number of electron      16.0000000 magnetization 
 augmentation part        0.3870985 magnetization 

 Broyden mixing:
  rms(total) = 0.13804E+00    rms(broyden)= 0.13804E+00
  rms(prec ) = 0.14282E+00
  weight for this iteration     100.00

 eigenvalues of (default mixing * dielectric matrix)
  average eigenvalue GAMMA=   2.2868
  2.2405  2.3330

 Free energy of the ion-electron system (eV)
  ---------------------------------------------------
  alpha Z        PSCENC =        12.54445055
  Ewald energy   TEWEN  =      2258.25990772
  -Hartree energ DENC   =     -2767.93877060
  -exchange      EXHF   =         0.00000000
  -V(xc)+E(xc)   XCENC  =        55.09091422
  PAW double counting   =      1523.25115087    -1526.09362015
  entropy T*S    EENTRO =        -0.00000018
  eigenvalues    EBANDS =      -180.67132953
  atomic energy  EATOM  =       588.61769381
  Solvation  Ediel_sol  =         0.00000000
  ---------------------------------------------------
  free energy    TOTEN  =       -36.93960329 eV

  energy without entropy =      -36.93960311  energy(sigma->0) =      -36.93960320


--------------------------------------------------------------------------------------------------------




--------------------------------------- Iteration      1(   8)  ---------------------------------------


    POTLOK:  cpu time    0.0727: real time    0.0729
    SETDIJ:  cpu time    0.0382: real time    0.0382
     EDDAV:  cpu time    1.6778: real time    1.6828
       DOS:  cpu time    0.0003: real time    0.0003
    CHARGE:  cpu time    0.1856: real time    0.1861
    MIXING:  cpu time    0.0028: real time    0.0028
    --------------------------------------------
      LOOP:  cpu time    1.9773: real time    1.9831

 eigenvalue-minimisations  :  1400
 total energy-change (2. order) :-0.9414679E-04  (-0.6887470E-02)
 number of electron      16.0000000 magnetization 
 augmentation part        0.3859729 magnetization 

 Broyden mixing:
  rms(total) = 0.13755E-01    rms(broyden)= 0.13755E-01
  rms(prec ) = 0.26498E-01
  weight for this iteration     100.00

 eigenvalues of (default mixing * dielectric matrix)
  average eigenvalue GAMMA=   1.7853
  0.8958  2.2625  2.1977

 Free energy of the ion-electron system (eV)
  ---------------------------------------------------
  alpha Z        PSCENC =        12.54445055
  Ewald energy   TEWEN  =      2258.25990772
  -Hartree energ DENC   =     -2769.89351628
  -exchange      EXHF   =         0.00000000
  -V(xc)+E(xc)   XCENC  =        55.08790368
  PAW double counting   =      1710.02767796    -1712.75165246
  entropy T*S    EENTRO =        -0.00000025
  eigenvalues    EBANDS =      -178.83216217
  atomic energy  EATOM  =       588.61769381
  Solvation  Ediel_sol  =         0.00000000
  ---------------------------------------------------
  free energy    TOTEN  =       -36.93969744 eV

  energy without entropy =      -36.93969718  energy(sigma->0) =      -36.93969731


--------------------------------------------------------------------------------------------------------




--------------------------------------- Iteration      1(   9)  ---------------------------------------


    POTLOK:  cpu time    0.0730: real time    0.0732
    SETDIJ:  cpu time    0.0402: real time    0.0403
     EDDAV:  cpu time    1.7831: real time    1.7884
       DOS:  cpu time    0.0003: real time    0.0003
    CHARGE:  cpu time    0.1778: real time    0.1782
    MIXING:  cpu time    0.0029: real time    0.0029
    --------------------------------------------
      LOOP:  cpu time    2.0772: real time    2.0832

 eigenvalue-minimisations  :  1524
 total energy-change (2. order) : 0.1326278E-02  (-0.2121539E-03)
 number of electron      16.0000000 magnetization 
 augmentation part        0.3855229 magnetization 

 Broyden mixing:
  rms(total) = 0.93157E-02    rms(broyden)= 0.93156E-02
  rms(prec ) = 0.23041E-01
  weight for this iteration     100.00

 eigenvalues of (default mixing * dielectric matrix)
  average eigenvalue GAMMA=   2.1906
  1.0142  1.9481  2.9000  2.9000

 Free energy of the ion-electron system (eV)
  ---------------------------------------------------
  alpha Z        PSCENC =        12.54445055
  Ewald energy   TEWEN  =      2258.25990772
  -Hartree energ DENC   =     -2770.84030261
  -exchange      EXHF   =         0.00000000
  -V(xc)+E(xc)   XCENC  =        55.11237003
  PAW double counting   =      1704.03288952    -1706.76216553
  entropy T*S    EENTRO =        -0.00000024
  eigenvalues    EBANDS =      -177.90321441
  atomic energy  EATOM  =       588.61769381
  Solvation  Ediel_sol  =         0.00000000
  ---------------------------------------------------
  free energy    TOTEN  =       -36.93837116 eV

  energy without entropy =      -36.93837092  energy(sigma->0) =      -36.93837104


--------------------------------------------------------------------------------------------------------




--------------------------------------- Iteration      1(  10)  ---------------------------------------


    POTLOK:  cpu time    0.0713: real time    0.0716
    SETDIJ:  cpu time    0.0354: real time    0.0354
     EDDAV:  cpu time    1.5642: real time    1.5688
       DOS:  cpu time    0.0003: real time    0.0003
    CHARGE:  cpu time    0.1803: real time    0.1808
    MIXING:  cpu time    0.0028: real time    0.0029
    --------------------------------------------
      LOOP:  cpu time    1.8543: real time    1.8597

 eigenvalue-minimisations  :  1320
 total energy-change (2. order) : 0.4949498E-02  (-0.3734983E-03)
 number of electron      16.0000000 magnetization 
 augmentation part        0.3850026 magnetization 

 Broyden mixing:
  rms(total) = 0.87383E-02    rms(broyden)= 0.87383E-02
  rms(prec ) = 0.17436E-01
  weight for this iteration     100.00

 eigenvalues of (default mixing * dielectric matrix)
  average eigenvalue GAMMA=   1.8968
  3.2322  2.5027  1.9928  0.9863  0.7701

 Free energy of the ion-electron system (eV)
  ---------------------------------------------------
  alpha Z        PSCENC =        12.54445055
  Ewald energy   TEWEN  =      2258.25990772
  -Hartree energ DENC   =     -2774.89139322
  -exchange      EXHF   =         0.00000000
  -V(xc)+E(xc)   XCENC  =        55.17542515
  PAW double counting   =      1685.33398149    -1688.05510143
  entropy T*S    EENTRO =        -0.00000019
  eigenvalues    EBANDS =      -173.91838555
  atomic energy  EATOM  =       588.61769381
  Solvation  Ediel_sol  =         0.00000000
  ---------------------------------------------------
  free energy    TOTEN  =       -36.93342166 eV

  energy without entropy =      -36.93342147  energy(sigma->0) =      -36.93342157


--------------------------------------------------------------------------------------------------------




--------------------------------------- Iteration      1(  11)  ---------------------------------------


    POTLOK:  cpu time    0.0717: real time    0.0719
    SETDIJ:  cpu time    0.0377: real time    0.0379
     EDDAV:  cpu time    1.6214: real time    1.6263
       DOS:  cpu time    0.0003: real time    0.0003
    CHARGE:  cpu time    0.1816: real time    0.1820
    MIXING:  cpu time    0.0041: real time    0.0041
    --------------------------------------------
      LOOP:  cpu time    1.9169: real time    1.9225

 eigenvalue-minimisations  :  1396
 total energy-change (2. order) : 0.1006857E-02  (-0.5060399E-04)
 number of electron      16.0000000 magnetization 
 augmentation part        0.3847084 magnetization 

 Broyden mixing:
  rms(total) = 0.61527E-02    rms(broyden)= 0.61527E-02
  rms(prec ) = 0.14683E-01
  weight for this iteration     100.00

 eigenvalues of (default mixing * dielectric matrix)
  average eigenvalue GAMMA=   2.3085
  4.6637  2.8609  2.1918  2.1013  1.0167  1.0167

 Free energy of the ion-electron system (eV)
  ---------------------------------------------------
  alpha Z        PSCENC =        12.54445055
  Ewald energy   TEWEN  =      2258.25990772
  -Hartree energ DENC   =     -2775.99316295
  -exchange      EXHF   =         0.00000000
  -V(xc)+E(xc)   XCENC  =        55.18894998
  PAW double counting   =      1706.21295063    -1708.93550138
  entropy T*S    EENTRO =        -0.00000019
  eigenvalues    EBANDS =      -172.82770297
  atomic energy  EATOM  =       588.61769381
  Solvation  Ediel_sol  =         0.00000000
  ---------------------------------------------------
  free energy    TOTEN  =       -36.93241480 eV

  energy without entropy =      -36.93241461  energy(sigma->0) =      -36.93241471


--------------------------------------------------------------------------------------------------------




--------------------------------------- Iteration      1(  12)  ---------------------------------------


    POTLOK:  cpu time    0.0686: real time    0.0689
    SETDIJ:  cpu time    0.0357: real time    0.0359
     EDDAV:  cpu time    1.4847: real time    1.4896
       DOS:  cpu time    0.0003: real time    0.0003
    CHARGE:  cpu time    0.1833: real time    0.1837
    MIXING:  cpu time    0.0032: real time    0.0032
    --------------------------------------------
      LOOP:  cpu time    1.7758: real time    1.7816

 eigenvalue-minimisations  :  1208
 total energy-change (2. order) : 0.4333826E-02  (-0.2280322E-03)
 number of electron      16.0000000 magnetization 
 augmentation part        0.3847573 magnetization 

 Broyden mixing:
  rms(total) = 0.41541E-02    rms(broyden)= 0.41541E-02
  rms(prec ) = 0.82192E-02
  weight for this iteration     100.00

 eigenvalues of (default mixing * dielectric matrix)
  average eigenvalue GAMMA=   2.2191
  4.7952  2.9428  2.3831  2.0630  1.3129  1.0184  1.0184

 Free energy of the ion-electron system (eV)
  ---------------------------------------------------
  alpha Z        PSCENC =        12.54445055
  Ewald energy   TEWEN  =      2258.25990772
  -Hartree energ DENC   =     -2779.51035041
  -exchange      EXHF   =         0.00000000
  -V(xc)+E(xc)   XCENC  =        55.18249770
  PAW double counting   =      1696.35917695    -1699.08476683
  entropy T*S    EENTRO =        -0.00000025
  eigenvalues    EBANDS =      -169.29669022
  atomic energy  EATOM  =       588.61769381
  Solvation  Ediel_sol  =         0.00000000
  ---------------------------------------------------
  free energy    TOTEN  =       -36.92808098 eV

  energy without entropy =      -36.92808073  energy(sigma->0) =      -36.92808085


--------------------------------------------------------------------------------------------------------




--------------------------------------- Iteration      1(  13)  ---------------------------------------


    POTLOK:  cpu time    0.0677: real time    0.0679
    SETDIJ:  cpu time    0.0368: real time    0.0369
     EDDAV:  cpu time    1.5905: real time    1.5955
       DOS:  cpu time    0.0003: real time    0.0003
    CHARGE:  cpu time    0.1773: real time    0.1777
    MIXING:  cpu time    0.0032: real time    0.0032
    --------------------------------------------
      LOOP:  cpu time    1.8758: real time    1.8815

 eigenvalue-minimisations  :  1340
 total energy-change (2. order) :-0.1001774E-03  (-0.1272928E-04)
 number of electron      16.0000000 magnetization 
 augmentation part        0.3847245 magnetization 

 Broyden mixing:
  rms(total) = 0.43557E-02    rms(broyden)= 0.43557E-02
  rms(prec ) = 0.68842E-02
  weight for this iteration     100.00

 eigenvalues of (default mixing * dielectric matrix)
  average eigenvalue GAMMA=   2.7314
  8.5141  3.4644  2.6130  2.1561  2.1116  1.0550  0.9960  0.9409

 Free energy of the ion-electron system (eV)
  ---------------------------------------------------
  alpha Z        PSCENC =        12.54445055
  Ewald energy   TEWEN  =      2258.25990772
  -Hartree energ DENC   =     -2780.64011674
  -exchange      EXHF   =         0.00000000
  -V(xc)+E(xc)   XCENC  =        55.18543647
  PAW double counting   =      1701.05406720    -1703.77764208
  entropy T*S    EENTRO =        -0.00000026
  eigenvalues    EBANDS =      -168.17197782
  atomic energy  EATOM  =       588.61769381
  Solvation  Ediel_sol  =         0.00000000
  ---------------------------------------------------
  free energy    TOTEN  =       -36.92818116 eV

  energy without entropy =      -36.92818089  energy(sigma->0) =      -36.92818103


--------------------------------------------------------------------------------------------------------




--------------------------------------- Iteration      1(  14)  ---------------------------------------


    POTLOK:  cpu time    0.0657: real time    0.0659
    SETDIJ:  cpu time    0.0365: real time    0.0366
     EDDAV:  cpu time    1.5207: real time    1.5257
       DOS:  cpu time    0.0003: real time    0.0003
    CHARGE:  cpu time    0.1764: real time    0.1768
    MIXING:  cpu time    0.0032: real time    0.0032
    --------------------------------------------
      LOOP:  cpu time    1.8028: real time    1.8086

 eigenvalue-minimisations  :  1256
 total energy-change (2. order) :-0.1043807E-02  (-0.1932007E-04)
 number of electron      16.0000000 magnetization 
 augmentation part        0.3847067 magnetization 

 Broyden mixing:
  rms(total) = 0.18341E-02    rms(broyden)= 0.18341E-02
  rms(prec ) = 0.34252E-02
  weight for this iteration     100.00

 eigenvalues of (default mixing * dielectric matrix)
  average eigenvalue GAMMA=   2.9083
 10.5712  3.7695  2.6779  2.6779  1.9355  1.4356  1.1386  1.0296  0.9391

 Free energy of the ion-electron system (eV)
  ---------------------------------------------------
  alpha Z        PSCENC =        12.54445055
  Ewald energy   TEWEN  =      2258.25990772
  -Hartree energ DENC   =     -2781.86884597
  -exchange      EXHF   =         0.00000000
  -V(xc)+E(xc)   XCENC  =        55.18483914
  PAW double counting   =      1697.36502240    -1700.08770238
  entropy T*S    EENTRO =        -0.00000027
  eigenvalues    EBANDS =      -166.94458995
  atomic energy  EATOM  =       588.61769381
  Solvation  Ediel_sol  =         0.00000000
  ---------------------------------------------------
  free energy    TOTEN  =       -36.92922496 eV

  energy without entropy =      -36.92922469  energy(sigma->0) =      -36.92922483


--------------------------------------------------------------------------------------------------------




--------------------------------------- Iteration      1(  15)  ---------------------------------------


    POTLOK:  cpu time    0.0659: real time    0.0661
    SETDIJ:  cpu time    0.0355: real time    0.0356
     EDDAV:  cpu time    1.5534: real time    1.5585
       DOS:  cpu time    0.0003: real time    0.0003
    CHARGE:  cpu time    0.1767: real time    0.1772
    MIXING:  cpu time    0.0036: real time    0.0036
    --------------------------------------------
      LOOP:  cpu time    1.8354: real time    1.8413

 eigenvalue-minimisations  :  1292
 total energy-change (2. order) :-0.9536141E-03  (-0.1551055E-04)
 number of electron      16.0000000 magnetization 
 augmentation part        0.3847591 magnetization 

 Broyden mixing:
  rms(total) = 0.25754E-02    rms(broyden)= 0.25754E-02
  rms(prec ) = 0.28128E-02
  weight for this iteration     100.00

 eigenvalues of (default mixing * dielectric matrix)
  average eigenvalue GAMMA=   3.5170
 16.0662  5.1743  3.0423  2.3834  2.3834  2.0265  1.1644  1.0080  1.0080  0.9140

 Free energy of the ion-electron system (eV)
  ---------------------------------------------------
  alpha Z        PSCENC =        12.54445055
  Ewald energy   TEWEN  =      2258.25990772
  -Hartree energ DENC   =     -2782.33896586
  -exchange      EXHF   =         0.00000000
  -V(xc)+E(xc)   XCENC  =        55.18162580
  PAW double counting   =      1691.98479635    -1694.70563363
  entropy T*S    EENTRO =        -0.00000027
  eigenvalues    EBANDS =      -166.47405305
  atomic energy  EATOM  =       588.61769381
  Solvation  Ediel_sol  =         0.00000000
  ---------------------------------------------------
  free energy    TOTEN  =       -36.93017858 eV

  energy without entropy =      -36.93017831  energy(sigma->0) =      -36.93017844


--------------------------------------------------------------------------------------------------------




--------------------------------------- Iteration      1(  16)  ---------------------------------------


    POTLOK:  cpu time    0.0667: real time    0.0693
    SETDIJ:  cpu time    0.0357: real time    0.0358
     EDDAV:  cpu time    1.5767: real time    1.5816
       DOS:  cpu time    0.0003: real time    0.0003
    CHARGE:  cpu time    0.1824: real time    0.1828
    MIXING:  cpu time    0.0036: real time    0.0036
    --------------------------------------------
      LOOP:  cpu time    1.8653: real time    1.8734

 eigenvalue-minimisations  :  1328
 total energy-change (2. order) :-0.1993721E-03  (-0.4016072E-05)
 number of electron      16.0000000 magnetization 
 augmentation part        0.3847005 magnetization 

 Broyden mixing:
  rms(total) = 0.46270E-03    rms(broyden)= 0.46270E-03
  rms(prec ) = 0.58316E-03
  weight for this iteration     100.00

 eigenvalues of (default mixing * dielectric matrix)
  average eigenvalue GAMMA=   4.1325
 22.3786  6.8020  3.3973  2.6942  2.5181  1.9788  1.6316  0.9532  0.9532  1.1087
  1.0415

 Free energy of the ion-electron system (eV)
  ---------------------------------------------------
  alpha Z        PSCENC =        12.54445055
  Ewald energy   TEWEN  =      2258.25990772
  -Hartree energ DENC   =     -2782.55179161
  -exchange      EXHF   =         0.00000000
  -V(xc)+E(xc)   XCENC  =        55.18516002
  PAW double counting   =      1695.66721851    -1698.38949314
  entropy T*S    EENTRO =        -0.00000026
  eigenvalues    EBANDS =      -166.26352354
  atomic energy  EATOM  =       588.61769381
  Solvation  Ediel_sol  =         0.00000000
  ---------------------------------------------------
  free energy    TOTEN  =       -36.93037795 eV

  energy without entropy =      -36.93037769  energy(sigma->0) =      -36.93037782


--------------------------------------------------------------------------------------------------------




--------------------------------------- Iteration      1(  17)  ---------------------------------------


    POTLOK:  cpu time    0.0670: real time    0.0697
    SETDIJ:  cpu time    0.0361: real time    0.0362
     EDDAV:  cpu time    1.5630: real time    1.5677
       DOS:  cpu time    0.0003: real time    0.0003
    CHARGE:  cpu time    0.1782: real time    0.1787
    MIXING:  cpu time    0.0035: real time    0.0035
    --------------------------------------------
      LOOP:  cpu time    1.8481: real time    1.8561

 eigenvalue-minimisations  :  1304
 total energy-change (2. order) :-0.6525527E-04  (-0.3955264E-06)
 number of electron      16.0000000 magnetization 
 augmentation part        0.3846811 magnetization 

 Broyden mixing:
  rms(total) = 0.24466E-03    rms(broyden)= 0.24465E-03
  rms(prec ) = 0.25769E-03
  weight for this iteration     100.00

 eigenvalues of (default mixing * dielectric matrix)
  average eigenvalue GAMMA=   3.9918
 23.2273  6.7243  3.3805  2.5499  2.3783  2.1891  1.8631  1.5779  1.0342  1.0342
  0.9716  0.9716

 Free energy of the ion-electron system (eV)
  ---------------------------------------------------
  alpha Z        PSCENC =        12.54445055
  Ewald energy   TEWEN  =      2258.25990772
  -Hartree energ DENC   =     -2782.64262431
  -exchange      EXHF   =         0.00000000
  -V(xc)+E(xc)   XCENC  =        55.18545883
  PAW double counting   =      1695.74457185    -1698.46744780
  entropy T*S    EENTRO =        -0.00000026
  eigenvalues    EBANDS =      -166.17245359
  atomic energy  EATOM  =       588.61769381
  Solvation  Ediel_sol  =         0.00000000
  ---------------------------------------------------
  free energy    TOTEN  =       -36.93044320 eV

  energy without entropy =      -36.93044294  energy(sigma->0) =      -36.93044307


--------------------------------------------------------------------------------------------------------




--------------------------------------- Iteration      1(  18)  ---------------------------------------


    POTLOK:  cpu time    0.0669: real time    0.0671
    SETDIJ:  cpu time    0.0361: real time    0.0362
     EDDAV:  cpu time    1.6205: real time    1.6257
       DOS:  cpu time    0.0003: real time    0.0003
    CHARGE:  cpu time    0.1753: real time    0.1757
    MIXING:  cpu time    0.0037: real time    0.0037
    --------------------------------------------
      LOOP:  cpu time    1.9028: real time    1.9087

 eigenvalue-minimisations  :  1388
 total energy-change (2. order) :-0.5229363E-05  (-0.4073679E-07)
 number of electron      16.0000000 magnetization 
 augmentation part        0.3846841 magnetization 

 Broyden mixing:
  rms(total) = 0.58550E-04    rms(broyden)= 0.58548E-04
  rms(prec ) = 0.65185E-04
  weight for this iteration     100.00

 eigenvalues of (default mixing * dielectric matrix)
  average eigenvalue GAMMA=   3.8591
 23.2846  6.8210  3.3797  2.9955  2.4208  2.3739  2.0598  1.6440  1.2122  0.9539
  0.9643  1.0291  1.0291

 Free energy of the ion-electron system (eV)
  ---------------------------------------------------
  alpha Z        PSCENC =        12.54445055
  Ewald energy   TEWEN  =      2258.25990772
  -Hartree energ DENC   =     -2782.63875535
  -exchange      EXHF   =         0.00000000
  -V(xc)+E(xc)   XCENC  =        55.18516869
  PAW double counting   =      1695.61100952    -1698.33365555
  entropy T*S    EENTRO =        -0.00000026
  eigenvalues    EBANDS =      -166.17626756
  atomic energy  EATOM  =       588.61769381
  Solvation  Ediel_sol  =         0.00000000
  ---------------------------------------------------
  free energy    TOTEN  =       -36.93044843 eV

  energy without entropy =      -36.93044817  energy(sigma->0) =      -36.93044830


--------------------------------------------------------------------------------------------------------




--------------------------------------- Iteration      1(  19)  ---------------------------------------


    POTLOK:  cpu time    0.0669: real time    0.0671
    SETDIJ:  cpu time    0.0354: real time    0.0355
     EDDAV:  cpu time    1.5595: real time    1.5646
       DOS:  cpu time    0.0003: real time    0.0003
    CHARGE:  cpu time    0.1747: real time    0.1751
    MIXING:  cpu time    0.0039: real time    0.0039
    --------------------------------------------
      LOOP:  cpu time    1.8407: real time    1.8466

 eigenvalue-minimisations  :  1312
 total energy-change (2. order) :-0.3518929E-05  (-0.1180365E-07)
 number of electron      16.0000000 magnetization 
 augmentation part        0.3846848 magnetization 

 Broyden mixing:
  rms(total) = 0.23870E-04    rms(broyden)= 0.23868E-04
  rms(prec ) = 0.24900E-04
  weight for this iteration     100.00

 eigenvalues of (default mixing * dielectric matrix)
  average eigenvalue GAMMA=   3.6814
 23.2522  6.8547  3.4569  3.0388  2.5395  2.4320  2.0331  1.5412  1.4471  1.0401
  1.0113  1.0113  0.9405  0.9405

 Free energy of the ion-electron system (eV)
  ---------------------------------------------------
  alpha Z        PSCENC =        12.54445055
  Ewald energy   TEWEN  =      2258.25990772
  -Hartree energ DENC   =     -2782.63890821
  -exchange      EXHF   =         0.00000000
  -V(xc)+E(xc)   XCENC  =        55.18508330
  PAW double counting   =      1695.57539995    -1698.29804574
  entropy T*S    EENTRO =        -0.00000026
  eigenvalues    EBANDS =      -166.17603308
  atomic energy  EATOM  =       588.61769381
  Solvation  Ediel_sol  =         0.00000000
  ---------------------------------------------------
  free energy    TOTEN  =       -36.93045195 eV

  energy without entropy =      -36.93045169  energy(sigma->0) =      -36.93045182


--------------------------------------------------------------------------------------------------------




--------------------------------------- Iteration      1(  20)  ---------------------------------------


    POTLOK:  cpu time    0.0676: real time    0.0704
    SETDIJ:  cpu time    0.0359: real time    0.0360
     EDDAV:  cpu time    1.3324: real time    1.3366
       DOS:  cpu time    0.0003: real time    0.0003
    CHARGE:  cpu time    0.1782: real time    0.1786
    MIXING:  cpu time    0.0041: real time    0.0041
    --------------------------------------------
      LOOP:  cpu time    1.6184: real time    1.6259

 eigenvalue-minimisations  :   992
 total energy-change (2. order) :-0.2753616E-06  (-0.3230903E-09)
 number of electron      16.0000000 magnetization 
 augmentation part        0.3846849 magnetization 

 Broyden mixing:
  rms(total) = 0.10240E-04    rms(broyden)= 0.10235E-04
  rms(prec ) = 0.10957E-04
  weight for this iteration     100.00

 eigenvalues of (default mixing * dielectric matrix)
  average eigenvalue GAMMA=   3.6371
 23.2591  6.8538  3.6565  3.0824  3.0824  2.4805  2.2442  2.0685  1.6453  1.2534
  1.0256  1.0256  0.9786  0.9786  0.9221

 Free energy of the ion-electron system (eV)
  ---------------------------------------------------
  alpha Z        PSCENC =        12.54445055
  Ewald energy   TEWEN  =      2258.25990772
  -Hartree energ DENC   =     -2782.64054213
  -exchange      EXHF   =         0.00000000
  -V(xc)+E(xc)   XCENC  =        55.18510381
  PAW double counting   =      1695.59921961    -1698.32185891
  entropy T*S    EENTRO =        -0.00000026
  eigenvalues    EBANDS =      -166.17442643
  atomic energy  EATOM  =       588.61769381
  Solvation  Ediel_sol  =         0.00000000
  ---------------------------------------------------
  free energy    TOTEN  =       -36.93045223 eV

  energy without entropy =      -36.93045197  energy(sigma->0) =      -36.93045210


--------------------------------------------------------------------------------------------------------




--------------------------------------- Iteration      1(  21)  ---------------------------------------


    POTLOK:  cpu time    0.0696: real time    0.0699
    SETDIJ:  cpu time    0.0382: real time    0.0383
     EDDAV:  cpu time    1.2608: real time    1.2648
       DOS:  cpu time    0.0003: real time    0.0003
    CHARGE:  cpu time    0.1831: real time    0.1835
    MIXING:  cpu time    0.0042: real time    0.0043
    --------------------------------------------
      LOOP:  cpu time    1.5563: real time    1.5611

 eigenvalue-minimisations  :   900
 total energy-change (2. order) :-0.2586598E-06  (-0.2775214E-09)
 number of electron      16.0000000 magnetization 
 augmentation part        0.3846849 magnetization 

 Broyden mixing:
  rms(total) = 0.36582E-05    rms(broyden)= 0.36419E-05
  rms(prec ) = 0.38801E-05
  weight for this iteration     100.00

 eigenvalues of (default mixing * dielectric matrix)
  average eigenvalue GAMMA=   3.4890
 23.2680  6.8484  3.6571  3.1849  2.9286  2.5789  2.3873  2.0352  1.5966  1.3632
  0.9240  1.0209  1.0209  1.0305  0.9899  0.9899

 Free energy of the ion-electron system (eV)
  ---------------------------------------------------
  alpha Z        PSCENC =        12.54445055
  Ewald energy   TEWEN  =      2258.25990772
  -Hartree energ DENC   =     -2782.64091593
  -exchange      EXHF   =         0.00000000
  -V(xc)+E(xc)   XCENC  =        55.18511166
  PAW double counting   =      1695.60882702    -1698.33145922
  entropy T*S    EENTRO =        -0.00000026
  eigenvalues    EBANDS =      -166.17406784
  atomic energy  EATOM  =       588.61769381
  Solvation  Ediel_sol  =         0.00000000
  ---------------------------------------------------
  free energy    TOTEN  =       -36.93045249 eV

  energy without entropy =      -36.93045223  energy(sigma->0) =      -36.93045236


--------------------------------------------------------------------------------------------------------




--------------------------------------- Iteration      1(  22)  ---------------------------------------


    POTLOK:  cpu time    0.0712: real time    0.0715
    SETDIJ:  cpu time    0.0379: real time    0.0381
     EDDAV:  cpu time    1.2773: real time    1.2814
       DOS:  cpu time    0.0003: real time    0.0003
    CHARGE:  cpu time    0.1851: real time    0.1856
    MIXING:  cpu time    0.0046: real time    0.0046
    --------------------------------------------
      LOOP:  cpu time    1.5765: real time    1.5815

 eigenvalue-minimisations  :   916
 total energy-change (2. order) :-0.1848503E-07  (-0.6130926E-10)
 number of electron      16.0000000 magnetization 
 augmentation part        0.3846848 magnetization 

 Broyden mixing:
  rms(total) = 0.18298E-05    rms(broyden)= 0.17971E-05
  rms(prec ) = 0.18824E-05
  weight for this iteration     100.00

 eigenvalues of (default mixing * dielectric matrix)
  average eigenvalue GAMMA=   3.4636
 23.2691  6.8472  3.8632  3.2354  3.2354  2.5320  2.5320  2.4409  2.0308  1.5818
  1.3154  1.0688  1.0112  1.0112  0.9341  0.9868  0.9868

 Free energy of the ion-electron system (eV)
  ---------------------------------------------------
  alpha Z        PSCENC =        12.54445055
  Ewald energy   TEWEN  =      2258.25990772
  -Hartree energ DENC   =     -2782.64070779
  -exchange      EXHF   =         0.00000000
  -V(xc)+E(xc)   XCENC  =        55.18511082
  PAW double counting   =      1695.60838081    -1698.33101736
  entropy T*S    EENTRO =        -0.00000026
  eigenvalues    EBANDS =      -166.17427081
  atomic energy  EATOM  =       588.61769381
  Solvation  Ediel_sol  =         0.00000000
  ---------------------------------------------------
  free energy    TOTEN  =       -36.93045251 eV

  energy without entropy =      -36.93045224  energy(sigma->0) =      -36.93045237


--------------------------------------------------------------------------------------------------------




--------------------------------------- Iteration      1(  23)  ---------------------------------------


    POTLOK:  cpu time    0.0723: real time    0.0725
    SETDIJ:  cpu time    0.0382: real time    0.0383
     EDDAV:  cpu time    1.2741: real time    1.2781
       DOS:  cpu time    0.0003: real time    0.0003
    --------------------------------------------
      LOOP:  cpu time    1.3848: real time    1.3892

 eigenvalue-minimisations  :   924
 total energy-change (2. order) :-0.8834604E-08  (-0.1520975E-10)
 number of electron      16.0000000 magnetization 
 augmentation part        0.3846848 magnetization 

 Free energy of the ion-electron system (eV)
  ---------------------------------------------------
  alpha Z        PSCENC =        12.54445055
  Ewald energy   TEWEN  =      2258.25990772
  -Hartree energ DENC   =     -2782.64073605
  -exchange      EXHF   =         0.00000000
  -V(xc)+E(xc)   XCENC  =        55.18511290
  PAW double counting   =      1695.60711026    -1698.32974842
  entropy T*S    EENTRO =        -0.00000026
  eigenvalues    EBANDS =      -166.17424304
  atomic energy  EATOM  =       588.61769381
  Solvation  Ediel_sol  =         0.00000000
  ---------------------------------------------------
  free energy    TOTEN  =       -36.93045251 eV

  energy without entropy =      -36.93045225  energy(sigma->0) =      -36.93045238


--------------------------------------------------------------------------------------------------------




 average (electrostatic) potential at core
  the test charge radii are     0.6991
  (the norm of the test charge is              1.0000)
       1 -56.6476       2 -56.6476       3 -56.6476       4 -56.6476
 
 
 
 E-fermi :  -1.2203     XC(G=0):  -4.0766     alpha+bet : -3.8262


 k-point     1 :       0.0000    0.0000    0.0000
  band No.  band energies     occupation 
      1     -20.7967      2.00000
      2     -20.7917      2.00000
      3      -8.9395      2.00000
      4      -8.8370      2.00000
      5      -4.2479      2.00000
      6      -4.2478      2.00000
      7      -4.2476      2.00000
      8      -4.2475      2.00000
      9       1.8419      0.00000
     10       2.4625      0.00000
     11       2.9875      0.00000
     12       3.9058      0.00000

 k-point     2 :       0.0476    0.0000    0.0000
  band No.  band energies     occupation 
      1     -20.7428      2.00000
      2     -20.7379      2.00000
      3      -8.8750      2.00000
      4      -8.7728      2.00000
      5      -4.4687      2.00000
      6      -4.4684      2.00000
      7      -4.3647      2.00000
      8      -4.3644      2.00000
      9       1.9140      0.00000
     10       2.5356      0.00000
     11       3.0609      0.00000
     12       3.9789      0.00000

 k-point     3 :       0.0952    0.0000    0.0000
  band No.  band energies     occupation 
      1     -20.5815      2.00000
      2     -20.5766      2.00000
      3      -8.6817      2.00000
      4      -8.5806      2.00000
      5      -5.0886      2.00000
      6      -5.0882      2.00000
      7      -4.6845      2.00000
      8      -4.6842      2.00000
      9       2.1305      0.00000
     10       2.7551      0.00000
     11       3.2809      0.00000
     12       4.1980      0.00000

 k-point     4 :       0.1429    0.0000    0.0000
  band No.  band energies     occupation 
      1     -20.3132      2.00000
      2     -20.3084      2.00000
      3      -8.3614      2.00000
      4      -8.2620      2.00000
      5      -6.0080      2.00000
      6      -6.0075      2.00000
      7      -5.1361      2.00000
      8      -5.1358      2.00000
      9       2.4913      0.00000
     10       3.1205      0.00000
     11       3.6472      0.00000
     12       4.5625      0.00000

 k-point     5 :       0.1905    0.0000    0.0000
  band No.  band energies     occupation 
      1     -19.9389      2.00000
      2     -19.9343      2.00000
      3      -7.9173      2.00000
      4      -7.8204      2.00000
      5      -7.1207      2.00000
      6      -7.1199      2.00000
      7      -5.6448      2.00000
      8      -5.6445      2.00000
      9       2.9960      0.00000
     10       3.6311      0.00000
     11       4.1581      0.00000
     12       5.0700      0.00000

 k-point     6 :       0.2381    0.0000    0.0000
  band No.  band energies     occupation 
      1     -19.4602      2.00000
      2     -19.4558      2.00000
      3      -8.3404      2.00000
      4      -8.3394      2.00000
      5      -7.3547      2.00000
      6      -7.2611      2.00000
      7      -6.1518      2.00000
      8      -6.1514      2.00000
      9       3.6433      0.00000
     10       4.2838      0.00000
     11       4.8058      0.00000
     12       5.6966      0.00000

 k-point     7 :       0.2857    0.0000    0.0000
  band No.  band energies     occupation 
      1     -18.8794      2.00000
      2     -18.8752      2.00000
      3      -9.6044      2.00000
      4      -9.6031      2.00000
      5      -6.6825      2.00000
      6      -6.6161      2.00000
      7      -6.6158      2.00000
      8      -6.5933      2.00000
      9       4.4280      0.00000
     10       4.9544      0.00000
     11       4.9831      0.00000
     12       5.2328      0.00000

 k-point     8 :       0.3333    0.0000    0.0000
  band No.  band energies     occupation 
      1     -18.1998      2.00000
      2     -18.1959      2.00000
      3     -10.8681      2.00000
      4     -10.8666      2.00000
      5      -7.0110      2.00000
      6      -7.0107      2.00000
      7      -5.9173      2.00000
      8      -5.8338      2.00000
      9       3.6809      0.00000
     10       3.7510      0.00000
     11       5.3595      0.00000
     12       6.0323      0.00000

 k-point     9 :       0.3810    0.0000    0.0000
  band No.  band energies     occupation 
      1     -17.4277      2.00000
      2     -17.4241      2.00000
      3     -12.0981      2.00000
      4     -12.0962      2.00000
      5      -7.3192      2.00000
      6      -7.3188      2.00000
      7      -5.0927      2.00000
      8      -5.0166      2.00000
      9       2.3964      0.00000
     10       2.4732      0.00000
     11       6.2862      0.00000
     12       6.3940      0.00000

 k-point    10 :       0.4286    0.0000    0.0000
  band No.  band energies     occupation 
      1     -16.5781      2.00000
      2     -16.5748      2.00000
      3     -13.2615      2.00000
      4     -13.2593      2.00000
      5      -7.5298      2.00000
      6      -7.5294      2.00000
      7      -4.2884      2.00000
      8      -4.2220      2.00000
      9       1.2670      0.00000
     10       1.3544      0.00000
     11       6.2869      0.00000
     12       6.2982      0.00000

 k-point    11 :       0.4762    0.0000    0.0000
  band No.  band energies     occupation 
      1     -15.7332      2.00000
      2     -15.7302      2.00000
      3     -14.2658      2.00000
      4     -14.2633      2.00000
      5      -7.6366      2.00000
      6      -7.6361      2.00000
      7      -3.7108      2.00000
      8      -3.6544      2.00000
      9       0.5218      0.00000
     10       0.6199      0.00000
     11       6.2372      0.00000
     12       6.2453      0.00000

 k-point    12 :       0.0952    0.0476    0.0000
  band No.  band energies     occupation 
      1     -20.6352      2.00000
      2     -20.6303      2.00000
      3      -8.7460      2.00000
      4      -8.6446      2.00000
      5      -4.8737      2.00000
      6      -4.8733      2.00000
      7      -4.5985      2.00000
      8      -4.5982      2.00000
      9       2.0584      0.00000
     10       2.6819      0.00000
     11       3.2076      0.00000
     12       4.1250      0.00000

 k-point    13 :       0.1429    0.0476    0.0000
  band No.  band energies     occupation 
      1     -20.4204      2.00000
      2     -20.4156      2.00000
      3      -8.4892      2.00000
      4      -8.3891      2.00000
      5      -5.6105      2.00000
      6      -5.6101      2.00000
      7      -5.0175      2.00000
      8      -5.0172      2.00000
      9       2.3471      0.00000
     10       2.9744      0.00000
     11       3.5008      0.00000
     12       4.4169      0.00000

 k-point    14 :       0.1905    0.0476    0.0000
[...]
      7      -6.1667      2.00000
      8      -6.1662      2.00000
      9       3.2131      0.00000
     10       3.8506      0.00000
     11       4.3777      0.00000
     12       5.2889      0.00000

 k-point    24 :       0.2857    0.0952    0.0000
  band No.  band energies     occupation 
      1     -19.3016      2.00000
      2     -19.2972      2.00000
      3      -8.3955      2.00000
      4      -8.3945      2.00000
      5      -7.1677      2.00000
      6      -7.0753      2.00000
      7      -6.7437      2.00000
      8      -6.7432      2.00000
      9       3.8609      0.00000
     10       4.5040      0.00000
     11       5.0266      0.00000
     12       5.9000      0.00000

 k-point    25 :       0.3333    0.0952    0.0000
  band No.  band energies     occupation 
      1     -18.7223      2.00000
      2     -18.7182      2.00000
      3      -9.5833      2.00000
      4      -9.5821      2.00000
      5      -7.2495      2.00000
      6      -7.2489      2.00000
      7      -6.4981      2.00000
      8      -6.4100      2.00000
      9       4.6423      0.00000
     10       4.8317      0.00000
     11       4.8646      0.00000
     12       5.3287      0.00000

 k-point    26 :       0.3810    0.0952    0.0000
  band No.  band energies     occupation 
      1     -18.0450      2.00000
      2     -18.0412      2.00000
      3     -10.7992      2.00000
      4     -10.7977      2.00000
      5      -7.6676      2.00000
      6      -7.6671      2.00000
      7      -5.7352      2.00000
      8      -5.6528      2.00000
      9       3.5560      0.00000
     10       3.6127      0.00000
     11       5.5792      0.00000
     12       6.2506      0.00000

 k-point    27 :       0.4286    0.0952    0.0000
  band No.  band energies     occupation 
      1     -17.2760      2.00000
      2     -17.2725      2.00000
      3     -11.9986      2.00000
      4     -11.9968      2.00000
      5      -7.9884      2.00000
      6      -7.9878      2.00000
      7      -4.9113      2.00000
      8      -4.8361      2.00000
      9       2.3153      0.00000
     10       2.3815      0.00000
     11       6.6318      0.00000
     12       7.2433      0.00000

 k-point    28 :       0.4762    0.0952    0.0000
  band No.  band energies     occupation 
      1     -16.4309      2.00000
      2     -16.4277      2.00000
      3     -13.1420      2.00000
      4     -13.1399      2.00000
      5      -8.2055      2.00000
      6      -8.2049      2.00000
      7      -4.1033      2.00000
      8      -4.0376      2.00000
      9       1.2125      0.00000
     10       1.2901      0.00000
     11       7.2066      0.00000
     12       7.2286      0.00000

 k-point    29 :      -0.4762    0.0952    0.0000
  band No.  band energies     occupation 
      1     -15.5925      2.00000
      2     -15.5895      2.00000
      3     -14.1329      2.00000
      4     -14.1304      2.00000
      5      -8.3151      2.00000
      6      -8.3144      2.00000
      7      -3.5162      2.00000
      8      -3.4602      2.00000
      9       0.4730      0.00000
     10       0.5616      0.00000
     11       7.1653      0.00000
     12       7.1771      0.00000

 k-point    30 :       0.2857    0.1429    0.0000
  band No.  band energies     occupation 
      1     -19.3546      2.00000
      2     -19.3502      2.00000
      3      -8.1107      2.00000
      4      -8.1099      2.00000
      5      -7.2289      2.00000
      6      -7.1360      2.00000
      7      -6.9057      2.00000
      8      -6.9050      2.00000
      9       3.7897      0.00000
     10       4.4333      0.00000
     11       4.9595      0.00000
     12       5.8677      0.00000

 k-point    31 :       0.3333    0.1429    0.0000
  band No.  band energies     occupation 
      1     -18.8275      2.00000
      2     -18.8234      2.00000
      3      -9.0773      2.00000
      4      -9.0762      2.00000
      5      -7.5824      2.00000
      6      -7.5817      2.00000
      7      -6.6160      2.00000
      8      -6.5270      2.00000
      9       4.5079      0.00000
     10       5.1290      0.00000
     11       5.1384      0.00000
     12       5.2039      0.00000

 k-point    32 :       0.3810    0.1429    0.0000
  band No.  band energies     occupation 
      1     -18.2010      2.00000
      2     -18.1972      2.00000
      3     -10.1690      2.00000
      4     -10.1677      2.00000
      5      -8.1253      2.00000
      6      -8.1245      2.00000
      7      -5.9008      2.00000
      8      -5.8168      2.00000
      9       3.9608      0.00000
     10       4.0015      0.00000
     11       5.3670      0.00000
     12       6.0281      0.00000

 k-point    33 :       0.4286    0.1429    0.0000
  band No.  band energies     occupation 
      1     -17.4802      2.00000
      2     -17.4766      2.00000
      3     -11.3146      2.00000
      4     -11.3129      2.00000
      5      -8.5364      2.00000
      6      -8.5356      2.00000
      7      -5.1044      2.00000
      8      -5.0266      2.00000
      9       2.7659      0.00000
     10       2.8162      0.00000
     11       6.3606      0.00000
     12       7.0302      0.00000

 k-point    34 :       0.4762    0.1429    0.0000
  band No.  band energies     occupation 
      1     -16.6748      2.00000
      2     -16.6715      2.00000
      3     -12.4520      2.00000
      4     -12.4501      2.00000
      5      -8.8262      2.00000
      6      -8.8253      2.00000
      7      -4.2726      2.00000
      8      -4.2029      2.00000
      9       1.6268      0.00000
     10       1.6880      0.00000
     11       7.4779      0.00000
     12       8.1292      0.00000

 k-point    35 :      -0.4762    0.1429    0.0000
  band No.  band energies     occupation 
      1     -15.8164      2.00000
      2     -15.8134      2.00000
      3     -13.5196      2.00000
      4     -13.5173      2.00000
      5      -8.9992      2.00000
      6      -8.9983      2.00000
      7      -3.5261      2.00000
      8      -3.4663      2.00000
      9       0.6864      0.00000
     10       0.7594      0.00000
     11       8.1986      0.00000
     12       8.2269      0.00000

 k-point    36 :      -0.4286    0.1429    0.0000
  band No.  band energies     occupation 
      1     -15.2088      2.00000
      2     -15.2060      2.00000
      3     -14.1985      2.00000
      4     -14.1961      2.00000
      5      -9.0567      2.00000
      6      -9.0558      2.00000
      7      -3.1800      2.00000
      8      -3.1265      2.00000
      9       0.2740      0.00000
     10       0.3539      0.00000
     11       8.1826      0.00000
     12       8.2013      0.00000

 k-point    37 :       0.3810    0.1905    0.0000
  band No.  band energies     occupation 
      1     -18.2532      2.00000
      2     -18.2493      2.00000
      3      -9.8396      2.00000
      4      -9.8383      2.00000
      5      -8.4046      2.00000
      6      -8.4037      2.00000
      7      -5.9564      2.00000
      8      -5.8719      2.00000
      9       4.1141      0.00000
     10       4.1465      0.00000
     11       5.2953      0.00000
     12       5.9514      0.00000

 k-point    38 :       0.4286    0.1905    0.0000
  band No.  band energies     occupation 
      1     -17.5829      2.00000
      2     -17.5793      2.00000
      3     -10.7494      2.00000
      4     -10.7480      2.00000
      5      -9.0527      2.00000
      6      -9.0516      2.00000
      7      -5.2031      2.00000
      8      -5.1241      2.00000
      9       3.0342      0.00000
     10       3.0722      0.00000
     11       6.2189      0.00000
     12       6.8794      0.00000

 k-point    39 :       0.4762    0.1905    0.0000
  band No.  band energies     occupation 
      1     -16.8240      2.00000
      2     -16.8206      2.00000
      3     -11.7753      2.00000
      4     -11.7736      2.00000
      5      -9.4925      2.00000
      6      -9.4914      2.00000
      7      -4.3837      2.00000
      8      -4.3116      2.00000
      9       1.9481      0.00000
     10       1.9941      0.00000
     11       7.2715      0.00000
     12       7.9313      0.00000

 k-point    40 :      -0.4762    0.1905    0.0000
  band No.  band energies     occupation 
      1     -15.9930      2.00000
      2     -15.9900      2.00000
      3     -12.8237      2.00000
      4     -12.8217      2.00000
      5      -9.7638      2.00000
      6      -9.7626      2.00000
      7      -3.5637      2.00000
      8      -3.5001      2.00000
      9       0.9382      0.00000
     10       0.9939      0.00000
     11       8.4333      0.00000
     12       9.0699      0.00000

 k-point    41 :      -0.4286    0.1905    0.0000
  band No.  band energies     occupation 
      1     -15.1730      2.00000
      2     -15.1702      2.00000
      3     -13.7626      2.00000
      4     -13.7603      2.00000
      5      -9.8943      2.00000
      6      -9.8931      2.00000
      7      -2.9388      2.00000
      8      -2.8842      2.00000
      9       0.2141      0.00000
     10       0.2797      0.00000
     11       9.4002      0.00000
     12       9.4549      0.00000

 k-point    42 :       0.4762    0.2381    0.0000
  band No.  band energies     occupation 
      1     -16.8741      2.00000
      2     -16.8707      2.00000
      3     -11.4044      2.00000
      4     -11.4028      2.00000
      5      -9.8652      2.00000
      6      -9.8639      2.00000
      7      -4.4223      2.00000
      8      -4.3493      2.00000
      9       2.0711      0.00000
     10       2.1105      0.00000
     11       7.2001      0.00000
     12       7.8529      0.00000

 k-point    43 :      -0.4762    0.2381    0.0000
  band No.  band energies     occupation 
      1     -16.0859      2.00000
      2     -16.0828      2.00000
      3     -12.2187      2.00000
      4     -12.2169      2.00000
      5     -10.4131      2.00000
      6     -10.4116      2.00000
      7      -3.5923      2.00000
      8      -3.5265      2.00000
      9       1.1072      0.00000
     10       1.1512      0.00000
     11       8.2883      0.00000
     12       8.9047      0.00000

 k-point    44 :      -0.4286    0.2381    0.0000
  band No.  band energies     occupation 
      1     -15.2508      2.00000
      2     -15.2480      2.00000
      3     -13.1247      2.00000
      4     -13.1226      2.00000
      5     -10.6982      2.00000
      6     -10.6967      2.00000
      7      -2.8058      2.00000
      8      -2.7483      2.00000
      9       0.2377      0.00000
     10       0.2888      0.00000
     11       9.2781      0.00000
     12       9.6947      0.00000

 k-point    45 :      -0.3810    0.2381    0.0000
  band No.  band energies     occupation 
      1     -14.6575      2.00000
      2     -14.6549      2.00000
      3     -13.7514      2.00000
      4     -13.7491      2.00000
      5     -10.7854      2.00000
      6     -10.7840      2.00000
      7      -2.3994      2.00000
      8      -2.3477      2.00000
      9      -0.1969      0.00000
     10      -0.1405      0.00000
     11       9.4706      0.00000
     12      10.1192      0.00000

 k-point    46 :      -0.4286    0.2857    0.0000
  band No.  band energies     occupation 
      1     -15.2854      2.00000
      2     -15.2826      2.00000
      3     -12.7453      2.00000
      4     -12.7434      2.00000
      5     -11.1282      2.00000
      6     -11.1266      2.00000
      7      -2.7653      2.00000
      8      -2.7064      2.00000
      9       0.2597      0.00000
     10       0.3045      0.00000
     11       9.1427      0.00000
     12       9.6038      0.00000

 k-point    47 :      -0.3810    0.2857    0.0000
  band No.  band energies     occupation 
      1     -14.4938      2.00000
      2     -14.4913      2.00000
      3     -13.4093      2.00000
      4     -13.4072      2.00000
      5     -11.4831      2.00000
      6     -11.4814      2.00000
      7      -2.0241      2.00000
      8      -1.9719      2.00000
      9      -0.4880      0.00000
     10      -0.4395      0.00000
     11       9.2026      0.00000
     12       9.8429      0.00000

 k-point    48 :      -0.3333    0.3333    0.0000
  band No.  band energies     occupation 
      1     -13.8341      2.00000
      2     -13.8341      2.00000
      3     -13.8318      2.00000
      4     -13.8318      2.00000
      5     -11.8248      2.00000
      6     -11.8230      2.00000
      7      -1.2447      1.99945
      8      -1.2447      1.99945
      9      -1.1959      0.00055
     10      -1.1958      0.00055
     11       9.1037      0.00000
     12       9.7374      0.00000


--------------------------------------------------------------------------------------------------------


 soft charge-density along one line, spin component           1
         0         1         2         3         4         5         6         7         8         9
 total charge-density along one line
 
 pseudopotential strength for first ion, spin component:           1
 10.124  13.461  -0.000  -0.000   0.000   0.000   0.000  -0.000
 13.461  17.898  -0.000  -0.000   0.000   0.000   0.000  -0.000
 -0.000  -0.000  -4.266  -0.000  -0.000   8.344   0.000   0.000
 -0.000  -0.000  -0.000  -4.258   0.000   0.000   8.334  -0.000
  0.000   0.000  -0.000   0.000  -4.266   0.000  -0.000   8.344
  0.000   0.000   8.344   0.000   0.000 -18.452  -0.000  -0.000
  0.000   0.000   0.000   8.334  -0.000  -0.000 -18.443   0.000
 -0.000  -0.000   0.000  -0.000   8.344  -0.000   0.000 -18.452
 total augmentation occupancy for first ion, spin component:           1
  8.116  -3.602  -0.000  -0.000   0.000  -0.000  -0.000   0.000
 -3.602   1.656  -0.000   0.000  -0.000   0.000   0.000   0.000
  0.000   0.000   1.837   0.000   0.000   0.173   0.000   0.000
 -0.000   0.000  -0.000   1.199  -0.000   0.000   0.073   0.000
  0.000   0.000   0.000   0.000   1.837   0.000  -0.000   0.173
 -0.000  -0.000   0.173  -0.000   0.000   0.018  -0.000   0.000
 -0.000   0.000  -0.000   0.073  -0.000   0.000   0.005  -0.000
  0.000   0.000   0.000   0.000   0.173   0.000  -0.000   0.018


------------------------ aborting loop because EDIFF is reached ----------------------------------------


    CHARGE:  cpu time    0.1740: real time    0.1744
    FORLOC:  cpu time    0.0056: real time    0.0056
    FORNL :  cpu time    0.3392: real time    0.3400
    STRESS:  cpu time    1.3471: real time    1.3503
    FORCOR:  cpu time    0.0711: real time    0.0713
    FORHAR:  cpu time    0.0188: real time    0.0189
    MIXING:  cpu time    0.0043: real time    0.0043
    OFIELD:  cpu time    0.0000: real time    0.0000

  FORCE on cell =-STRESS in cart. coord.  units (eV):
  Direction    XX          YY          ZZ          XY          YZ          ZX
  --------------------------------------------------------------------------------------
  Alpha Z    12.54445    12.54445    12.54445
  Ewald    2797.42136  2797.42012 -3336.58189     0.00000     0.00000    -0.00000
  Hartree  2760.11193  2760.11192 -2737.58314     0.00000    -0.00000    -0.00000
  E(xc)     -59.51896   -59.51896   -61.75178     0.00000    -0.00000    -0.00000
  Local   -5734.83836 -5734.83775  5862.45422     0.00000     0.00000     0.00000
  n-local   -14.82539   -13.75066   -13.00600     0.71032     0.00000     0.00000
  augment    -1.57104    -1.57104    -1.44410     0.00000     0.00000     0.00000
  Kinetic   245.07295   236.87100   275.31257    -6.59850    -0.00000    -0.00000
  Fock        0.00000     0.00000     0.00000     0.00000     0.00000     0.00000
  -------------------------------------------------------------------------------------
  Total       0.83301     0.83301    -0.05566     0.00000     0.00000     0.00000
  in kB      12.73796    12.73796    -0.85110     0.00000     0.00000     0.00000
  external pressure =        8.21 kB  Pullay stress =        0.00 kB


 VOLUME and BASIS-vectors are now :
 -----------------------------------------------------------------------------
  energy-cutoff  :      800.00
  volume of cell :      104.78
      direct lattice vectors                 reciprocal lattice vectors
     2.130000000 -1.229756000  0.000000000     0.234741784 -0.406584721  0.000000000
     2.130000000  1.229756000  0.000000000     0.234741784  0.406584721  0.000000000
     0.000000000  0.000000000 20.000000000     0.000000000  0.000000000  0.050000000

  length of vectors
     2.459512110  2.459512110 20.000000000     0.469483589  0.469483589  0.050000000


 FORCES acting on ions
    electron-ion (+dipol)            ewald-force                    non-local-force                 convergence-correction
 -----------------------------------------------------------------------------------------------
   -.879E-05 0.394E-12 0.287E+03   -.241E-03 0.669E-14 -.287E+03   -.438E-16 0.252E-16 -.223E-03   -.105E-10 0.152E-14 -.178E-04
   0.262E-03 -.129E-11 0.287E+03   0.241E-03 -.433E-14 -.287E+03   0.662E-17 0.146E-16 -.223E-03   0.214E-10 -.223E-14 -.178E-04
   -.880E-05 0.131E-11 -.287E+03   -.241E-03 0.661E-14 0.287E+03   -.355E-16 -.338E-16 0.223E-03   -.106E-10 0.175E-14 0.178E-04
   0.262E-03 -.451E-12 -.287E+03   0.241E-03 -.441E-14 0.287E+03   -.420E-16 0.141E-17 0.223E-03   0.215E-10 -.223E-14 0.178E-04
 -----------------------------------------------------------------------------------------------
   0.506E-03 -.409E-13 -.131E-03   0.858E-14 0.456E-14 0.000E+00   -.115E-15 0.742E-17 0.271E-19   0.217E-10 -.119E-14 -.319E-09
 
 
 POSITION                                       TOTAL-FORCE (eV/Angst)
 -----------------------------------------------------------------------------------
      0.00000      0.00000      0.00000        -0.000000     -0.000000      0.001165
      1.42000      0.00000      0.00000         0.000000     -0.000000      0.001165
      0.00000      0.00000      4.80000        -0.000000     -0.000000     -0.001165
      1.42000      0.00000      4.80000         0.000000      0.000000     -0.001165
 -----------------------------------------------------------------------------------
    total drift:                                0.000506     -0.000000     -0.000131


--------------------------------------------------------------------------------------------------------



  FREE ENERGIE OF THE ION-ELECTRON SYSTEM (eV)
  ---------------------------------------------------
  free  energy   TOTEN  =       -36.93045251 eV

  energy  without entropy=      -36.93045225  energy(sigma->0) =      -36.93045238
 


--------------------------------------------------------------------------------------------------------


    POTLOK:  cpu time    0.1035: real time    0.1037


--------------------------------------------------------------------------------------------------------


     LOOP+:  cpu time   44.1563: real time   44.4769
    4ORBIT:  cpu time    0.0000: real time    0.0000

 total amount of memory used by VASP MPI-rank0   107376. kBytes
=======================================================================

   base      :      30000. kBytes
   nonl-proj :      16997. kBytes
   fftplans  :      32720. kBytes
   grid      :      15086. kBytes
   one-center:         12. kBytes
   wavefun   :      12561. kBytes
 
  
  
 General timing and accounting informations for this job:
 ========================================================
  
                  Total CPU time used (sec):       46.140
                            User time (sec):       45.286
                          System time (sec):        0.855
                         Elapsed time (sec):       46.849
  
                   Maximum memory used (kb):      175100.
                   Average memory used (kb):           0.
  
                          Minor page faults:       180628
                          Major page faults:            0
                 Voluntary context switches:         3570
