mesh: [    42,    42,     1 ]
nqpoint: 169    
reciprocal_lattice:
- [   0.23474178,  -0.40658472,   0.00000000 ] # a*
- [   0.23474178,   0.40658472,   0.00000000 ] # b*
- [   0.00000000,   0.00000000,   0.05000000 ] # c*
natom:   2      
lattice:
- [     2.130000000000000,    -1.229756000000000,     0.000000000000000 ] # a
- [     2.130000000000000,     1.229756000000000,     0.000000000000000 ] # b
- [     0.000000000000000,     0.000000000000000,    20.000000000000000 ] # c
points:
- symbol: C  # 1
  coordinates: [  0.000000000000000,  0.000000000000000,  0.000000000000000 ]
  mass: 12.010700
- symbol: C  # 2
  coordinates: [  0.333333000000000,  0.333333000000000,  0.000000000000000 ]
  mass: 12.010700

phonon:
- q-position: [    0.0000000,    0.0000000,    0.0000000 ]
  distance_from_gamma:  0.000000000
  weight: 1    
  band:
  - # 1
    frequency:    -0.0000014493
  - # 2
    frequency:    -0.0000011817
  - # 3
    frequency:     0.0046571623
  - # 4
    frequency:    26.1521435309
  - # 5
    frequency:    45.4647886724
  - # 6
    frequency:    45.4647910217

- q-position: [    0.0238095,    0.0000000,    0.0000000 ]
  distance_from_gamma:  0.011178181
  weight: 6    
  band:
  - # 1
    frequency:    -0.3050217057
  - # 2
    frequency:     1.4891150301
  - # 3
    frequency:     2.4849745288
  - # 4
    frequency:    26.1439090686
  - # 5
    frequency:    45.4714798978
  - # 6
    frequency:    45.5032048808

- q-position: [    0.0476190,    0.0000000,    0.0000000 ]
  distance_from_gamma:  0.022356361
  weight: 6    
  band:
  - # 1
    frequency:    -0.5808981819
  - # 2
    frequency:     2.9660165852
  - # 3
    frequency:     4.9574097787
  - # 4
    frequency:    26.1184164597
  - # 5
    frequency:    45.4895776564
  - # 6
    frequency:    45.6151817767

- q-position: [    0.0714286,    0.0000000,    0.0000000 ]
  distance_from_gamma:  0.033534542
  weight: 6    
  band:
  - # 1
    frequency:    -0.7941322996
  - # 2
    frequency:     4.4188178084
  - # 3
    frequency:     7.4051154134
  - # 4
    frequency:    26.0733563010
  - # 5
    frequency:    45.5133610518
  - # 6
    frequency:    45.7912129254

- q-position: [    0.0952381,    0.0000000,    0.0000000 ]
  distance_from_gamma:  0.044712723
  weight: 6    
  band:
  - # 1
    frequency:    -0.8986283201
  - # 2
    frequency:     5.8362921834
  - # 3
    frequency:     9.8165911208
  - # 4
    frequency:    26.0050672845
  - # 5
    frequency:    45.5339522136
  - # 6
    frequency:    46.0163611885

- q-position: [    0.1190476,    0.0000000,    0.0000000 ]
  distance_from_gamma:  0.055890903
  weight: 6    
  band:
  - # 1
    frequency:    -0.8053904241
  - # 2
    frequency:     7.2082136338
  - # 3
    frequency:    12.1813494009
  - # 4
    frequency:    25.9087965022
  - # 5
    frequency:    45.5402142197
  - # 6
    frequency:    46.2714801473

- q-position: [    0.1428571,    0.0000000,    0.0000000 ]
  distance_from_gamma:  0.067069084
  weight: 6    
  band:
  - # 1
    frequency:     0.3301901120
  - # 2
    frequency:     8.5256889394
  - # 3
    frequency:    14.4902055193
  - # 4
    frequency:    25.7790263670
  - # 5
    frequency:    45.5198531486
  - # 6
    frequency:    46.5346681768

- q-position: [    0.1666667,    0.0000000,    0.0000000 ]
  distance_from_gamma:  0.078247265
  weight: 6    
  band:
  - # 1
    frequency:     1.3264262551
  - # 2
    frequency:     9.7814533023
  - # 3
    frequency:    16.7355160976
  - # 4
    frequency:    25.6098405268
  - # 5
    frequency:    45.4606113458
  - # 6
    frequency:    46.7827817274

- q-position: [    0.1904762,    0.0000000,    0.0000000 ]
  distance_from_gamma:  0.089425446
  weight: 6    
  band:
  - # 1
    frequency:     2.1477975232
  - # 2
    frequency:    10.9700867829
  - # 3
    frequency:    18.9113455836
  - # 4
    frequency:    25.3953038239
  - # 5
    frequency:    45.3514497329
  - # 6
    frequency:    46.9928583314

- q-position: [    0.2142857,    0.0000000,    0.0000000 ]
  distance_from_gamma:  0.100603626
  weight: 6    
  band:
  - # 1
    frequency:     2.9969462795
  - # 2
    frequency:    12.0881011993
  - # 3
    frequency:    21.0135405248
  - # 4
    frequency:    25.1298377425
  - # 5
    frequency:    45.1836401175
  - # 6
    frequency:    47.1433436962

- q-position: [    0.2380952,    0.0000000,    0.0000000 ]
  distance_from_gamma:  0.111781807
  weight: 6    
  band:
  - # 1
    frequency:     3.8938338508
  - # 2
    frequency:    13.1338460189
  - # 3
    frequency:    23.0396955578
  - # 4
    frequency:    24.8085816865
  - # 5
    frequency:    44.9517154211
  - # 6
    frequency:    47.2150638862

- q-position: [    0.2619048,    0.0000000,    0.0000000 ]
  distance_from_gamma:  0.122959988
  weight: 6    
  band:
  - # 1
    frequency:     4.8391810270
  - # 2
    frequency:    14.1071894871
  - # 3
    frequency:    24.4277415235
  - # 4
    frequency:    24.9890020189
  - # 5
    frequency:    44.6542493926
  - # 6
    frequency:    47.1919229555

- q-position: [    0.2857143,    0.0000000,    0.0000000 ]
  distance_from_gamma:  0.134138168
  weight: 6    
  band:
  - # 1
    frequency:     5.8276196832
  - # 2
    frequency:    15.0089497443
  - # 3
    frequency:    23.9849414495
  - # 4
    frequency:    26.8619791770
  - # 5
    frequency:    44.2944526646
  - # 6
    frequency:    47.0613344087

- q-position: [    0.3095238,    0.0000000,    0.0000000 ]
  distance_from_gamma:  0.145316349
  weight: 6    
  band:
  - # 1
    frequency:     6.8506835813
  - # 2
    frequency:    15.8400825949
  - # 3
    frequency:    23.4796177456
  - # 4
    frequency:    28.6600978118
  - # 5
    frequency:    43.8805754025
  - # 6
    frequency:    46.8144123582

- q-position: [    0.3333333,    0.0000000,    0.0000000 ]
  distance_from_gamma:  0.156494530
  weight: 6    
  band:
  - # 1
    frequency:     7.8975316491
  - # 2
    frequency:    16.6006807814
  - # 3
    frequency:    22.9135337793
  - # 4
    frequency:    30.3853138875
  - # 5
    frequency:    43.4260950686
  - # 6
    frequency:    46.4459589828

- q-position: [    0.3571429,    0.0000000,    0.0000000 ]
  distance_from_gamma:  0.167672710
  weight: 6    
  band:
  - # 1
    frequency:     8.9547172882
  - # 2
    frequency:    17.2889059401
  - # 3
    frequency:    22.2915788112
  - # 4
    frequency:    32.0395320565
  - # 5
    frequency:    42.9496375237
  - # 6
    frequency:    45.9542951402

- q-position: [    0.3809524,    0.0000000,    0.0000000 ]
  distance_from_gamma:  0.178850891
  weight: 6    
  band:
  - # 1
    frequency:    10.0050633478
  - # 2
    frequency:    17.9000565485
  - # 3
    frequency:    21.6231961096
  - # 4
    frequency:    33.6240039968
  - # 5
    frequency:    42.4745291968
  - # 6
    frequency:    45.3410027839

- q-position: [    0.4047619,    0.0000000,    0.0000000 ]
  distance_from_gamma:  0.190029072
  weight: 6    
  band:
  - # 1
    frequency:    11.0250205921
  - # 2
    frequency:    18.4260594638
  - # 3
    frequency:    20.9252033459
  - # 4
    frequency:    35.1385997761
  - # 5
    frequency:    42.0278152835
  - # 6
    frequency:    44.6107172803

- q-position: [    0.4285714,    0.0000000,    0.0000000 ]
  distance_from_gamma:  0.201207252
  weight: 6    
  band:
  - # 1
    frequency:    11.9788845927
  - # 2
    frequency:    18.8557208856
  - # 3
    frequency:    20.2276882196
  - # 4
    frequency:    36.5806157554
  - # 5
    frequency:    41.6385367496
  - # 6
    frequency:    43.7713808739

- q-position: [    0.4523810,    0.0000000,    0.0000000 ]
  distance_from_gamma:  0.212385433
  weight: 6    
  band:
  - # 1
    frequency:    12.8067530424
  - # 2
    frequency:    19.1760094825
  - # 3
    frequency:    19.5861243703
  - # 4
    frequency:    37.9413471237
  - # 5
    frequency:    41.3351106742
  - # 6
    frequency:    42.8367985504

- q-position: [    0.4761905,    0.0000000,    0.0000000 ]
  distance_from_gamma:  0.223563614
  weight: 6    
  band:
  - # 1
    frequency:    13.4054508226
  - # 2
    frequency:    19.1004941703
  - # 3
    frequency:    19.3743762544
  - # 4
    frequency:    39.1863571477
  - # 5
    frequency:    41.1419012595
  - # 6
    frequency:    41.8456247333

- q-position: [    0.5000000,    0.0000000,    0.0000000 ]
  distance_from_gamma:  0.234741795
  weight: 3    
  band:
  - # 1
    frequency:    13.6319452836
  - # 2
    frequency:    18.9119035718
  - # 3
    frequency:    19.4416278982
  - # 4
    frequency:    39.9670288140
  - # 5
    frequency:    41.0755252352
  - # 6
    frequency:    41.1492441906

- q-position: [    0.0476190,    0.0238095,    0.0000000 ]
  distance_from_gamma:  0.019361176
  weight: 6    
  band:
  - # 1
    frequency:    -0.5116378096
  - # 2
    frequency:     2.5806446133
  - # 3
    frequency:     4.2917338046
  - # 4
    frequency:    26.1270444697
  - # 5
    frequency:    45.4838166738
  - # 6
    frequency:    45.5784456569

- q-position: [    0.0714286,    0.0238095,    0.0000000 ]
  distance_from_gamma:  0.029574686
  weight: 12   
  band:
  - # 1
    frequency:    -0.7284259696
  - # 2
    frequency:     3.9288249062
  - # 3
    frequency:     6.5287169185
  - # 4
    frequency:    26.0917598504
  - # 5
    frequency:    45.5045601442
  - # 6
    frequency:    45.7225508429

- q-position: [    0.0952381,    0.0238095,    0.0000000 ]
  distance_from_gamma:  0.040303503
  weight: 12   
  band:
  - # 1
    frequency:    -0.8750800417
  - # 2
    frequency:     5.3149456132
  - # 3
    frequency:     8.8502596044
  - # 4
    frequency:    26.0350589064
  - # 5
    frequency:    45.5263635635
  - # 6
    frequency:    45.9232143322

- q-position: [    0.1190476,    0.0238095,    0.0000000 ]
  distance_from_gamma:  0.051224859
  weight: 12   
  band:
  - # 1
    frequency:    -0.8804031904
  - # 2
    frequency:     6.6850902712
  - # 3
    frequency:    11.1736440793
  - # 4
    frequency:    25.9527209199
  - # 5
    frequency:    45.5391408996
  - # 6
    frequency:    46.1633042159

- q-position: [    0.1428571,    0.0238095,    0.0000000 ]
  distance_from_gamma:  0.062237476
  weight: 12   
  band:
  - # 1
    frequency:    -0.5635859052
  - # 2
    frequency:     8.0162428393
  - # 3
    frequency:    13.4664480652
  - # 4
    frequency:    25.8395968768
  - # 5
    frequency:    45.5310880357
  - # 6
    frequency:    46.4222026909

- q-position: [    0.1666667,    0.0238095,    0.0000000 ]
  distance_from_gamma:  0.073300232
  weight: 12   
  band:
  - # 1
    frequency:     0.9406485456
  - # 2
    frequency:     9.2948423384
  - # 3
    frequency:    15.7110947180
  - # 4
    frequency:    25.6899580937
  - # 5
    frequency:    45.4898432577
  - # 6
    frequency:    46.6772999421

- q-position: [    0.1904762,    0.0238095,    0.0000000 ]
  distance_from_gamma:  0.084393413
  weight: 12   
  band:
  - # 1
    frequency:     1.7703332413
  - # 2
    frequency:    10.5119078002
  - # 3
    frequency:    17.8964241151
  - # 4
    frequency:    25.4978705759
  - # 5
    frequency:    45.4036841187
  - # 6
    frequency:    46.9054712052

- q-position: [    0.2142857,    0.0238095,    0.0000000 ]
  distance_from_gamma:  0.095506417
  weight: 12   
  band:
  - # 1
    frequency:     2.5963352445
  - # 2
    frequency:    11.6615810200
  - # 3
    frequency:    20.0150678985
  - # 4
    frequency:    25.2575730296
  - # 5
    frequency:    45.2626705176
  - # 6
    frequency:    47.0844076599

- q-position: [    0.2380952,    0.0238095,    0.0000000 ]
  distance_from_gamma:  0.106633047
  weight: 12   
  band:
  - # 1
    frequency:     3.4654599799
  - # 2
    frequency:    12.7405130396
  - # 3
    frequency:    22.0624154002
  - # 4
    frequency:    24.9638442103
  - # 5
    frequency:    45.0596687835
  - # 6
    frequency:    47.1937189980

- q-position: [    0.2619048,    0.0238095,    0.0000000 ]
  distance_from_gamma:  0.117769441
  weight: 12   
  band:
  - # 1
    frequency:     4.3840341578
  - # 2
    frequency:    13.7473934636
  - # 3
    frequency:    24.0360572304
  - # 4
    frequency:    24.6123552328
  - # 5
    frequency:    44.7912173934
  - # 6
    frequency:    47.2157691439

- q-position: [    0.2857143,    0.0238095,    0.0000000 ]
  distance_from_gamma:  0.128913068
  weight: 12   
  band:
  - # 1
    frequency:     5.3488919235
  - # 2
    frequency:    14.6823789023
  - # 3
    frequency:    24.2000149833
  - # 4
    frequency:    25.9353481475
  - # 5
    frequency:    44.4582148844
  - # 6
    frequency:    47.1362403734

- q-position: [    0.3095238,    0.0238095,    0.0000000 ]
  distance_from_gamma:  0.140062202
  weight: 12   
  band:
  - # 1
    frequency:     6.3529015040
  - # 2
    frequency:    15.5463318292
  - # 3
    frequency:    23.7253344869
  - # 4
    frequency:    27.7609626163
  - # 5
    frequency:    44.0664203097
  - # 6
    frequency:    46.9444436141

- q-position: [    0.3333333,    0.0238095,    0.0000000 ]
  distance_from_gamma:  0.151215625
  weight: 12   
  band:
  - # 1
    frequency:     7.3864026623
  - # 2
    frequency:    16.3398652144
  - # 3
    frequency:    23.1888657684
  - # 4
    frequency:    29.5144023327
  - # 5
    frequency:    43.6267529593
  - # 6
    frequency:    46.6334064756

- q-position: [    0.3571429,    0.0238095,    0.0000000 ]
  distance_from_gamma:  0.162372453
  weight: 12   
  band:
  - # 1
    frequency:     8.4373685851
  - # 2
    frequency:    17.0622625762
  - # 3
    frequency:    22.5938281875
  - # 4
    frequency:    31.1974502614
  - # 5
    frequency:    43.1553576123
  - # 6
    frequency:    46.1997805111

- q-position: [    0.3809524,    0.0238095,    0.0000000 ]
  distance_from_gamma:  0.173532029
  weight: 12   
  band:
  - # 1
    frequency:     9.4907528036
  - # 2
    frequency:    17.7104256936
  - # 3
    frequency:    21.9471574829
  - # 4
    frequency:    32.8115732359
  - # 5
    frequency:    42.6733612021
  - # 6
    frequency:    45.6436238722

- q-position: [    0.4047619,    0.0238095,    0.0000000 ]
  distance_from_gamma:  0.184693856
  weight: 12   
  band:
  - # 1
    frequency:    10.5267311153
  - # 2
    frequency:    18.2780926378
  - # 3
    frequency:    21.2614881463
  - # 4
    frequency:    34.3572451289
  - # 5
    frequency:    42.2061882896
  - # 6
    frequency:    44.9681555831

- q-position: [    0.4285714,    0.0238095,    0.0000000 ]
  distance_from_gamma:  0.195857548
  weight: 12   
  band:
  - # 1
    frequency:    11.5167859073
  - # 2
    frequency:    18.7556454838
  - # 3
    frequency:    20.5592065375
  - # 4
    frequency:    35.8330221776
  - # 5
    frequency:    41.7822455991
  - # 6
    frequency:    44.1797187102

- q-position: [    0.4523810,    0.0238095,    0.0000000 ]
  distance_from_gamma:  0.207022803
  weight: 12   
  band:
  - # 1
    frequency:    12.4152705049
  - # 2
    frequency:    19.1308346318
  - # 3
    frequency:    19.8809747789
  - # 4
    frequency:    37.2335598025
  - # 5
    frequency:    41.4307925502
  - # 6
    frequency:    43.2888146748

- q-position: [    0.4761905,    0.0238095,    0.0000000 ]
  distance_from_gamma:  0.218189382
  weight: 12   
  band:
  - # 1
    frequency:    13.1432215483
  - # 2
    frequency:    19.3019761027
  - # 3
    frequency:    19.3905933945
  - # 4
    frequency:    38.5416404967
  - # 5
    frequency:    41.1790843660
  - # 6
    frequency:    42.3170500097

- q-position: [    0.5000000,    0.0238095,    0.0000000 ]
  distance_from_gamma:  0.229357091
  weight: 12   
  band:
  - # 1
    frequency:    13.5727704305
  - # 2
    frequency:    18.9475406446
  - # 3
    frequency:    19.5237280945
  - # 4
    frequency:    39.6576593060
  - # 5
    frequency:    41.0525506542
  - # 6
    frequency:    41.3631332444

- q-position: [    0.0952381,    0.0476190,    0.0000000 ]
  distance_from_gamma:  0.038722353
  weight: 6    
  band:
  - # 1
    frequency:    -0.8610875030
  - # 2
    frequency:     5.1481116388
  - # 3
    frequency:     8.4886254789
  - # 4
    frequency:    26.0448145054
  - # 5
    frequency:    45.5229586016
  - # 6
    frequency:    45.8914197324

- q-position: [    0.1190476,    0.0476190,    0.0000000 ]
  distance_from_gamma:  0.048724559
  weight: 12   
  band:
  - # 1
    frequency:    -0.8996852731
  - # 2
    frequency:     6.4494721037
  - # 3
    frequency:    10.5995346480
  - # 4
    frequency:    25.9739990591
  - # 5
    frequency:    45.5360976108
  - # 6
    frequency:    46.1070983088

- q-position: [    0.1428571,    0.0476190,    0.0000000 ]
  distance_from_gamma:  0.059149371
  weight: 12   
  band:
  - # 1
    frequency:    -0.7219009101
  - # 2
    frequency:     7.7587641056
  - # 3
    frequency:    12.7592036893
  - # 4
    frequency:    25.8746680759
  - # 5
    frequency:    45.5330817747
  - # 6
    frequency:    46.3507621194

- q-position: [    0.1666667,    0.0476190,    0.0000000 ]
  distance_from_gamma:  0.069807715
  weight: 12   
  band:
  - # 1
    frequency:     0.6156064224
  - # 2
    frequency:     9.0404446191
  - # 3
    frequency:    14.9175510483
  - # 4
    frequency:    25.7414347779
  - # 5
    frequency:    45.5018742168
  - # 6
    frequency:    46.6008823857

- q-position: [    0.1904762,    0.0476190,    0.0000000 ]
  distance_from_gamma:  0.080607006
  weight: 12   
  band:
  - # 1
    frequency:     1.4752205072
  - # 2
    frequency:    10.2746823006
  - # 3
    frequency:    17.0466856453
  - # 4
    frequency:    25.5685319001
  - # 5
    frequency:    45.4304904434
  - # 6
    frequency:    46.8346959547

- q-position: [    0.2142857,    0.0476190,    0.0000000 ]
  distance_from_gamma:  0.091497351
  weight: 12   
  band:
  - # 1
    frequency:     2.2742297202
  - # 2
    frequency:    11.4494814891
  - # 3
    frequency:    19.1297212722
  - # 4
    frequency:    25.3501859411
  - # 5
    frequency:    45.3081754139
  - # 6
    frequency:    47.0296008771

- q-position: [    0.2380952,    0.0476190,    0.0000000 ]
  distance_from_gamma:  0.102449717
  weight: 12   
  band:
  - # 1
    frequency:     3.1094842436
  - # 2
    frequency:    12.5576524855
  - # 3
    frequency:    21.1561426197
  - # 4
    frequency:    25.0809864611
  - # 5
    frequency:    45.1264888972
  - # 6
    frequency:    47.1643696009

- q-position: [    0.2619048,    0.0476190,    0.0000000 ]
  distance_from_gamma:  0.113446143
  weight: 12   
  band:
  - # 1
    frequency:     3.9942586147
  - # 2
    frequency:    13.5953784006
  - # 3
    frequency:    23.1196225716
  - # 4
    frequency:    24.7562409624
  - # 5
    frequency:    44.8802492575
  - # 6
    frequency:    47.2201177944

- q-position: [    0.2857143,    0.0476190,    0.0000000 ]
  distance_from_gamma:  0.124474951
  weight: 12   
  band:
  - # 1
    frequency:     4.9278236846
  - # 2
    frequency:    14.5612659511
  - # 3
    frequency:    24.3723169014
  - # 4
    frequency:    25.0168051044
  - # 5
    frequency:    44.5683081688
  - # 6
    frequency:    47.1810062881

- q-position: [    0.3095238,    0.0476190,    0.0000000 ]
  distance_from_gamma:  0.135528237
  weight: 12   
  band:
  - # 1
    frequency:     5.9044452474
  - # 2
    frequency:    15.4554571179
  - # 3
    frequency:    23.9269868818
  - # 4
    frequency:    26.8464684969
  - # 5
    frequency:    44.1941436885
  - # 6
    frequency:    47.0346821048

- q-position: [    0.3333333,    0.0476190,    0.0000000 ]
  distance_from_gamma:  0.146600464
  weight: 12   
  band:
  - # 1
    frequency:     6.9156312363
  - # 2
    frequency:    16.2786421929
  - # 3
    frequency:    23.4198153628
  - # 4
    frequency:    28.6088259043
  - # 5
    frequency:    43.7662627205
  - # 6
    frequency:    46.7724829086

- q-position: [    0.3571429,    0.0476190,    0.0000000 ]
  distance_from_gamma:  0.157687643
  weight: 12   
  band:
  - # 1
    frequency:     7.9506540420
  - # 2
    frequency:    17.0309509120
  - # 3
    frequency:    22.8526656132
  - # 4
    frequency:    30.3048628926
  - # 5
    frequency:    43.2983926706
  - # 6
    frequency:    46.3894413228

- q-position: [    0.3809524,    0.0476190,    0.0000000 ]
  distance_from_gamma:  0.168786826
  weight: 12   
  band:
  - # 1
    frequency:     8.9962539629
  - # 2
    frequency:    17.7108018935
  - # 3
    frequency:    22.2304881203
  - # 4
    frequency:    31.9356705585
  - # 5
    frequency:    42.8094123761
  - # 6
    frequency:    45.8841381468

- q-position: [    0.4047619,    0.0476190,    0.0000000 ]
  distance_from_gamma:  0.179895792
  weight: 12   
  band:
  - # 1
    frequency:    10.0354951911
  - # 2
    frequency:    18.3138917583
  - # 3
    frequency:    21.5627332166
  - # 4
    frequency:    33.5017395199
  - # 5
    frequency:    42.3229225089
  - # 6
    frequency:    45.2584804843

- q-position: [    0.4285714,    0.0476190,    0.0000000 ]
  distance_from_gamma:  0.191012834
  weight: 12   
  band:
  - # 1
    frequency:    11.0451315298
  - # 2
    frequency:    18.8326032192
  - # 3
    frequency:    20.8661455777
  - # 4
    frequency:    35.0021070010
  - # 5
    frequency:    41.8662953766
  - # 6
    frequency:    44.5175649418

- q-position: [    0.4523810,    0.0476190,    0.0000000 ]
  distance_from_gamma:  0.202136620
  weight: 12   
  band:
  - # 1
    frequency:    11.9898567467
  - # 2
    frequency:    19.2561727394
  - # 3
    frequency:    20.1706148473
  - # 4
    frequency:    36.4329058766
  - # 5
    frequency:    41.4690209557
  - # 6
    frequency:    43.6701104227

- q-position: [    0.4761905,    0.0476190,    0.0000000 ]
  distance_from_gamma:  0.213266094
  weight: 12   
  band:
  - # 1
    frequency:    12.8103220065
  - # 2
    frequency:    19.5312236936
  - # 3
    frequency:    19.5719069281
  - # 4
    frequency:    37.7830570825
  - # 5
    frequency:    41.1603719050
  - # 6
    frequency:    42.7315906353

- q-position: [    0.5000000,    0.0476190,    0.0000000 ]
  distance_from_gamma:  0.224400410
  weight: 12   
  band:
  - # 1
    frequency:    13.4040899684
  - # 2
    frequency:    19.0473362568
  - # 3
    frequency:    19.7674721173
  - # 4
    frequency:    39.0098889329
  - # 5
    frequency:    40.9685752062
  - # 6
    frequency:    41.7452255975

- q-position: [    0.5238095,    0.0476190,    0.0000000 ]
  distance_from_gamma:  0.235538882
  weight: 6    
  band:
  - # 1
    frequency:    13.6288450941
  - # 2
    frequency:    18.8594144495
  - # 3
    frequency:    19.8337801942
  - # 4
    frequency:    39.7458625211
  - # 5
    frequency:    40.9754430722
  - # 6
    frequency:    41.0162918760

- q-position: [    0.1428571,    0.0714286,    0.0000000 ]
  distance_from_gamma:  0.058083529
  weight: 6    
  band:
  - # 1
    frequency:    -0.7616285361
  - # 2
    frequency:     7.6875684356
  - # 3
    frequency:    12.5018257573
  - # 4
    frequency:    25.8861413233
  - # 5
    frequency:    45.5328625638
  - # 6
    frequency:    46.3263400722

- q-position: [    0.1666667,    0.0714286,    0.0000000 ]
  distance_from_gamma:  0.067994217
  weight: 12   
  band:
  - # 1
    frequency:     0.3870112273
  - # 2
    frequency:     8.9505723902
  - # 3
    frequency:    14.4731983360
  - # 4
    frequency:    25.7665723678
  - # 5
    frequency:    45.5053766531
  - # 6
    frequency:    46.5609678773

- q-position: [    0.1904762,    0.0714286,    0.0000000 ]
  distance_from_gamma:  0.078247263
  weight: 12   
  band:
  - # 1
    frequency:     1.2815269229
  - # 2
    frequency:    10.1946826231
  - # 3
    frequency:    16.4643616498
  - # 4
    frequency:    25.6098405297
  - # 5
    frequency:    45.4418343509
  - # 6
    frequency:    46.7890712219

- q-position: [    0.2142857,    0.0714286,    0.0000000 ]
  distance_from_gamma:  0.088724057
  weight: 12   
  band:
  - # 1
    frequency:     2.0449123045
  - # 2
    frequency:    11.3946679278
  - # 3
    frequency:    18.4447556577
  - # 4
    frequency:    25.4103196032
  - # 5
    frequency:    45.3310823322
  - # 6
    frequency:    46.9882250349

- q-position: [    0.2380952,    0.0714286,    0.0000000 ]
  distance_from_gamma:  0.099353842
  weight: 12   
  band:
  - # 1
    frequency:     2.8390264990
  - # 2
    frequency:    12.5356475414
  - # 3
    frequency:    20.3948227579
  - # 4
    frequency:    25.1625751724
  - # 5
    frequency:    45.1637540294
  - # 6
    frequency:    47.1367768807

- q-position: [    0.2619048,    0.0714286,    0.0000000 ]
  distance_from_gamma:  0.110092310
  weight: 12   
  band:
  - # 1
    frequency:     3.6828015546
  - # 2
    frequency:    13.6091145238
  - # 3
    frequency:    22.3020274021
  - # 4
    frequency:    24.8617195444
  - # 5
    frequency:    44.9332843872
  - # 6
    frequency:    47.2149290295

- q-position: [    0.2857143,    0.0714286,    0.0000000 ]
  distance_from_gamma:  0.120910509
  weight: 12   
  band:
  - # 1
    frequency:     4.5775081103
  - # 2
    frequency:    14.6108070922
  - # 3
    frequency:    24.1586158945
  - # 4
    frequency:    24.5037511864
  - # 5
    frequency:    44.6367667762
  - # 6
    frequency:    47.2055727032

- q-position: [    0.3095238,    0.0714286,    0.0000000 ]
  distance_from_gamma:  0.131788805
  weight: 12   
  band:
  - # 1
    frequency:     5.5186466780
  - # 2
    frequency:    15.5392949128
  - # 3
    frequency:    24.0858868983
  - # 4
    frequency:    25.9601943093
  - # 5
    frequency:    44.2756342784
  - # 6
    frequency:    47.0948642289

- q-position: [    0.3333333,    0.0714286,    0.0000000 ]
  distance_from_gamma:  0.142713456
  weight: 12   
  band:
  - # 1
    frequency:     6.4988052854
  - # 2
    frequency:    16.3947704749
  - # 3
    frequency:    23.6069123219
  - # 4
    frequency:    27.7046878640
  - # 5
    frequency:    43.8561573988
  - # 6
    frequency:    46.8725565098

- q-position: [    0.3571429,    0.0714286,    0.0000000 ]
  distance_from_gamma:  0.153674576
  weight: 12   
  band:
  - # 1
    frequency:     7.5084437131
  - # 2
    frequency:    17.1778361849
  - # 3
    frequency:    23.0676054704
  - # 4
    frequency:    29.3914723625
  - # 5
    frequency:    43.3897472678
  - # 6
    frequency:    46.5321151946

- q-position: [    0.3809524,    0.0714286,    0.0000000 ]
  distance_from_gamma:  0.164664882
  weight: 12   
  band:
  - # 1
    frequency:     8.5358481038
  - # 2
    frequency:    17.8882498654
  - # 3
    frequency:    22.4713443186
  - # 4
    frequency:    31.0205767379
  - # 5
    frequency:    42.8930340324
  - # 6
    frequency:    46.0706622294

- q-position: [    0.4047619,    0.0714286,    0.0000000 ]
  distance_from_gamma:  0.175678898
  weight: 12   
  band:
  - # 1
    frequency:     9.5664082415
  - # 2
    frequency:    18.5237216327
  - # 3
    frequency:    21.8251296977
  - # 4
    frequency:    32.5918966826
  - # 5
    frequency:    42.3876508463
  - # 6
    frequency:    45.4888103443

- q-position: [    0.4285714,    0.0714286,    0.0000000 ]
  distance_from_gamma:  0.186712427
  weight: 12   
  band:
  - # 1
    frequency:    10.5808517648
  - # 2
    frequency:    19.0789750136
  - # 3
    frequency:    21.1415263186
  - # 4
    frequency:    34.1043310278
  - # 5
    frequency:    41.8995972006
  - # 6
    frequency:    44.7905074832

- q-position: [    0.4523810,    0.0714286,    0.0000000 ]
  distance_from_gamma:  0.197762203
  weight: 12   
  band:
  - # 1
    frequency:    11.5513694868
  - # 2
    frequency:    19.5453877240
  - # 3
    frequency:    20.4426456681
  - # 4
    frequency:    35.5545555462
  - # 5
    frequency:    41.4580103833
  - # 6
    frequency:    43.9831993506

- q-position: [    0.4761905,    0.0714286,    0.0000000 ]
  distance_from_gamma:  0.208825647
  weight: 12   
  band:
  - # 1
    frequency:    12.4332732918
  - # 2
    frequency:    19.7685571005
  - # 3
    frequency:    19.9115612920
  - # 4
    frequency:    36.9342222867
  - # 5
    frequency:    41.0932746876
  - # 6
    frequency:    43.0794271274

- q-position: [    0.5000000,    0.0714286,    0.0000000 ]
  distance_from_gamma:  0.219900697
  weight: 12   
  band:
  - # 1
    frequency:    13.1489049707
  - # 2
    frequency:    19.1934234360
  - # 3
    frequency:    20.1650340524
  - # 4
    frequency:    38.2185957411
  - # 5
    frequency:    40.8354915588
  - # 6
    frequency:    42.1057843457

- q-position: [    0.5238095,    0.0714286,    0.0000000 ]
  distance_from_gamma:  0.230985682
  weight: 12   
  band:
  - # 1
    frequency:    13.5718530160
  - # 2
    frequency:    18.8413122949
  - # 3
    frequency:    20.2949558006
  - # 4
    frequency:    39.2777724886
  - # 5
    frequency:    40.7290208106
  - # 6
    frequency:    41.1726997568

- q-position: [    0.1904762,    0.0952381,    0.0000000 ]
  distance_from_gamma:  0.077444705
  weight: 6    
  band:
  - # 1
    frequency:     1.2129478425
  - # 2
    frequency:    10.1828914493
  - # 3
    frequency:    16.2542458066
  - # 4
    frequency:    25.6234237505
  - # 5
    frequency:    45.4447624586
  - # 6
    frequency:    46.7733627802

- q-position: [    0.2142857,    0.0952381,    0.0000000 ]
  distance_from_gamma:  0.087304380
  weight: 12   
  band:
  - # 1
    frequency:     1.9244585643
  - # 2
    frequency:    11.4056041381
  - # 3
    frequency:    18.0630575331
  - # 4
    frequency:    25.4398851618
  - # 5
    frequency:    45.3401057477
  - # 6
    frequency:    46.9661489139

- q-position: [    0.2380952,    0.0952381,    0.0000000 ]
  distance_from_gamma:  0.097449118
  weight: 12   
  band:
  - # 1
    frequency:     2.6685146768
  - # 2
    frequency:    12.5875880255
  - # 3
    frequency:    19.8734971126
  - # 4
    frequency:    25.2106505973
  - # 5
    frequency:    45.1815154903
  - # 6
    frequency:    47.1176584431

- q-position: [    0.2619048,    0.0952381,    0.0000000 ]
  distance_from_gamma:  0.107798468
  weight: 12   