phonopy:
  version: 2.6.0
  frequency_unit_conversion_factor: 15.633302
  symmetry_tolerance: 1.00000e-05
  configuration:
    atom_name: "C"
    dim: "3 3 1"
    mesh: "42 42 1"
    gamma_center: ".TRUE."
    cell_filename: "/n/home04/jzlu/codes/ml-ph/testfiles/Gr6/analyses/phonon_calculations/POSCAR_unit"

physical_unit:
  atomic_mass: "AMU"
  length: "Angstrom"
  force_constants: "eV/Angstrom^2"

supercell_matrix:
- [   3,   0,   0 ]
- [   0,   3,   0 ]
- [   0,   0,   1 ]

space_group:
  type: "P6/mmm"
  number: 191
  Hall_symbol: "-P 6 2"

primitive_cell:
  lattice:
  - [     2.130000000000000,    -1.229756000000000,     0.000000000000000 ] # a
  - [     2.130000000000000,     1.229756000000000,     0.000000000000000 ] # b
  - [     0.000000000000000,     0.000000000000000,    20.000000000000000 ] # c
  points:
  - symbol: C  # 1
    coordinates: [  0.000000000000000,  0.000000000000000,  0.000000000000000 ]
    mass: 12.010700
  - symbol: C  # 2
    coordinates: [  0.333333000000000,  0.333333000000000,  0.000000000000000 ]
    mass: 12.010700
  reciprocal_lattice: # without 2pi
  - [     0.234741784037559,    -0.406584720871457,     0.000000000000000 ] # a*
  - [     0.234741784037559,     0.406584720871457,     0.000000000000000 ] # b*
  - [     0.000000000000000,     0.000000000000000,     0.050000000000000 ] # c*

unit_cell:
  lattice:
  - [     2.130000000000000,    -1.229756000000000,     0.000000000000000 ] # a
  - [     2.130000000000000,     1.229756000000000,     0.000000000000000 ] # b
  - [     0.000000000000000,     0.000000000000000,    20.000000000000000 ] # c
  points:
  - symbol: C  # 1
    coordinates: [  0.000000000000000,  0.000000000000000,  0.000000000000000 ]
    mass: 12.010700
    reduced_to: 1
  - symbol: C  # 2
    coordinates: [  0.333333000000000,  0.333333000000000,  0.000000000000000 ]
    mass: 12.010700
    reduced_to: 2

supercell:
  lattice:
  - [     6.390000000000000,    -3.689268000000000,     0.000000000000000 ] # a
  - [     6.390000000000000,     3.689268000000000,     0.000000000000000 ] # b
  - [     0.000000000000000,     0.000000000000000,    20.000000000000000 ] # c
  points:
  - symbol: C  # 1
    coordinates: [  0.000000000000000,  0.000000000000000,  0.000000000000000 ]
    mass: 12.010700
    reduced_to: 1
  - symbol: C  # 2
    coordinates: [  0.333333333333333,  0.000000000000000,  0.000000000000000 ]
    mass: 12.010700
    reduced_to: 1
  - symbol: C  # 3
    coordinates: [  0.666666666666667,  0.000000000000000,  0.000000000000000 ]
    mass: 12.010700
    reduced_to: 1
  - symbol: C  # 4
    coordinates: [  0.000000000000000,  0.333333333333333,  0.000000000000000 ]
    mass: 12.010700
    reduced_to: 1
  - symbol: C  # 5
    coordinates: [  0.333333333333333,  0.333333333333333,  0.000000000000000 ]
    mass: 12.010700
    reduced_to: 1
  - symbol: C  # 6
    coordinates: [  0.666666666666667,  0.333333333333333,  0.000000000000000 ]
    mass: 12.010700
    reduced_to: 1
  - symbol: C  # 7
    coordinates: [  0.000000000000000,  0.666666666666667,  0.000000000000000 ]
    mass: 12.010700
    reduced_to: 1
  - symbol: C  # 8
    coordinates: [  0.333333333333333,  0.666666666666667,  0.000000000000000 ]
    mass: 12.010700
    reduced_to: 1
  - symbol: C  # 9
    coordinates: [  0.666666666666667,  0.666666666666667,  0.000000000000000 ]
    mass: 12.010700
    reduced_to: 1
  - symbol: C  # 10
    coordinates: [  0.111111000000000,  0.111111000000000,  0.000000000000000 ]
    mass: 12.010700
    reduced_to: 10
  - symbol: C  # 11
    coordinates: [  0.444444333333333,  0.111111000000000,  0.000000000000000 ]
    mass: 12.010700
    reduced_to: 10
  - symbol: C  # 12
    coordinates: [  0.777777666666667,  0.111111000000000,  0.000000000000000 ]
    mass: 12.010700
    reduced_to: 10
  - symbol: C  # 13
    coordinates: [  0.111111000000000,  0.444444333333333,  0.000000000000000 ]
    mass: 12.010700
    reduced_to: 10
  - symbol: C  # 14
    coordinates: [  0.444444333333333,  0.444444333333333,  0.000000000000000 ]
    mass: 12.010700
    reduced_to: 10
  - symbol: C  # 15
    coordinates: [  0.777777666666667,  0.444444333333333,  0.000000000000000 ]
    mass: 12.010700
    reduced_to: 10
  - symbol: C  # 16
    coordinates: [  0.111111000000000,  0.777777666666667,  0.000000000000000 ]
    mass: 12.010700
    reduced_to: 10
  - symbol: C  # 17
    coordinates: [  0.444444333333333,  0.777777666666667,  0.000000000000000 ]
    mass: 12.010700
    reduced_to: 10
  - symbol: C  # 18
    coordinates: [  0.777777666666667,  0.777777666666667,  0.000000000000000 ]
    mass: 12.010700
    reduced_to: 10
