  18  18   0   0
  0.5238761E+02  0.7378536E-09  0.7378536E-09  0.2000000E-08  0.5000000E-15
  1.000000000000000E-004
  CAR 
 C-2                                     
      4.64351016    -23.57991409  301     -2.72180452      1.00000000
    -23.580  0.0000E+00  0.0000E+00
    -23.486  0.0000E+00  0.0000E+00
    -23.392  0.0000E+00  0.0000E+00
    -23.298  0.0000E+00  0.0000E+00
    -23.204  0.0000E+00  0.0000E+00
    -23.110  0.0000E+00  0.0000E+00
    -23.015  0.0000E+00  0.0000E+00
    -22.921  0.0000E+00  0.0000E+00
    -22.827  0.0000E+00  0.0000E+00
    -22.733  0.0000E+00  0.0000E+00
    -22.639  0.0000E+00  0.0000E+00
    -22.545  0.0000E+00  0.0000E+00
    -22.451  0.0000E+00  0.0000E+00
    -22.357  0.0000E+00  0.0000E+00
    -22.263  0.9730E+00  0.9154E-01
    -22.169  0.2389E+01  0.3654E+00
    -22.075  0.2347E+01  0.6063E+00
    -21.981  0.2195E+01  0.8913E+00
    -21.887  0.2563E+01  0.1144E+01
    -21.792  0.2708E+01  0.1402E+01
    -21.698  0.2502E+01  0.1655E+01
    -21.604  0.2746E+01  0.1923E+01
    -21.510  0.2273E+01  0.2178E+01
    -21.416  0.1828E+01  0.2435E+01
    -21.322  0.2170E+01  0.2685E+01
    -21.228  0.2690E+01  0.2951E+01
    -21.134  0.2357E+01  0.3220E+01
    -21.040  0.2134E+01  0.3471E+01
    -20.946  0.2877E+01  0.3758E+01
    -20.852  0.1564E+01  0.3988E+01
    -20.758  0.2814E+01  0.4297E+01
    -20.663  0.2374E+01  0.4554E+01
    -20.569  0.2076E+01  0.4799E+01
    -20.475  0.2533E+01  0.5086E+01
    -20.381  0.1386E+01  0.5278E+01
    -20.287  0.2893E+01  0.5610E+01
    -20.193  0.2306E+01  0.5828E+01
    -20.099  0.3414E+01  0.6149E+01
    -20.005  0.2049E+01  0.6401E+01
    -19.911  0.3088E+01  0.6717E+01
    -19.817  0.2008E+01  0.6915E+01
    -19.723  0.2579E+01  0.7186E+01
    -19.629  0.2410E+01  0.7470E+01
    -19.535  0.2750E+01  0.7746E+01
    -19.440  0.2186E+01  0.8020E+01
    -19.346  0.1537E+01  0.8222E+01
    -19.252  0.3758E+01  0.8576E+01
    -19.158  0.2600E+01  0.8821E+01
    -19.064  0.2639E+01  0.9069E+01
    -18.970  0.2305E+01  0.9364E+01
    -18.876  0.1569E+01  0.9558E+01
    -18.782  0.3624E+01  0.9916E+01
    -18.688  0.1414E+01  0.1015E+02
    -18.594  0.2863E+01  0.1045E+02
    -18.500  0.1976E+01  0.1078E+02
    -18.406  0.1520E+01  0.1095E+02
    -18.312  0.3699E+01  0.1132E+02
    -18.217  0.1921E+01  0.1159E+02
    -18.123  0.1611E+01  0.1178E+02
    -18.029  0.2731E+01  0.1215E+02
    -17.935  0.1831E+01  0.1239E+02
    -17.841  0.2363E+01  0.1269E+02
    -17.747  0.2626E+01  0.1301E+02
    -17.653  0.1765E+01  0.1323E+02
    -17.559  0.3382E+01  0.1360E+02
    -17.465  0.3176E+01  0.1391E+02
    -17.371  0.2325E+01  0.1413E+02
    -17.277  0.3713E+01  0.1453E+02
    -17.183  0.2843E+01  0.1484E+02
    -17.089  0.2807E+01  0.1518E+02
    -16.994  0.4765E+01  0.1566E+02
    -16.900  0.2574E+01  0.1603E+02
    -16.806  0.1708E+01  0.1623E+02
    -16.712  0.2732E+01  0.1653E+02
    -16.618  0.1735E+01  0.1677E+02
    -16.524  0.3400E+00  0.1680E+02
    -16.430  0.3463E+01  0.1717E+02
    -16.336  0.2892E+00  0.1720E+02
    -16.242  0.2560E+01  0.1744E+02
    -16.148  0.2721E+00  0.1753E+02
    -16.054  0.5663E+00  0.1758E+02
    -15.960  0.2684E+01  0.1784E+02
    -15.866  0.1756E+01  0.1805E+02
    -15.771  0.2309E+01  0.1830E+02
    -15.677  0.3177E+01  0.1864E+02
    -15.583  0.2997E+01  0.1893E+02
    -15.489  0.2025E+01  0.1913E+02
    -15.395  0.3998E+01  0.1951E+02
    -15.301  0.2009E+01  0.1970E+02
    -15.207  0.2601E+01  0.2005E+02
    -15.113  0.4169E+01  0.2050E+02
    -15.019  0.3159E+01  0.2086E+02
    -14.925  0.2699E+01  0.2115E+02
    -14.831  0.3101E+01  0.2155E+02
    -14.737  0.3160E+01  0.2187E+02
    -14.642  0.3308E+01  0.2218E+02
    -14.548  0.2769E+01  0.2250E+02
    -14.454  0.1664E+01  0.2271E+02
    -14.360  0.2572E+01  0.2301E+02
    -14.266  0.3345E+01  0.2333E+02
    -14.172  0.2679E+01  0.2359E+02
    -14.078  0.2236E+01  0.2385E+02
    -13.984  0.2478E+01  0.2409E+02
    -13.890  0.1802E+01  0.2433E+02
    -13.796  0.1746E+01  0.2460E+02
    -13.702  0.2886E+01  0.2489E+02
    -13.608  0.1754E+01  0.2506E+02
    -13.514  0.2332E+01  0.2530E+02
    -13.419  0.2254E+01  0.2555E+02
    -13.325  0.2537E+01  0.2581E+02
    -13.231  0.2329E+01  0.2605E+02
    -13.137  0.3526E+01  0.2640E+02
    -13.043  0.1982E+01  0.2664E+02
    -12.949  0.3668E+01  0.2702E+02
    -12.855  0.2599E+01  0.2727E+02
    -12.761  0.3875E+01  0.2763E+02
    -12.667  0.1788E+01  0.2791E+02
    -12.573  0.2469E+01  0.2817E+02
    -12.479  0.2766E+01  0.2852E+02
    -12.385  0.3193E+01  0.2885E+02
    -12.291  0.2570E+01  0.2910E+02
    -12.196  0.3233E+01  0.2946E+02
    -12.102  0.2875E+01  0.2980E+02
    -12.008  0.2912E+01  0.3007E+02
    -11.914  0.3444E+01  0.3045E+02
    -11.820  0.3163E+01  0.3078E+02
    -11.726  0.1972E+01  0.3099E+02
    -11.632  0.4022E+01  0.3144E+02
    -11.538  0.1207E+01  0.3166E+02
    -11.444  0.3756E+01  0.3206E+02
    -11.350  0.3213E+01  0.3236E+02
    -11.256  0.5155E+01  0.3287E+02
    -11.162  0.1260E+01  0.3299E+02
    -11.068  0.5712E+01  0.3358E+02
    -10.973  0.1734E+01  0.3380E+02
    -10.879  0.3602E+01  0.3414E+02
    -10.785  0.3013E+01  0.3455E+02
    -10.691  0.2470E+01  0.3485E+02
    -10.597  0.1926E+01  0.3519E+02
    -10.503  0.4368E+01  0.3561E+02
    -10.409  0.3322E+01  0.3602E+02
    -10.315  0.4083E+01  0.3650E+02
    -10.221  0.8338E+01  0.3731E+02
    -10.127  0.4086E+01  0.3775E+02
    -10.033  0.7436E+01  0.3853E+02
     -9.939  0.4087E+01  0.3906E+02
     -9.845  0.6415E+01  0.3974E+02
     -9.750  0.5584E+01  0.4040E+02
     -9.656  0.4141E+01  0.4095E+02
     -9.562  0.7548E+01  0.4189E+02
     -9.468  0.5014E+01  0.4244E+02
     -9.374  0.6985E+01  0.4327E+02
     -9.280  0.9122E+01  0.4419E+02
     -9.186  0.6459E+01  0.4492E+02
     -9.092  0.9568E+01  0.4603E+02
     -8.998  0.9482E+01  0.4701E+02
     -8.904  0.5883E+01  0.4767E+02
     -8.810  0.7044E+01  0.4845E+02
     -8.716  0.5025E+01  0.4907E+02
     -8.621  0.7616E+01  0.4986E+02
     -8.527  0.4995E+01  0.5038E+02
     -8.433  0.6927E+01  0.5114E+02
     -8.339  0.5165E+01  0.5173E+02
     -8.245  0.5165E+01  0.5233E+02
     -8.151  0.4784E+01  0.5289E+02
     -8.057  0.6183E+01  0.5354E+02
     -7.963  0.3190E+01  0.5404E+02
     -7.869  0.6354E+01  0.5470E+02
     -7.775  0.2895E+01  0.5510E+02
     -7.681  0.4804E+01  0.5568E+02
     -7.587  0.5783E+01  0.5625E+02
     -7.493  0.4394E+01  0.5675E+02
     -7.398  0.5065E+01  0.5727E+02
     -7.304  0.4664E+01  0.5783E+02
     -7.210  0.4489E+01  0.5831E+02
     -7.116  0.3248E+01  0.5875E+02
     -7.022  0.5716E+01  0.5943E+02
     -6.928  0.2254E+01  0.5968E+02
     -6.834  0.5938E+01  0.6039E+02
     -6.740  0.2712E+01  0.6070E+02
     -6.646  0.5503E+01  0.6130E+02
     -6.552  0.3397E+01  0.6174E+02
     -6.458  0.4100E+01  0.6216E+02
     -6.364  0.6074E+01  0.6278E+02
     -6.270  0.2812E+01  0.6311E+02
     -6.175  0.3823E+01  0.6356E+02
     -6.081  0.5779E+01  0.6414E+02
     -5.987  0.4411E+01  0.6459E+02
     -5.893  0.3621E+01  0.6496E+02
     -5.799  0.5135E+01  0.6553E+02
     -5.705  0.3371E+01  0.6587E+02
     -5.611  0.2895E+01  0.6614E+02
     -5.517  0.3332E+01  0.6651E+02
     -5.423  0.1927E+01  0.6682E+02
     -5.329  0.2949E+01  0.6715E+02
     -5.235  0.3925E+01  0.6763E+02
     -5.141  0.3041E+01  0.6796E+02
     -5.047  0.4952E+01  0.6851E+02
     -4.952  0.5159E+01  0.6908E+02
     -4.858  0.1129E+01  0.6919E+02
     -4.764  0.5889E+01  0.6974E+02
     -4.670  0.5839E+00  0.6984E+02
     -4.576  0.1611E+01  0.7000E+02
     -4.482  0.3358E+01  0.7038E+02
     -4.388  0.8676E+00  0.7049E+02
     -4.294  0.1742E+01  0.7066E+02
     -4.200  0.2406E+01  0.7090E+02
     -4.106  0.8674E+00  0.7098E+02
     -4.012  0.1668E+01  0.7114E+02
     -3.918  0.1688E+01  0.7131E+02
     -3.824  0.7975E+00  0.7139E+02
     -3.729  0.7030E+00  0.7146E+02
     -3.635  0.5733E+00  0.7158E+02
     -3.541  0.6030E+00  0.7164E+02
     -3.447  0.9018E+00  0.7175E+02
     -3.353  0.5294E+00  0.7182E+02
     -3.259  0.1740E-02  0.7183E+02
     -3.165  0.8676E+00  0.7191E+02
     -3.071  0.2876E+00  0.7194E+02
     -2.977  0.3726E+00  0.7197E+02
     -2.883  0.0000E+00  0.7199E+02
     -2.789  0.0000E+00  0.7199E+02
     -2.695  0.1928E+00  0.7201E+02
     -2.601  0.0000E+00  0.7201E+02
     -2.506  0.1288E-07  0.7201E+02
     -2.412  0.5785E+00  0.7206E+02
     -2.318  0.1469E-01  0.7206E+02
     -2.224  0.4350E+00  0.7212E+02
     -2.130  0.4932E-04  0.7217E+02
     -2.036  0.5784E+00  0.7223E+02
     -1.942  0.1431E+01  0.7236E+02
     -1.848  0.5785E+00  0.7242E+02
     -1.754  0.8804E+00  0.7250E+02
     -1.660  0.1410E+01  0.7269E+02
     -1.566  0.5786E+00  0.7274E+02
     -1.472  0.2222E+01  0.7295E+02
     -1.377  0.1444E+01  0.7315E+02
     -1.283  0.8510E+00  0.7323E+02
     -1.189  0.5034E+01  0.7371E+02
     -1.095  0.2510E+01  0.7396E+02
     -1.001  0.6418E+01  0.7459E+02
     -0.907  0.4721E+01  0.7519E+02
     -0.813  0.3479E+01  0.7552E+02
     -0.719  0.3024E+01  0.7585E+02
     -0.625  0.3686E+01  0.7627E+02
     -0.531  0.1514E+01  0.7649E+02
     -0.437  0.2366E+01  0.7676E+02
     -0.343  0.3910E+01  0.7717E+02
     -0.249  0.1492E+01  0.7732E+02
     -0.154  0.2653E+01  0.7759E+02
     -0.060  0.2227E+01  0.7785E+02
      0.034  0.2335E+01  0.7813E+02
      0.128  0.1317E+01  0.7828E+02
      0.222  0.2029E+01  0.7851E+02
      0.316  0.2940E+01  0.7879E+02
      0.410  0.1735E+01  0.7900E+02
      0.504  0.1496E+01  0.7914E+02
      0.598  0.4466E+01  0.7959E+02
      0.692  0.3578E+01  0.7994E+02
      0.786  0.3972E+01  0.8036E+02
      0.880  0.3242E+01  0.8067E+02
      0.974  0.4342E+01  0.8113E+02
      1.069  0.3450E+01  0.8145E+02
      1.163  0.3750E+01  0.8189E+02
      1.257  0.2859E+01  0.8221E+02
      1.351  0.3777E+01  0.8268E+02
      1.445  0.4809E+01  0.8325E+02
      1.539  0.4489E+01  0.8368E+02
      1.633  0.6072E+01  0.8435E+02
      1.727  0.5424E+01  0.8488E+02
      1.821  0.6421E+01  0.8566E+02
      1.915  0.6001E+01  0.8633E+02
      2.009  0.6909E+01  0.8719E+02
      2.103  0.5411E+01  0.8785E+02
      2.197  0.5728E+01  0.8848E+02
      2.292  0.7753E+01  0.8930E+02
      2.386  0.6263E+01  0.9005E+02
      2.480  0.5602E+01  0.9070E+02
      2.574  0.7139E+01  0.9144E+02
      2.668  0.9145E+01  0.9234E+02
      2.762  0.6745E+01  0.9307E+02
      2.856  0.5848E+01  0.9381E+02
      2.950  0.5838E+01  0.9445E+02
      3.044  0.5485E+01  0.9509E+02
      3.138  0.4384E+01  0.9556E+02
      3.232  0.2949E+01  0.9586E+02
      3.326  0.4819E+00  0.9595E+02
      3.420  0.2892E+00  0.9600E+02
      3.515  0.0000E+00  0.9600E+02
      3.609  0.0000E+00  0.9600E+02
      3.703  0.0000E+00  0.9600E+02
      3.797  0.0000E+00  0.9600E+02
      3.891  0.0000E+00  0.9600E+02
      3.985  0.0000E+00  0.9600E+02
      4.079  0.0000E+00  0.9600E+02
      4.173  0.0000E+00  0.9600E+02
      4.267  0.0000E+00  0.9600E+02
      4.361  0.0000E+00  0.9600E+02
      4.455  0.0000E+00  0.9600E+02
      4.549  0.0000E+00  0.9600E+02
      4.644  0.0000E+00  0.9600E+02
