       N       E                     dE             d eps       ncg     rms          rms(c)
DAV:   1     0.803885092947E+03    0.80389E+03   -0.30363E+04 21300   0.153E+03
DAV:   2    -0.244705007425E+02   -0.82836E+03   -0.78824E+03 36336   0.285E+02
DAV:   3    -0.172428340948E+03   -0.14796E+03   -0.14728E+03 25248   0.131E+02
DAV:   4    -0.177752413156E+03   -0.53241E+01   -0.53059E+01 25704   0.325E+01
DAV:   5    -0.177918957763E+03   -0.16654E+00   -0.16627E+00 29388   0.540E+00    0.167E+01
DAV:   6    -0.169495665930E+03    0.84233E+01   -0.80233E+00 24792   0.104E+01    0.884E+00
DAV:   7    -0.166262124996E+03    0.32335E+01   -0.95100E+00 26148   0.112E+01    0.152E+00
DAV:   8    -0.166183253554E+03    0.78871E-01   -0.19432E-01 27732   0.175E+00    0.272E-01
DAV:   9    -0.166158316091E+03    0.24937E-01   -0.22603E-02 24912   0.494E-01    0.208E-01
DAV:  10    -0.166122993634E+03    0.35322E-01   -0.14576E-02 23184   0.343E-01    0.129E-01
DAV:  11    -0.166109915595E+03    0.13078E-01   -0.13657E-02 21720   0.336E-01    0.127E-01
DAV:  12    -0.166126451364E+03   -0.16536E-01   -0.22147E-02 21420   0.509E-01    0.178E-01
DAV:  13    -0.166124033337E+03    0.24180E-02   -0.39173E-03 23544   0.207E-01    0.661E-02
DAV:  14    -0.166124935654E+03   -0.90232E-03   -0.53232E-03 21900   0.248E-01    0.106E-01
DAV:  15    -0.166126255570E+03   -0.13199E-02   -0.30274E-03 21696   0.194E-01    0.508E-02
DAV:  16    -0.166127938235E+03   -0.16827E-02   -0.69100E-04 21420   0.890E-02    0.224E-02
DAV:  17    -0.166129704785E+03   -0.17666E-02   -0.34334E-04 21528   0.682E-02    0.207E-02
DAV:  18    -0.166130045566E+03   -0.34078E-03   -0.13654E-04 21456   0.358E-02    0.281E-03
DAV:  19    -0.166130224381E+03   -0.17882E-03   -0.30608E-06 22176   0.746E-03    0.189E-03
DAV:  20    -0.166130275255E+03   -0.50874E-04   -0.63886E-07 21756   0.350E-03    0.681E-04
DAV:  21    -0.166130282420E+03   -0.71657E-05   -0.95136E-08 24132   0.115E-03    0.185E-04
DAV:  22    -0.166130286401E+03   -0.39801E-05   -0.34080E-08 22560   0.523E-04    0.129E-04
DAV:  23    -0.166130287105E+03   -0.70404E-06   -0.48539E-09 20688   0.228E-04    0.224E-05
DAV:  24    -0.166130287251E+03   -0.14656E-06   -0.32000E-10 15612   0.944E-05    0.225E-05
DAV:  25    -0.166130287277E+03   -0.25863E-07    0.14468E-11 15144   0.526E-05    0.379E-06
DAV:  26    -0.166130287280E+03   -0.34415E-08    0.18968E-10 15108   0.269E-05
   1 F= -.16613029E+03 E0= -.16613026E+03  d E =-.449845E-04
