 vasp.5.4.4.18Apr17-6-g9f103f2a35 (build May 31 2018 21:15:54) complex          
  
 executed on          c7_intel_O1 date 2020.08.11  21:53:21
 running on   36 total cores
 distrk:  each k-point on   36 cores,    1 groups
 distr:  one band on NCORES_PER_BAND=   6 cores,    6 groups


--------------------------------------------------------------------------------------------------------


 INCAR:
 POTCAR:   PAW_PBE C 08Apr2002                    
 POTCAR:   PAW_PBE C 08Apr2002                    
   VRHFIN =C: s2p2                                                              
   LEXCH  = PE                                                                  
   EATOM  =   147.1560 eV,   10.8157 Ry                                         
                                                                                
   TITEL  = PAW_PBE C 08Apr2002                                                 
   LULTRA =        F    use ultrasoft PP ?                                      
   IUNSCR =        0    unscreen: 0-lin 1-nonlin 2-no                           
   RPACOR =     .000    partial core radius                                     
   POMASS =   12.011; ZVAL   =    4.000    mass and valenz                      
   RCORE  =    1.500    outmost cutoff radius                                   
   RWIGS  =    1.630; RWIGS  =     .863    wigner-seitz radius (au A)           
   ENMAX  =  400.000; ENMIN  =  300.000 eV                                      
   ICORE  =        2    local potential                                         
   LCOR   =        T    correct aug charges                                     
   LPAW   =        T    paw PP                                                  
   EAUG   =  644.873                                                            
   DEXC   =     .000                                                            
   RMAX   =    2.266    core radius for proj-oper                               
   RAUG   =    1.300    factor for augmentation sphere                          
   RDEP   =    1.501    radius for radial grids                                 
   RDEPT  =    1.300    core radius for aug-charge                              
   QCUT   =   -5.516; QGAM   =   11.032    optimization parameters              
                                                                                
   Description                                                                  
     l     E      TYP  RCUT    TYP  RCUT                                        
     0   .000     23  1.200                                                     
     0   .000     23  1.200                                                     
     1   .000     23  1.500                                                     
     1  2.500     23  1.500                                                     
     2   .000      7  1.500                                                     
  local pseudopotential read in
  atomic valenz-charges read in
  non local Contribution for L=           0  read in
    real space projection operators read in
  non local Contribution for L=           0  read in
    real space projection operators read in
  non local Contribution for L=           1  read in
    real space projection operators read in
  non local Contribution for L=           1  read in
    real space projection operators read in
    PAW grid and wavefunctions read in
 
   number of l-projection  operators is LMAX  =           4
   number of lm-projection operators is LMMAX =           8
 

 ----------------------------------------------------------------------------- 
|                                                                             |
|  ADVICE TO THIS USER RUNNING 'VASP/VAMP'   (HEAR YOUR MASTER'S VOICE ...):  |
|                                                                             |
|      You have a (more or less) 'large supercell' and for larger cells       |
|      it might be more efficient to use real space projection operators      |
|      So try LREAL= Auto  in the INCAR   file.                               |
|      Mind: If you want to do a very accurate calculations keep the          |
|      reciprocal projection scheme          (i.e. LREAL=.FALSE.)             |
|                                                                             |
 ----------------------------------------------------------------------------- 

 PAW_PBE C 08Apr2002                    :
 energy of atom  1       EATOM= -147.1560
 kinetic energy error for atom=    0.0016 (will be added to EATOM!!)
 
 
 POSCAR: generated by phonopy                    
  positions in direct lattice
  No initial velocities read in
 exchange correlation table for  LEXCH =        8
   RHO(1)=    0.500       N(1)  =     2000
   RHO(2)=  100.500       N(2)  =     4000
 


--------------------------------------------------------------------------------------------------------


 ion  position               nearest neighbor table
   1  0.000  0.000  0.000-  10 1.42  16 1.42  12 1.42
   2  0.333  0.000  0.000-  10 1.42  17 1.42  11 1.42
   3  0.667  0.000  0.000-  18 1.42  12 1.42  11 1.42
   4  0.000  0.333  0.000-  10 1.42  15 1.42  13 1.42
   5  0.333  0.333  0.000-  11 1.42  13 1.42  14 1.42
   6  0.667  0.333  0.000-  12 1.42  15 1.42  14 1.42
   7  0.000  0.667  0.000-  18 1.42  16 1.42  13 1.42
   8  0.333  0.667  0.000-  16 1.42  17 1.42  14 1.42
   9  0.667  0.667  0.000-  18 1.42  17 1.42  15 1.42
  10  0.111  0.111  0.000-   1 1.42   2 1.42   4 1.42
  11  0.444  0.111  0.000-   5 1.42   2 1.42   3 1.42
  12  0.778  0.111  0.000-   6 1.42   3 1.42   1 1.42
  13  0.111  0.444  0.000-   5 1.42   4 1.42   7 1.42
  14  0.444  0.444  0.000-   5 1.42   6 1.42   8 1.42
  15  0.778  0.444  0.000-   4 1.42   6 1.42   9 1.42
  16  0.111  0.778  0.000-   8 1.42   7 1.42   1 1.42
  17  0.444  0.778  0.000-   2 1.42   8 1.42   9 1.42
  18  0.778  0.778  0.000-   7 1.42   3 1.42   9 1.42
 
  LATTYP: Found a hexagonal cell.
 ALAT       =     7.3785360000
 C/A-ratio  =     2.7105648058
  
  Lattice vectors:
  
 A1 = (   0.0000000000,  -7.3785360000,   0.0000000000)
 A2 = (  -6.3900000000,   3.6892680000,   0.0000000000)
 A3 = (   0.0000000000,   0.0000000000, -20.0000000000)


Analysis of symmetry for initial positions (statically):
=====================================================================
 Subroutine PRICEL returns:
 Original cell was already a primitive cell.
 

 Routine SETGRP: Setting up the symmetry group for a 
 hexagonal supercell.


 Subroutine GETGRP returns: Found  1 space group operations
 (whereof  1 operations were pure point group operations)
 out of a pool of 24 trial point group operations.


The static configuration has the point symmetry C_1 .


Analysis of symmetry for dynamics (positions and initial velocities):
=====================================================================
 Subroutine PRICEL returns:
 Original cell was already a primitive cell.
 

 Routine SETGRP: Setting up the symmetry group for a 
 hexagonal supercell.


 Subroutine GETGRP returns: Found  1 space group operations
 (whereof  1 operations were pure point group operations)
 out of a pool of 24 trial point group operations.


The dynamic configuration has the point symmetry C_1 .


 Subroutine INISYM returns: Found  1 space group operations
 (whereof  1 operations are pure point group operations),
 and found     1 'primitive' translations

 
 
 KPOINTS: C-2                                     

Automatic generation of k-mesh.
Space group operators:
 irot       det(A)        alpha          n_x          n_y          n_z        tau_x        tau_y        tau_z
    1     1.000000     0.000000     1.000000     0.000000     0.000000     0.000000     0.000000     0.000000
 
 Subroutine IBZKPT returns following result:
 ===========================================
 
 Found    221 irreducible k-points:
 
 Following reciprocal coordinates:
            Coordinates               Weight
  0.000000  0.000000  0.000000      1.000000
  0.047619  0.000000  0.000000      2.000000
  0.095238  0.000000  0.000000      2.000000
  0.142857  0.000000  0.000000      2.000000
  0.190476  0.000000  0.000000      2.000000
  0.238095  0.000000  0.000000      2.000000
  0.285714  0.000000  0.000000      2.000000
  0.333333  0.000000  0.000000      2.000000
  0.380952  0.000000  0.000000      2.000000
  0.428571  0.000000  0.000000      2.000000
  0.476190  0.000000  0.000000      2.000000
  0.000000  0.047619  0.000000      2.000000
  0.047619  0.047619  0.000000      2.000000
  0.095238  0.047619  0.000000      2.000000
  0.142857  0.047619  0.000000      2.000000
  0.190476  0.047619  0.000000      2.000000
  0.238095  0.047619  0.000000      2.000000
  0.285714  0.047619  0.000000      2.000000
  0.333333  0.047619  0.000000      2.000000
  0.380952  0.047619  0.000000      2.000000
  0.428571  0.047619  0.000000      2.000000
  0.476190  0.047619  0.000000      2.000000
 -0.476190  0.047619  0.000000      2.000000
 -0.428571  0.047619  0.000000      2.000000
 -0.380952  0.047619  0.000000      2.000000
 -0.333333  0.047619  0.000000      2.000000
 -0.285714  0.047619  0.000000      2.000000
 -0.238095  0.047619  0.000000      2.000000
 -0.190476  0.047619  0.000000      2.000000
 -0.142857  0.047619  0.000000      2.000000
 -0.095238  0.047619  0.000000      2.000000
 -0.047619  0.047619  0.000000      2.000000
  0.000000  0.095238  0.000000      2.000000
  0.047619  0.095238  0.000000      2.000000
  0.095238  0.095238  0.000000      2.000000
  0.142857  0.095238  0.000000      2.000000
  0.190476  0.095238  0.000000      2.000000
  0.238095  0.095238  0.000000      2.000000
  0.285714  0.095238  0.000000      2.000000
  0.333333  0.095238  0.000000      2.000000
  0.380952  0.095238  0.000000      2.000000
  0.428571  0.095238  0.000000      2.000000
  0.476190  0.095238  0.000000      2.000000
 -0.476190  0.095238  0.000000      2.000000
 -0.428571  0.095238  0.000000      2.000000
 -0.380952  0.095238  0.000000      2.000000
 -0.333333  0.095238  0.000000      2.000000
 -0.285714  0.095238  0.000000      2.000000
 -0.238095  0.095238  0.000000      2.000000
 -0.190476  0.095238  0.000000      2.000000
 -0.142857  0.095238  0.000000      2.000000
 -0.095238  0.095238  0.000000      2.000000
 -0.047619  0.095238  0.000000      2.000000
  0.000000  0.142857  0.000000      2.000000
  0.047619  0.142857  0.000000      2.000000
  0.095238  0.142857  0.000000      2.000000
  0.142857  0.142857  0.000000      2.000000
  0.190476  0.142857  0.000000      2.000000
  0.238095  0.142857  0.000000      2.000000
  0.285714  0.142857  0.000000      2.000000
  0.333333  0.142857  0.000000      2.000000
  0.380952  0.142857  0.000000      2.000000
  0.428571  0.142857  0.000000      2.000000
  0.476190  0.142857  0.000000      2.000000
 -0.476190  0.142857  0.000000      2.000000
 -0.428571  0.142857  0.000000      2.000000
 -0.380952  0.142857  0.000000      2.000000
 -0.333333  0.142857  0.000000      2.000000
 -0.285714  0.142857  0.000000      2.000000
 -0.238095  0.142857  0.000000      2.000000
 -0.190476  0.142857  0.000000      2.000000
 -0.142857  0.142857  0.000000      2.000000
 -0.095238  0.142857  0.000000      2.000000
 -0.047619  0.142857  0.000000      2.000000
  0.000000  0.190476  0.000000      2.000000
  0.047619  0.190476  0.000000      2.000000
  0.095238  0.190476  0.000000      2.000000
  0.142857  0.190476  0.000000      2.000000
  0.190476  0.190476  0.000000      2.000000
  0.238095  0.190476  0.000000      2.000000
  0.285714  0.190476  0.000000      2.000000
  0.333333  0.190476  0.000000      2.000000
  0.380952  0.190476  0.000000      2.000000
  0.428571  0.190476  0.000000      2.000000
  0.476190  0.190476  0.000000      2.000000
 -0.476190  0.190476  0.000000      2.000000
 -0.428571  0.190476  0.000000      2.000000
 -0.380952  0.190476  0.000000      2.000000
 -0.333333  0.190476  0.000000      2.000000
 -0.285714  0.190476  0.000000      2.000000
 -0.238095  0.190476  0.000000      2.000000
 -0.190476  0.190476  0.000000      2.000000
 -0.142857  0.190476  0.000000      2.000000
 -0.095238  0.190476  0.000000      2.000000
 -0.047619  0.190476  0.000000      2.000000
  0.000000  0.238095  0.000000      2.000000
  0.047619  0.238095  0.000000      2.000000
  0.095238  0.238095  0.000000      2.000000
  0.142857  0.238095  0.000000      2.000000
  0.190476  0.238095  0.000000      2.000000
  0.238095  0.238095  0.000000      2.000000
  0.285714  0.238095  0.000000      2.000000
  0.333333  0.238095  0.000000      2.000000
  0.380952  0.238095  0.000000      2.000000
  0.428571  0.238095  0.000000      2.000000
  0.476190  0.238095  0.000000      2.000000
 -0.476190  0.238095  0.000000      2.000000
 -0.428571  0.238095  0.000000      2.000000
 -0.380952  0.238095  0.000000      2.000000
 -0.333333  0.238095  0.000000      2.000000
 -0.285714  0.238095  0.000000      2.000000
 -0.238095  0.238095  0.000000      2.000000
 -0.190476  0.238095  0.000000      2.000000
 -0.142857  0.238095  0.000000      2.000000
 -0.095238  0.238095  0.000000      2.000000
 -0.047619  0.238095  0.000000      2.000000
  0.000000  0.285714  0.000000      2.000000
  0.047619  0.285714  0.000000      2.000000
  0.095238  0.285714  0.000000      2.000000
  0.142857  0.285714  0.000000      2.000000
  0.190476  0.285714  0.000000      2.000000
  0.238095  0.285714  0.000000      2.000000
  0.285714  0.285714  0.000000      2.000000
  0.333333  0.285714  0.000000      2.000000
  0.380952  0.285714  0.000000      2.000000
  0.428571  0.285714  0.000000      2.000000
  0.476190  0.285714  0.000000      2.000000
 -0.476190  0.285714  0.000000      2.000000
 -0.428571  0.285714  0.000000      2.000000
 -0.380952  0.285714  0.000000      2.000000
 -0.333333  0.285714  0.000000      2.000000
 -0.285714  0.285714  0.000000      2.000000
 -0.238095  0.285714  0.000000      2.000000
 -0.190476  0.285714  0.000000      2.000000
 -0.142857  0.285714  0.000000      2.000000
 -0.095238  0.285714  0.000000      2.000000
 -0.047619  0.285714  0.000000      2.000000
  0.000000  0.333333  0.000000      2.000000
  0.047619  0.333333  0.000000      2.000000
  0.095238  0.333333  0.000000      2.000000
  0.142857  0.333333  0.000000      2.000000
  0.190476  0.333333  0.000000      2.000000
  0.238095  0.333333  0.000000      2.000000
  0.285714  0.333333  0.000000      2.000000
  0.333333  0.333333  0.000000      2.000000
  0.380952  0.333333  0.000000      2.000000
  0.428571  0.333333  0.000000      2.000000
  0.476190  0.333333  0.000000      2.000000
 -0.476190  0.333333  0.000000      2.000000
 -0.428571  0.333333  0.000000      2.000000
 -0.380952  0.333333  0.000000      2.000000
 -0.333333  0.333333  0.000000      2.000000
 -0.285714  0.333333  0.000000      2.000000
 -0.238095  0.333333  0.000000      2.000000
 -0.190476  0.333333  0.000000      2.000000
 -0.142857  0.333333  0.000000      2.000000
 -0.095238  0.333333  0.000000      2.000000
 -0.047619  0.333333  0.000000      2.000000
  0.000000  0.380952  0.000000      2.000000
  0.047619  0.380952  0.000000      2.000000
  0.095238  0.380952  0.000000      2.000000
  0.142857  0.380952  0.000000      2.000000
  0.190476  0.380952  0.000000      2.000000
  0.238095  0.380952  0.000000      2.000000
  0.285714  0.380952  0.000000      2.000000
  0.333333  0.380952  0.000000      2.000000
  0.380952  0.380952  0.000000      2.000000
  0.428571  0.380952  0.000000      2.000000
  0.476190  0.380952  0.000000      2.000000
 -0.476190  0.380952  0.000000      2.000000
 -0.428571  0.380952  0.000000      2.000000
 -0.380952  0.380952  0.000000      2.000000
 -0.333333  0.380952  0.000000      2.000000
 -0.285714  0.380952  0.000000      2.000000
 -0.238095  0.380952  0.000000      2.000000
 -0.190476  0.380952  0.000000      2.000000
 -0.142857  0.380952  0.000000      2.000000
 -0.095238  0.380952  0.000000      2.000000
 -0.047619  0.380952  0.000000      2.000000
  0.000000  0.428571  0.000000      2.000000
  0.047619  0.428571  0.000000      2.000000
  0.095238  0.428571  0.000000      2.000000
  0.142857  0.428571  0.000000      2.000000
  0.190476  0.428571  0.000000      2.000000
  0.238095  0.428571  0.000000      2.000000
  0.285714  0.428571  0.000000      2.000000
  0.333333  0.428571  0.000000      2.000000
  0.380952  0.428571  0.000000      2.000000
  0.428571  0.428571  0.000000      2.000000
  0.476190  0.428571  0.000000      2.000000
 -0.476190  0.428571  0.000000      2.000000
 -0.428571  0.428571  0.000000      2.000000
 -0.380952  0.428571  0.000000      2.000000
 -0.333333  0.428571  0.000000      2.000000
 -0.285714  0.428571  0.000000      2.000000
 -0.238095  0.428571  0.000000      2.000000
 -0.190476  0.428571  0.000000      2.000000
 -0.142857  0.428571  0.000000      2.000000
 -0.095238  0.428571  0.000000      2.000000
 -0.047619  0.428571  0.000000      2.000000
  0.000000  0.476190  0.000000      2.000000
  0.047619  0.476190  0.000000      2.000000
  0.095238  0.476190  0.000000      2.000000
  0.142857  0.476190  0.000000      2.000000
  0.190476  0.476190  0.000000      2.000000
  0.238095  0.476190  0.000000      2.000000
  0.285714  0.476190  0.000000      2.000000
  0.333333  0.476190  0.000000      2.000000
  0.380952  0.476190  0.000000      2.000000
  0.428571  0.476190  0.000000      2.000000
  0.476190  0.476190  0.000000      2.000000
 -0.476190  0.476190  0.000000      2.000000
 -0.428571  0.476190  0.000000      2.000000
 -0.380952  0.476190  0.000000      2.000000
 -0.333333  0.476190  0.000000      2.000000
 -0.285714  0.476190  0.000000      2.000000
 -0.238095  0.476190  0.000000      2.000000
 -0.190476  0.476190  0.000000      2.000000
 -0.142857  0.476190  0.000000      2.000000
 -0.095238  0.476190  0.000000      2.000000
 -0.047619  0.476190  0.000000      2.000000
 
 Following cartesian coordinates:
            Coordinates               Weight
  0.000000  0.000000  0.000000      1.000000
  0.003726 -0.006454  0.000000      2.000000
  0.007452 -0.012907  0.000000      2.000000
  0.011178 -0.019361  0.000000      2.000000
  0.014904 -0.025815  0.000000      2.000000
  0.018630 -0.032269  0.000000      2.000000
  0.022356 -0.038722  0.000000      2.000000
  0.026082 -0.045176  0.000000      2.000000
  0.029808 -0.051630  0.000000      2.000000
  0.033535 -0.058084  0.000000      2.000000
  0.037261 -0.064537  0.000000      2.000000
  0.003726  0.006454  0.000000      2.000000
  0.007452 -0.000000  0.000000      2.000000
  0.011178 -0.006454  0.000000      2.000000
  0.014904 -0.012907  0.000000      2.000000
  0.018630 -0.019361  0.000000      2.000000
  0.022356 -0.025815  0.000000      2.000000
  0.026082 -0.032269  0.000000      2.000000
  0.029808 -0.038722  0.000000      2.000000
  0.033535 -0.045176  0.000000      2.000000
  0.037261 -0.051630  0.000000      2.000000
  0.040987 -0.058084  0.000000      2.000000
 -0.033535  0.070991  0.000000      2.000000
 -0.029808  0.064537  0.000000      2.000000
 -0.026082  0.058084  0.000000      2.000000
 -0.022356  0.051630  0.000000      2.000000
 -0.018630  0.045176  0.000000      2.000000
 -0.014904  0.038722  0.000000      2.000000
 -0.011178  0.032269  0.000000      2.000000
 -0.007452  0.025815  0.000000      2.000000
 -0.003726  0.019361  0.000000      2.000000
  0.000000  0.012907  0.000000      2.000000
  0.007452  0.012907  0.000000      2.000000
  0.011178  0.006454  0.000000      2.000000
  0.014904 -0.000000  0.000000      2.000000
  0.018630 -0.006454  0.000000      2.000000
  0.022356 -0.012907  0.000000      2.000000
  0.026082 -0.019361  0.000000      2.000000
  0.029808 -0.025815  0.000000      2.000000
  0.033535 -0.032269  0.000000      2.000000
  0.037261 -0.038722  0.000000      2.000000
  0.040987 -0.045176  0.000000      2.000000
  0.044713 -0.051630  0.000000      2.000000
 -0.029808  0.077445  0.000000      2.000000
 -0.026082  0.070991  0.000000      2.000000
 -0.022356  0.064537  0.000000      2.000000
 -0.018630  0.058084  0.000000      2.000000
 -0.014904  0.051630  0.000000      2.000000
 -0.011178  0.045176  0.000000      2.000000
 -0.007452  0.038722  0.000000      2.000000
 -0.003726  0.032269  0.000000      2.000000
  0.000000  0.025815  0.000000      2.000000
  0.003726  0.019361  0.000000      2.000000
  0.011178  0.019361  0.000000      2.000000
  0.014904  0.012907  0.000000      2.000000
  0.018630  0.006454  0.000000      2.000000
  0.022356  0.000000  0.000000      2.000000
  0.026082 -0.006454  0.000000      2.000000
  0.029808 -0.012907  0.000000      2.000000
  0.033535 -0.019361  0.000000      2.000000
  0.037261 -0.025815  0.000000      2.000000
  0.040987 -0.032269  0.000000      2.000000
  0.044713 -0.038722  0.000000      2.000000
  0.048439 -0.045176  0.000000      2.000000
 -0.026082  0.083898  0.000000      2.000000
 -0.022356  0.077445  0.000000      2.000000
 -0.018630  0.070991  0.000000      2.000000
 -0.014904  0.064537  0.000000      2.000000
 -0.011178  0.058084  0.000000      2.000000
 -0.007452  0.051630  0.000000      2.000000
 -0.003726  0.045176  0.000000      2.000000
  0.000000  0.038722  0.000000      2.000000
  0.003726  0.032269  0.000000      2.000000
  0.007452  0.025815  0.000000      2.000000
  0.014904  0.025815  0.000000      2.000000
  0.018630  0.019361  0.000000      2.000000
  0.022356  0.012907  0.000000      2.000000
  0.026082  0.006454  0.000000      2.000000
  0.029808  0.000000  0.000000      2.000000
  0.033535 -0.006454  0.000000      2.000000
  0.037261 -0.012907  0.000000      2.000000
  0.040987 -0.019361  0.000000      2.000000
  0.044713 -0.025815  0.000000      2.000000
  0.048439 -0.032269  0.000000      2.000000
  0.052165 -0.038722  0.000000      2.000000
 -0.022356  0.090352  0.000000      2.000000
 -0.018630  0.083898  0.000000      2.000000
 -0.014904  0.077445  0.000000      2.000000
 -0.011178  0.070991  0.000000      2.000000
 -0.007452  0.064537  0.000000      2.000000
 -0.003726  0.058084  0.000000      2.000000
  0.000000  0.051630  0.000000      2.000000
  0.003726  0.045176  0.000000      2.000000
  0.007452  0.038722  0.000000      2.000000
  0.011178  0.032269  0.000000      2.000000
  0.018630  0.032269  0.000000      2.000000
  0.022356  0.025815  0.000000      2.000000
  0.026082  0.019361  0.000000      2.000000
  0.029808  0.012907  0.000000      2.000000
  0.033535  0.006454  0.000000      2.000000
  0.037261  0.000000  0.000000      2.000000
  0.040987 -0.006454  0.000000      2.000000
  0.044713 -0.012907  0.000000      2.000000
  0.048439 -0.019361  0.000000      2.000000
  0.052165 -0.025815  0.000000      2.000000
  0.055891 -0.032269  0.000000      2.000000
 -0.018630  0.096806  0.000000      2.000000
 -0.014904  0.090352  0.000000      2.000000
 -0.011178  0.083898  0.000000      2.000000
 -0.007452  0.077445  0.000000      2.000000
 -0.003726  0.070991  0.000000      2.000000
  0.000000  0.064537  0.000000      2.000000
  0.003726  0.058084  0.000000      2.000000
  0.007452  0.051630  0.000000      2.000000
  0.011178  0.045176  0.000000      2.000000
  0.014904  0.038722  0.000000      2.000000
  0.022356  0.038722  0.000000      2.000000
  0.026082  0.032269  0.000000      2.000000
  0.029808  0.025815  0.000000      2.000000
  0.033535  0.019361  0.000000      2.000000
  0.037261  0.012907  0.000000      2.000000
  0.040987  0.006454  0.000000      2.000000
  0.044713  0.000000  0.000000      2.000000
  0.048439 -0.006454  0.000000      2.000000
  0.052165 -0.012907  0.000000      2.000000
  0.055891 -0.019361  0.000000      2.000000
  0.059617 -0.025815  0.000000      2.000000
 -0.014904  0.103260  0.000000      2.000000
 -0.011178  0.096806  0.000000      2.000000
 -0.007452  0.090352  0.000000      2.000000
 -0.003726  0.083898  0.000000      2.000000
  0.000000  0.077445  0.000000      2.000000
  0.003726  0.070991  0.000000      2.000000
  0.007452  0.064537  0.000000      2.000000
  0.011178  0.058084  0.000000      2.000000
  0.014904  0.051630  0.000000      2.000000
  0.018630  0.045176  0.000000      2.000000
  0.026082  0.045176  0.000000      2.000000
  0.029808  0.038722  0.000000      2.000000
  0.033535  0.032269  0.000000      2.000000
  0.037261  0.025815  0.000000      2.000000
  0.040987  0.019361  0.000000      2.000000
  0.044713  0.012907  0.000000      2.000000
  0.048439  0.006454  0.000000      2.000000
  0.052165  0.000000  0.000000      2.000000
  0.055891 -0.006454  0.000000      2.000000
  0.059617 -0.012907  0.000000      2.000000
  0.063343 -0.019361  0.000000      2.000000
 -0.011178  0.109713  0.000000      2.000000
 -0.007452  0.103260  0.000000      2.000000
 -0.003726  0.096806  0.000000      2.000000
  0.000000  0.090352  0.000000      2.000000
  0.003726  0.083898  0.000000      2.000000
  0.007452  0.077445  0.000000      2.000000
  0.011178  0.070991  0.000000      2.000000
  0.014904  0.064537  0.000000      2.000000
  0.018630  0.058084  0.000000      2.000000
  0.022356  0.051630  0.000000      2.000000
  0.029808  0.051630  0.000000      2.000000
  0.033535  0.045176  0.000000      2.000000
  0.037261  0.038722  0.000000      2.000000
  0.040987  0.032269  0.000000      2.000000
  0.044713  0.025815  0.000000      2.000000
  0.048439  0.019361  0.000000      2.000000
  0.052165  0.012907  0.000000      2.000000
  0.055891  0.006454  0.000000      2.000000
  0.059617  0.000000  0.000000      2.000000
  0.063343 -0.006454  0.000000      2.000000
  0.067069 -0.012907  0.000000      2.000000
 -0.007452  0.116167  0.000000      2.000000
 -0.003726  0.109713  0.000000      2.000000
  0.000000  0.103260  0.000000      2.000000
  0.003726  0.096806  0.000000      2.000000
  0.007452  0.090352  0.000000      2.000000
  0.011178  0.083898  0.000000      2.000000
  0.014904  0.077445  0.000000      2.000000
  0.018630  0.070991  0.000000      2.000000
  0.022356  0.064537  0.000000      2.000000
  0.026082  0.058084  0.000000      2.000000
  0.033535  0.058084  0.000000      2.000000
  0.037261  0.051630  0.000000      2.000000
  0.040987  0.045176  0.000000      2.000000
  0.044713  0.038722  0.000000      2.000000
  0.048439  0.032269  0.000000      2.000000
  0.052165  0.025815  0.000000      2.000000
  0.055891  0.019361  0.000000      2.000000
  0.059617  0.012907  0.000000      2.000000
  0.063343  0.006454  0.000000      2.000000
  0.067069  0.000000  0.000000      2.000000
  0.070795 -0.006454  0.000000      2.000000
 -0.003726  0.122621  0.000000      2.000000
  0.000000  0.116167  0.000000      2.000000
  0.003726  0.109713  0.000000      2.000000
  0.007452  0.103260  0.000000      2.000000
  0.011178  0.096806  0.000000      2.000000
  0.014904  0.090352  0.000000      2.000000
  0.018630  0.083898  0.000000      2.000000
  0.022356  0.077445  0.000000      2.000000
  0.026082  0.070991  0.000000      2.000000
  0.029808  0.064537  0.000000      2.000000
  0.037261  0.064537  0.000000      2.000000
  0.040987  0.058084  0.000000      2.000000
  0.044713  0.051630  0.000000      2.000000
  0.048439  0.045176  0.000000      2.000000
  0.052165  0.038722  0.000000      2.000000
  0.055891  0.032269  0.000000      2.000000
  0.059617  0.025815  0.000000      2.000000
  0.063343  0.019361  0.000000      2.000000
  0.067069  0.012907  0.000000      2.000000
  0.070795  0.006454  0.000000      2.000000
  0.074521  0.000000  0.000000      2.000000
  0.000000  0.129075  0.000000      2.000000
  0.003726  0.122621  0.000000      2.000000
  0.007452  0.116167  0.000000      2.000000
  0.011178  0.109713  0.000000      2.000000
  0.014904  0.103260  0.000000      2.000000
  0.018630  0.096806  0.000000      2.000000
  0.022356  0.090352  0.000000      2.000000
  0.026082  0.083898  0.000000      2.000000
  0.029808  0.077445  0.000000      2.000000
  0.033535  0.070991  0.000000      2.000000
 


--------------------------------------------------------------------------------------------------------




 Dimension of arrays:
   k-points           NKPTS =    221   k-points in BZ     NKDIM =    221   number of bands    NBANDS=     48
   number of dos      NEDOS =    301   number of ions     NIONS =     18
   non local maximal  LDIM  =      4   non local SUM 2l+1 LMDIM =      8
   total plane-waves  NPLWV = 940800
   max r-space proj   IRMAX =      1   max aug-charges    IRDMAX=  94377
   dimension x,y,z NGX =    70 NGY =   70 NGZ =  192
   dimension x,y,z NGXF=   140 NGYF=  140 NGZF=  384
   support grid    NGXF=   280 NGYF=  280 NGZF=  768
   ions per type =              18
   NGX,Y,Z   is equivalent  to a cutoff of  15.77, 15.77, 15.96 a.u.
   NGXF,Y,Z  is equivalent  to a cutoff of  31.54, 31.54, 31.92 a.u.

 SYSTEM =  C-2                                     
 POSCAR =  generated by phonopy                    

 Startparameter for this run:
   NWRITE =      2    write-flag & timer
   PREC   = accura    normal or accurate (medium, high low for compatibility)
   ISTART =      0    job   : 0-new  1-cont  2-samecut
   ICHARG =      2    charge: 1-file 2-atom 10-const
   ISPIN  =      1    spin polarized calculation?
   LNONCOLLINEAR =      F non collinear calculations
   LSORBIT =      F    spin-orbit coupling
   INIWAV =      1    electr: 0-lowe 1-rand  2-diag
   LASPH  =      F    aspherical Exc in radial PAW
   METAGGA=      F    non-selfconsistent MetaGGA calc.

 Electronic Relaxation 1
   ENCUT  =  800.0 eV  58.80 Ry    7.67 a.u.  17.02 17.02 46.12*2*pi/ulx,y,z
   ENINI  =  800.0     initial cutoff
   ENAUG  =  644.9 eV  augmentation charge cutoff
   NELM   =     60;   NELMIN=  5; NELMDL= -5     # of ELM steps 
   EDIFF  = 0.1E-07   stopping-criterion for ELM
   LREAL  =      F    real-space projection
   NLSPLINE    = F    spline interpolate recip. space projectors
   LCOMPAT=      F    compatible to vasp.4.4
   GGA_COMPAT  = T    GGA compatible to vasp.4.4-vasp.4.6
   LMAXPAW     = -100 max onsite density
   LMAXMIX     =    2 max onsite mixed and CHGCAR
   VOSKOWN=      0    Vosko Wilk Nusair interpolation
   ROPT   =    0.00000
 Ionic relaxation
   EDIFFG = -.1E-07   stopping-criterion for IOM
   NSW    =      0    number of steps for IOM
   NBLOCK =      1;   KBLOCK =      1    inner block; outer block 
   IBRION =     -1    ionic relax: 0-MD 1-quasi-New 2-CG
   NFREE  =      0    steps in history (QN), initial steepest desc. (CG)
   ISIF   =      2    stress and relaxation
   IWAVPR =     10    prediction:  0-non 1-charg 2-wave 3-comb
   ISYM   =      2    0-nonsym 1-usesym 2-fastsym
   LCORR  =      T    Harris-Foulkes like correction to forces

   POTIM  = 0.5000    time-step for ionic-motion
   TEIN   =    0.0    initial temperature
   TEBEG  =    0.0;   TEEND  =   0.0 temperature during run
   SMASS  =  -3.00    Nose mass-parameter (am)
   estimated Nose-frequenzy (Omega)   =  0.10E-29 period in steps =****** mass=  -0.124E-26a.u.
   SCALEE = 1.0000    scale energy and forces
   NPACO  =    256;   APACO  = 16.0  distance and # of slots for P.C.
   PSTRESS=    0.0 pullay stress

  Mass of Ions in am
   POMASS =  12.01
  Ionic Valenz
   ZVAL   =   4.00
  Atomic Wigner-Seitz radii
   RWIGS  =  -1.00
  virtual crystal weights 
   VCA    =   1.00
   NELECT =      72.0000    total number of electrons
   NUPDOWN=      -1.0000    fix difference up-down

 DOS related values:
   EMIN   =  10.00;   EMAX   =-10.00  energy-range for DOS
   EFERMI =   0.00
   ISMEAR =     0;   SIGMA  =   0.01  broadening in eV -4-tet -1-fermi 0-gaus

 Electronic relaxation 2 (details)
   IALGO  =     38    algorithm
   LDIAG  =      T    sub-space diagonalisation (order eigenvalues)
   LSUBROT=      F    optimize rotation matrix (better conditioning)
   TURBO    =      0    0=normal 1=particle mesh
   IRESTART =      0    0=no restart 2=restart with 2 vectors
   NREBOOT  =      0    no. of reboots
   NMIN     =      0    reboot dimension
   EREF     =   0.00    reference energy to select bands
   IMIX   =      4    mixing-type and parameters
     AMIX     =   0.40;   BMIX     =  1.00
     AMIX_MAG =   1.60;   BMIX_MAG =  1.00
     AMIN     =   0.01
     WC   =   100.;   INIMIX=   1;  MIXPRE=   1;  MAXMIX= -45

 Intra band minimization:
   WEIMIN = 0.0000     energy-eigenvalue tresh-hold
   EBREAK =  0.52E-11  absolut break condition
   DEPER  =   0.30     relativ break condition  

   TIME   =   0.40     timestep for ELM

  volume/ion in A,a.u.               =      52.39       353.53
  Fermi-wavevector in a.u.,A,eV,Ry     =   0.694521  1.312454  6.562896  0.482359
  Thomas-Fermi vector in A             =   1.777037
 
 Write flags
   LWAVE        =      F    write WAVECAR
   LDOWNSAMPLE  =      F    k-point downsampling of WAVECAR
   LCHARG       =      F    write CHGCAR
   LVTOT        =      F    write LOCPOT, total local potential
   LVHAR        =      F    write LOCPOT, Hartree potential only
   LELF         =      F    write electronic localiz. function (ELF)
   LORBIT       =      0    0 simple, 1 ext, 2 COOP (PROOUT), +10 PAW based schemes


 Dipole corrections
   LMONO  =      F    monopole corrections only (constant potential shift)
   LDIPOL =      F    correct potential (dipole corrections)
   IDIPOL =      0    1-x, 2-y, 3-z, 4-all directions 
   EPSILON=  1.0000000 bulk dielectric constant

 Exchange correlation treatment:
   GGA     =    --    GGA type
   LEXCH   =     8    internal setting for exchange type
   VOSKOWN=      0    Vosko Wilk Nusair interpolation
   LHFCALC =     F    Hartree Fock is set to
   LHFONE  =     F    Hartree Fock one center treatment
   AEXX    =    0.0000 exact exchange contribution

 Linear response parameters
   LEPSILON=     F    determine dielectric tensor
   LRPA    =     F    only Hartree local field effects (RPA)
   LNABLA  =     F    use nabla operator in PAW spheres
   LVEL    =     F    velocity operator in full k-point grid
   LINTERFAST=   F  fast interpolation
   KINTER  =     0    interpolate to denser k-point grid
   CSHIFT  =0.1000    complex shift for real part using Kramers Kronig
   OMEGAMAX=  -1.0    maximum frequency
   DEG_THRESHOLD= 0.2000000E-02 threshold for treating states as degnerate
   RTIME   =   -0.100 relaxation time in fs
  (WPLASMAI=    0.000 imaginary part of plasma frequency in eV, 0.658/RTIME)
   DFIELD  = 0.0000000 0.0000000 0.0000000 field for delta impulse in time
 
 Orbital magnetization related:
   ORBITALMAG=     F  switch on orbital magnetization
   LCHIMAG   =     F  perturbation theory with respect to B field
   DQ        =  0.001000  dq finite difference perturbation B field
   LLRAUG    =     F  two centre corrections for induced B field



--------------------------------------------------------------------------------------------------------


 Static calculation
 charge density and potential will be updated during run
 non-spin polarized calculation
 Variant of blocked Davidson
 Davidson routine will perform the subspace rotation
 perform sub-space diagonalisation
    after iterative eigenvector-optimisation
 modified Broyden-mixing scheme, WC =      100.0
 initial mixing is a Kerker type mixing with AMIX =  0.4000 and BMIX =      1.0000
 Hartree-type preconditioning will be used
 using additional bands           12
 reciprocal scheme for non local part
 calculate Harris-corrections to forces 
   (improved forces if not selfconsistent)
 use gradient corrections 
 use of overlap-Matrix (Vanderbilt PP)
 Gauss-broadening in eV      SIGMA  =   0.01


--------------------------------------------------------------------------------------------------------


  energy-cutoff  :      800.00
  volume of cell :      942.98
      direct lattice vectors                 reciprocal lattice vectors
     6.390000000 -3.689268000  0.000000000     0.078247261 -0.135528240  0.000000000
     6.390000000  3.689268000  0.000000000     0.078247261  0.135528240  0.000000000
     0.000000000  0.000000000 20.000000000     0.000000000  0.000000000  0.050000000

  length of vectors
     7.378536330  7.378536330 20.000000000     0.156494530  0.156494530  0.050000000


 
 k-points in units of 2pi/SCALE and weight: C-2                                     
   0.00000000 -0.00000000  0.00000000       0.002
   0.00372606 -0.00645373  0.00000000       0.005
   0.00745212 -0.01290745  0.00000000       0.005
   0.01117818 -0.01936118  0.00000000       0.005
   0.01490424 -0.02581490  0.00000000       0.005
   0.01863030 -0.03226863  0.00000000       0.005
   0.02235636 -0.03872235  0.00000000       0.005
   0.02608242 -0.04517608  0.00000000       0.005
   0.02980848 -0.05162981  0.00000000       0.005
   0.03353454 -0.05808353  0.00000000       0.005
   0.03726060 -0.06453726  0.00000000       0.005
   0.00372606  0.00645373  0.00000000       0.005
   0.00745212 -0.00000000  0.00000000       0.005
   0.01117818 -0.00645373  0.00000000       0.005
   0.01490424 -0.01290745  0.00000000       0.005
   0.01863030 -0.01936118  0.00000000       0.005
   0.02235636 -0.02581490  0.00000000       0.005
   0.02608242 -0.03226863  0.00000000       0.005
   0.02980848 -0.03872235  0.00000000       0.005
   0.03353454 -0.04517608  0.00000000       0.005
   0.03726060 -0.05162981  0.00000000       0.005
   0.04098666 -0.05808353  0.00000000       0.005
  -0.03353454  0.07099098  0.00000000       0.005
  -0.02980848  0.06453726  0.00000000       0.005
  -0.02608242  0.05808353  0.00000000       0.005
  -0.02235636  0.05162981  0.00000000       0.005
  -0.01863030  0.04517608  0.00000000       0.005
  -0.01490424  0.03872235  0.00000000       0.005
  -0.01117818  0.03226863  0.00000000       0.005
  -0.00745212  0.02581490  0.00000000       0.005
  -0.00372606  0.01936118  0.00000000       0.005
   0.00000000  0.01290745  0.00000000       0.005
   0.00745212  0.01290745  0.00000000       0.005
   0.01117818  0.00645373  0.00000000       0.005
   0.01490424 -0.00000000  0.00000000       0.005
   0.01863030 -0.00645373  0.00000000       0.005
   0.02235636 -0.01290745  0.00000000       0.005
   0.02608242 -0.01936118  0.00000000       0.005
   0.02980848 -0.02581490  0.00000000       0.005
   0.03353454 -0.03226863  0.00000000       0.005
   0.03726060 -0.03872235  0.00000000       0.005
   0.04098666 -0.04517608  0.00000000       0.005
   0.04471272 -0.05162981  0.00000000       0.005
  -0.02980848  0.07744471  0.00000000       0.005
  -0.02608242  0.07099098  0.00000000       0.005
  -0.02235636  0.06453726  0.00000000       0.005
  -0.01863030  0.05808353  0.00000000       0.005
  -0.01490424  0.05162981  0.00000000       0.005
  -0.01117818  0.04517608  0.00000000       0.005
  -0.00745212  0.03872235  0.00000000       0.005
  -0.00372606  0.03226863  0.00000000       0.005
   0.00000000  0.02581490  0.00000000       0.005
   0.00372606  0.01936118  0.00000000       0.005
   0.01117818  0.01936118  0.00000000       0.005
   0.01490424  0.01290745  0.00000000       0.005
   0.01863030  0.00645373  0.00000000       0.005
   0.02235636  0.00000000  0.00000000       0.005
   0.02608242 -0.00645373  0.00000000       0.005
   0.02980848 -0.01290745  0.00000000       0.005
   0.03353454 -0.01936118  0.00000000       0.005
   0.03726060 -0.02581490  0.00000000       0.005
   0.04098666 -0.03226863  0.00000000       0.005
   0.04471272 -0.03872235  0.00000000       0.005
   0.04843878 -0.04517608  0.00000000       0.005
  -0.02608242  0.08389843  0.00000000       0.005
  -0.02235636  0.07744471  0.00000000       0.005
  -0.01863030  0.07099098  0.00000000       0.005
  -0.01490424  0.06453726  0.00000000       0.005
  -0.01117818  0.05808353  0.00000000       0.005
  -0.00745212  0.05162981  0.00000000       0.005
  -0.00372606  0.04517608  0.00000000       0.005
   0.00000000  0.03872235  0.00000000       0.005
   0.00372606  0.03226863  0.00000000       0.005
   0.00745212  0.02581490  0.00000000       0.005
   0.01490424  0.02581490  0.00000000       0.005
   0.01863030  0.01936118  0.00000000       0.005
   0.02235636  0.01290745  0.00000000       0.005
   0.02608242  0.00645373  0.00000000       0.005
   0.02980848  0.00000000  0.00000000       0.005
   0.03353454 -0.00645373  0.00000000       0.005
   0.03726060 -0.01290745  0.00000000       0.005
   0.04098666 -0.01936118  0.00000000       0.005
   0.04471272 -0.02581490  0.00000000       0.005
   0.04843878 -0.03226863  0.00000000       0.005
   0.05216484 -0.03872235  0.00000000       0.005
  -0.02235636  0.09035216  0.00000000       0.005
  -0.01863030  0.08389843  0.00000000       0.005
  -0.01490424  0.07744471  0.00000000       0.005
  -0.01117818  0.07099098  0.00000000       0.005
  -0.00745212  0.06453726  0.00000000       0.005
  -0.00372606  0.05808353  0.00000000       0.005
   0.00000000  0.05162981  0.00000000       0.005
   0.00372606  0.04517608  0.00000000       0.005
   0.00745212  0.03872235  0.00000000       0.005
   0.01117818  0.03226863  0.00000000       0.005
   0.01863030  0.03226863  0.00000000       0.005
   0.02235636  0.02581490  0.00000000       0.005
   0.02608242  0.01936118  0.00000000       0.005
   0.02980848  0.01290745  0.00000000       0.005
   0.03353454  0.00645373  0.00000000       0.005
   0.03726060  0.00000000  0.00000000       0.005
   0.04098666 -0.00645373  0.00000000       0.005
   0.04471272 -0.01290745  0.00000000       0.005
   0.04843878 -0.01936118  0.00000000       0.005
   0.05216484 -0.02581490  0.00000000       0.005
   0.05589090 -0.03226863  0.00000000       0.005
  -0.01863030  0.09680589  0.00000000       0.005
  -0.01490424  0.09035216  0.00000000       0.005
  -0.01117818  0.08389843  0.00000000       0.005
  -0.00745212  0.07744471  0.00000000       0.005
  -0.00372606  0.07099098  0.00000000       0.005
   0.00000000  0.06453726  0.00000000       0.005
   0.00372606  0.05808353  0.00000000       0.005
   0.00745212  0.05162981  0.00000000       0.005
   0.01117818  0.04517608  0.00000000       0.005
   0.01490424  0.03872235  0.00000000       0.005
   0.02235636  0.03872235  0.00000000       0.005
   0.02608242  0.03226863  0.00000000       0.005
   0.02980848  0.02581490  0.00000000       0.005
   0.03353454  0.01936118  0.00000000       0.005
   0.03726060  0.01290745  0.00000000       0.005
   0.04098666  0.00645373  0.00000000       0.005
   0.04471272  0.00000000  0.00000000       0.005
   0.04843878 -0.00645373  0.00000000       0.005
   0.05216484 -0.01290745  0.00000000       0.005
   0.05589090 -0.01936118  0.00000000       0.005
   0.05961696 -0.02581490  0.00000000       0.005
  -0.01490424  0.10325961  0.00000000       0.005
  -0.01117818  0.09680589  0.00000000       0.005
  -0.00745212  0.09035216  0.00000000       0.005
  -0.00372606  0.08389843  0.00000000       0.005
   0.00000000  0.07744471  0.00000000       0.005
   0.00372606  0.07099098  0.00000000       0.005
   0.00745212  0.06453726  0.00000000       0.005
   0.01117818  0.05808353  0.00000000       0.005
   0.01490424  0.05162981  0.00000000       0.005
   0.01863030  0.04517608  0.00000000       0.005
   0.02608242  0.04517608  0.00000000       0.005
   0.02980848  0.03872235  0.00000000       0.005
   0.03353454  0.03226863  0.00000000       0.005
   0.03726060  0.02581490  0.00000000       0.005
   0.04098666  0.01936118  0.00000000       0.005
   0.04471272  0.01290745  0.00000000       0.005
   0.04843878  0.00645373  0.00000000       0.005
   0.05216484  0.00000000  0.00000000       0.005
   0.05589090 -0.00645373  0.00000000       0.005
   0.05961696 -0.01290745  0.00000000       0.005
   0.06334302 -0.01936118  0.00000000       0.005
  -0.01117818  0.10971334  0.00000000       0.005
  -0.00745212  0.10325961  0.00000000       0.005
  -0.00372606  0.09680589  0.00000000       0.005
   0.00000000  0.09035216  0.00000000       0.005
   0.00372606  0.08389843  0.00000000       0.005
   0.00745212  0.07744471  0.00000000       0.005
   0.01117818  0.07099098  0.00000000       0.005
   0.01490424  0.06453726  0.00000000       0.005
   0.01863030  0.05808353  0.00000000       0.005
   0.02235636  0.05162981  0.00000000       0.005
   0.02980848  0.05162981  0.00000000       0.005
   0.03353454  0.04517608  0.00000000       0.005
   0.03726060  0.03872235  0.00000000       0.005
   0.04098666  0.03226863  0.00000000       0.005
   0.04471272  0.02581490  0.00000000       0.005
   0.04843878  0.01936118  0.00000000       0.005
   0.05216484  0.01290745  0.00000000       0.005
   0.05589090  0.00645373  0.00000000       0.005
   0.05961696  0.00000000  0.00000000       0.005
   0.06334302 -0.00645373  0.00000000       0.005
   0.06706908 -0.01290745  0.00000000       0.005
  -0.00745212  0.11616706  0.00000000       0.005
  -0.00372606  0.10971334  0.00000000       0.005
   0.00000000  0.10325961  0.00000000       0.005
   0.00372606  0.09680589  0.00000000       0.005
   0.00745212  0.09035216  0.00000000       0.005
   0.01117818  0.08389843  0.00000000       0.005
   0.01490424  0.07744471  0.00000000       0.005
   0.01863030  0.07099098  0.00000000       0.005
   0.02235636  0.06453726  0.00000000       0.005
   0.02608242  0.05808353  0.00000000       0.005
   0.03353454  0.05808353  0.00000000       0.005
   0.03726060  0.05162981  0.00000000       0.005
   0.04098666  0.04517608  0.00000000       0.005
   0.04471272  0.03872235  0.00000000       0.005
   0.04843878  0.03226863  0.00000000       0.005
   0.05216484  0.02581490  0.00000000       0.005
   0.05589090  0.01936118  0.00000000       0.005
   0.05961696  0.01290745  0.00000000       0.005
   0.06334302  0.00645373  0.00000000       0.005
   0.06706908  0.00000000  0.00000000       0.005
   0.07079514 -0.00645373  0.00000000       0.005
  -0.00372606  0.12262079  0.00000000       0.005
   0.00000000  0.11616706  0.00000000       0.005
   0.00372606  0.10971334  0.00000000       0.005
   0.00745212  0.10325961  0.00000000       0.005
   0.01117818  0.09680589  0.00000000       0.005
   0.01490424  0.09035216  0.00000000       0.005
   0.01863030  0.08389843  0.00000000       0.005
   0.02235636  0.07744471  0.00000000       0.005
   0.02608242  0.07099098  0.00000000       0.005
   0.02980848  0.06453726  0.00000000       0.005
   0.03726060  0.06453726  0.00000000       0.005
   0.04098666  0.05808353  0.00000000       0.005
   0.04471272  0.05162981  0.00000000       0.005
   0.04843878  0.04517608  0.00000000       0.005
   0.05216484  0.03872235  0.00000000       0.005
   0.05589090  0.03226863  0.00000000       0.005
   0.05961696  0.02581490  0.00000000       0.005
   0.06334302  0.01936118  0.00000000       0.005
   0.06706908  0.01290745  0.00000000       0.005
   0.07079514  0.00645373  0.00000000       0.005
   0.07452120  0.00000000  0.00000000       0.005
   0.00000000  0.12907451  0.00000000       0.005
   0.00372606  0.12262079  0.00000000       0.005
   0.00745212  0.11616706  0.00000000       0.005
   0.01117818  0.10971334  0.00000000       0.005
   0.01490424  0.10325961  0.00000000       0.005
   0.01863030  0.09680589  0.00000000       0.005
   0.02235636  0.09035216  0.00000000       0.005
   0.02608242  0.08389843  0.00000000       0.005
   0.02980848  0.07744471  0.00000000       0.005
   0.03353454  0.07099098  0.00000000       0.005
 
 k-points in reciprocal lattice and weights: C-2                                     
   0.00000000  0.00000000  0.00000000       0.002
   0.04761905  0.00000000  0.00000000       0.005
   0.09523810  0.00000000  0.00000000       0.005
   0.14285714  0.00000000  0.00000000       0.005
   0.19047619  0.00000000  0.00000000       0.005
   0.23809524  0.00000000  0.00000000       0.005
   0.28571429  0.00000000  0.00000000       0.005
   0.33333333  0.00000000  0.00000000       0.005
   0.38095238  0.00000000  0.00000000       0.005
   0.42857143  0.00000000  0.00000000       0.005
   0.47619048  0.00000000  0.00000000       0.005
   0.00000000  0.04761905  0.00000000       0.005
   0.04761905  0.04761905  0.00000000       0.005
   0.09523810  0.04761905  0.00000000       0.005
   0.14285714  0.04761905  0.00000000       0.005
   0.19047619  0.04761905  0.00000000       0.005
   0.23809524  0.04761905  0.00000000       0.005
   0.28571429  0.04761905  0.00000000       0.005
   0.33333333  0.04761905  0.00000000       0.005
   0.38095238  0.04761905  0.00000000       0.005
   0.42857143  0.04761905  0.00000000       0.005
   0.47619048  0.04761905  0.00000000       0.005
  -0.47619048  0.04761905  0.00000000       0.005
  -0.42857143  0.04761905  0.00000000       0.005
  -0.38095238  0.04761905  0.00000000       0.005
  -0.33333333  0.04761905  0.00000000       0.005
  -0.28571429  0.04761905  0.00000000       0.005
  -0.23809524  0.04761905  0.00000000       0.005
  -0.19047619  0.04761905  0.00000000       0.005
  -0.14285714  0.04761905  0.00000000       0.005
  -0.09523810  0.04761905  0.00000000       0.005
  -0.04761905  0.04761905  0.00000000       0.005
   0.00000000  0.09523810  0.00000000       0.005
   0.04761905  0.09523810  0.00000000       0.005
   0.09523810  0.09523810  0.00000000       0.005
   0.14285714  0.09523810  0.00000000       0.005
   0.19047619  0.09523810  0.00000000       0.005
   0.23809524  0.09523810  0.00000000       0.005
   0.28571429  0.09523810  0.00000000       0.005
   0.33333333  0.09523810  0.00000000       0.005
   0.38095238  0.09523810  0.00000000       0.005
   0.42857143  0.09523810  0.00000000       0.005
   0.47619048  0.09523810  0.00000000       0.005
  -0.47619048  0.09523810  0.00000000       0.005
  -0.42857143  0.09523810  0.00000000       0.005
  -0.38095238  0.09523810  0.00000000       0.005
  -0.33333333  0.09523810  0.00000000       0.005
  -0.28571429  0.09523810  0.00000000       0.005
  -0.23809524  0.09523810  0.00000000       0.005
  -0.19047619  0.09523810  0.00000000       0.005
  -0.14285714  0.09523810  0.00000000       0.005
  -0.09523810  0.09523810  0.00000000       0.005
  -0.04761905  0.09523810  0.00000000       0.005
   0.00000000  0.14285714  0.00000000       0.005
   0.04761905  0.14285714  0.00000000       0.005
   0.09523810  0.14285714  0.00000000       0.005
   0.14285714  0.14285714  0.00000000       0.005
   0.19047619  0.14285714  0.00000000       0.005
   0.23809524  0.14285714  0.00000000       0.005
   0.28571429  0.14285714  0.00000000       0.005
   0.33333333  0.14285714  0.00000000       0.005
   0.38095238  0.14285714  0.00000000       0.005
   0.42857143  0.14285714  0.00000000       0.005
   0.47619048  0.14285714  0.00000000       0.005
  -0.47619048  0.14285714  0.00000000       0.005
  -0.42857143  0.14285714  0.00000000       0.005
  -0.38095238  0.14285714  0.00000000       0.005
  -0.33333333  0.14285714  0.00000000       0.005
  -0.28571429  0.14285714  0.00000000       0.005
  -0.23809524  0.14285714  0.00000000       0.005
  -0.19047619  0.14285714  0.00000000       0.005
  -0.14285714  0.14285714  0.00000000       0.005
  -0.09523810  0.14285714  0.00000000       0.005
  -0.04761905  0.14285714  0.00000000       0.005
   0.00000000  0.19047619  0.00000000       0.005
   0.04761905  0.19047619  0.00000000       0.005
   0.09523810  0.19047619  0.00000000       0.005
   0.14285714  0.19047619  0.00000000       0.005
   0.19047619  0.19047619  0.00000000       0.005
   0.23809524  0.19047619  0.00000000       0.005
   0.28571429  0.19047619  0.00000000       0.005
   0.33333333  0.19047619  0.00000000       0.005
   0.38095238  0.19047619  0.00000000       0.005
   0.42857143  0.19047619  0.00000000       0.005
   0.47619048  0.19047619  0.00000000       0.005
  -0.47619048  0.19047619  0.00000000       0.005
  -0.42857143  0.19047619  0.00000000       0.005
  -0.38095238  0.19047619  0.00000000       0.005
  -0.33333333  0.19047619  0.00000000       0.005
  -0.28571429  0.19047619  0.00000000       0.005
  -0.23809524  0.19047619  0.00000000       0.005
  -0.19047619  0.19047619  0.00000000       0.005
  -0.14285714  0.19047619  0.00000000       0.005
  -0.09523810  0.19047619  0.00000000       0.005
  -0.04761905  0.19047619  0.00000000       0.005
   0.00000000  0.23809524  0.00000000       0.005
   0.04761905  0.23809524  0.00000000       0.005
   0.09523810  0.23809524  0.00000000       0.005
   0.14285714  0.23809524  0.00000000       0.005
   0.19047619  0.23809524  0.00000000       0.005
   0.23809524  0.23809524  0.00000000       0.005
   0.28571429  0.23809524  0.00000000       0.005
   0.33333333  0.23809524  0.00000000       0.005
   0.38095238  0.23809524  0.00000000       0.005
   0.42857143  0.23809524  0.00000000       0.005
   0.47619048  0.23809524  0.00000000       0.005
  -0.47619048  0.23809524  0.00000000       0.005
  -0.42857143  0.23809524  0.00000000       0.005
  -0.38095238  0.23809524  0.00000000       0.005
  -0.33333333  0.23809524  0.00000000       0.005
  -0.28571429  0.23809524  0.00000000       0.005
  -0.23809524  0.23809524  0.00000000       0.005
  -0.19047619  0.23809524  0.00000000       0.005
  -0.14285714  0.23809524  0.00000000       0.005
  -0.09523810  0.23809524  0.00000000       0.005
  -0.04761905  0.23809524  0.00000000       0.005
   0.00000000  0.28571429  0.00000000       0.005
   0.04761905  0.28571429  0.00000000       0.005
   0.09523810  0.28571429  0.00000000       0.005
   0.14285714  0.28571429  0.00000000       0.005
   0.19047619  0.28571429  0.00000000       0.005
   0.23809524  0.28571429  0.00000000       0.005
   0.28571429  0.28571429  0.00000000       0.005
   0.33333333  0.28571429  0.00000000       0.005
   0.38095238  0.28571429  0.00000000       0.005
   0.42857143  0.28571429  0.00000000       0.005
   0.47619048  0.28571429  0.00000000       0.005
  -0.47619048  0.28571429  0.00000000       0.005
  -0.42857143  0.28571429  0.00000000       0.005
  -0.38095238  0.28571429  0.00000000       0.005
  -0.33333333  0.28571429  0.00000000       0.005
  -0.28571429  0.28571429  0.00000000       0.005
  -0.23809524  0.28571429  0.00000000       0.005
  -0.19047619  0.28571429  0.00000000       0.005
  -0.14285714  0.28571429  0.00000000       0.005
  -0.09523810  0.28571429  0.00000000       0.005
  -0.04761905  0.28571429  0.00000000       0.005
   0.00000000  0.33333333  0.00000000       0.005
   0.04761905  0.33333333  0.00000000       0.005
   0.09523810  0.33333333  0.00000000       0.005
   0.14285714  0.33333333  0.00000000       0.005
   0.19047619  0.33333333  0.00000000       0.005
   0.23809524  0.33333333  0.00000000       0.005
   0.28571429  0.33333333  0.00000000       0.005
   0.33333333  0.33333333  0.00000000       0.005
   0.38095238  0.33333333  0.00000000       0.005
   0.42857143  0.33333333  0.00000000       0.005
   0.47619048  0.33333333  0.00000000       0.005
  -0.47619048  0.33333333  0.00000000       0.005
  -0.42857143  0.33333333  0.00000000       0.005
  -0.38095238  0.33333333  0.00000000       0.005
  -0.33333333  0.33333333  0.00000000       0.005
  -0.28571429  0.33333333  0.00000000       0.005
  -0.23809524  0.33333333  0.00000000       0.005
  -0.19047619  0.33333333  0.00000000       0.005
  -0.14285714  0.33333333  0.00000000       0.005
  -0.09523810  0.33333333  0.00000000       0.005
  -0.04761905  0.33333333  0.00000000       0.005
   0.00000000  0.38095238  0.00000000       0.005
   0.04761905  0.38095238  0.00000000       0.005
   0.09523810  0.38095238  0.00000000       0.005
   0.14285714  0.38095238  0.00000000       0.005
   0.19047619  0.38095238  0.00000000       0.005
   0.23809524  0.38095238  0.00000000       0.005
   0.28571429  0.38095238  0.00000000       0.005
   0.33333333  0.38095238  0.00000000       0.005
   0.38095238  0.38095238  0.00000000       0.005
   0.42857143  0.38095238  0.00000000       0.005
   0.47619048  0.38095238  0.00000000       0.005
  -0.47619048  0.38095238  0.00000000       0.005
  -0.42857143  0.38095238  0.00000000       0.005
  -0.38095238  0.38095238  0.00000000       0.005
  -0.33333333  0.38095238  0.00000000       0.005
  -0.28571429  0.38095238  0.00000000       0.005
  -0.23809524  0.38095238  0.00000000       0.005
  -0.19047619  0.38095238  0.00000000       0.005
  -0.14285714  0.38095238  0.00000000       0.005
  -0.09523810  0.38095238  0.00000000       0.005
  -0.04761905  0.38095238  0.00000000       0.005
   0.00000000  0.42857143  0.00000000       0.005
   0.04761905  0.42857143  0.00000000       0.005
   0.09523810  0.42857143  0.00000000       0.005
   0.14285714  0.42857143  0.00000000       0.005
   0.19047619  0.42857143  0.00000000       0.005
   0.23809524  0.42857143  0.00000000       0.005
   0.28571429  0.42857143  0.00000000       0.005
   0.33333333  0.42857143  0.00000000       0.005
   0.38095238  0.42857143  0.00000000       0.005
   0.42857143  0.42857143  0.00000000       0.005
   0.47619048  0.42857143  0.00000000       0.005
  -0.47619048  0.42857143  0.00000000       0.005
  -0.42857143  0.42857143  0.00000000       0.005
  -0.38095238  0.42857143  0.00000000       0.005
  -0.33333333  0.42857143  0.00000000       0.005
  -0.28571429  0.42857143  0.00000000       0.005
  -0.23809524  0.42857143  0.00000000       0.005
  -0.19047619  0.42857143  0.00000000       0.005
  -0.14285714  0.42857143  0.00000000       0.005
  -0.09523810  0.42857143  0.00000000       0.005
  -0.04761905  0.42857143  0.00000000       0.005
   0.00000000  0.47619048  0.00000000       0.005
   0.04761905  0.47619048  0.00000000       0.005
   0.09523810  0.47619048  0.00000000       0.005
   0.14285714  0.47619048  0.00000000       0.005
   0.19047619  0.47619048  0.00000000       0.005
   0.23809524  0.47619048  0.00000000       0.005
   0.28571429  0.47619048  0.00000000       0.005
   0.33333333  0.47619048  0.00000000       0.005
   0.38095238  0.47619048  0.00000000       0.005
   0.42857143  0.47619048  0.00000000       0.005
   0.47619048  0.47619048  0.00000000       0.005
  -0.47619048  0.47619048  0.00000000       0.005
  -0.42857143  0.47619048  0.00000000       0.005
  -0.38095238  0.47619048  0.00000000       0.005
  -0.33333333  0.47619048  0.00000000       0.005
  -0.28571429  0.47619048  0.00000000       0.005
  -0.23809524  0.47619048  0.00000000       0.005
  -0.19047619  0.47619048  0.00000000       0.005
  -0.14285714  0.47619048  0.00000000       0.005
  -0.09523810  0.47619048  0.00000000       0.005
  -0.04761905  0.47619048  0.00000000       0.005
 
 position of ions in fractional coordinates (direct lattice) 
   0.00046900  0.00000000  0.00046900
   0.33333300  0.00000000  0.00000000
   0.66666700  0.00000000  0.00000000
   0.00000000  0.33333300  0.00000000
   0.33333300  0.33333300  0.00000000
   0.66666700  0.33333300  0.00000000
   0.00000000  0.66666700  0.00000000
   0.33333300  0.66666700  0.00000000
   0.66666700  0.66666700  0.00000000
   0.11111100  0.11111100  0.00000000
   0.44444400  0.11111100  0.00000000
   0.77777800  0.11111100  0.00000000
   0.11111100  0.44444400  0.00000000
   0.44444400  0.44444400  0.00000000
   0.77777800  0.44444400  0.00000000
   0.11111100  0.77777800  0.00000000
   0.44444400  0.77777800  0.00000000
   0.77777800  0.77777800  0.00000000
 
 position of ions in cartesian coordinates  (Angst):
   0.00299691 -0.00173027  0.00938000
   2.12999787 -1.22975477  0.00000000
   4.26000213 -2.45951323  0.00000000
   2.12999787  1.22975477  0.00000000
   4.25999574  0.00000000  0.00000000
   6.39000000 -1.22975846  0.00000000
   4.26000213  2.45951323  0.00000000
   6.39000000  1.22975846  0.00000000
   8.52000426 -0.00000000  0.00000000
   1.41999858  0.00000000  0.00000000
   3.54999645 -1.22975477  0.00000000
   5.68000071 -2.45951323  0.00000000
   3.54999645  1.22975477  0.00000000
   5.67999432  0.00000000  0.00000000
   7.80999858 -1.22975846  0.00000000
   5.68000071  2.45951323  0.00000000
   7.80999858  1.22975846  0.00000000
   9.94000284 -0.00000000  0.00000000
 


--------------------------------------------------------------------------------------------------------


 k-point  1 :   0.0000 0.0000 0.0000  plane waves:   48441
 k-point  2 :   0.0476 0.0000 0.0000  plane waves:   48405
 k-point  3 :   0.0952 0.0000 0.0000  plane waves:   48383
 k-point  4 :   0.1429 0.0000 0.0000  plane waves:   48385
 k-point  5 :   0.1905 0.0000 0.0000  plane waves:   48399
 k-point  6 :   0.2381 0.0000 0.0000  plane waves:   48395
 k-point  7 :   0.2857 0.0000 0.0000  plane waves:   48422
 k-point  8 :   0.3333 0.0000 0.0000  plane waves:   48426
 k-point  9 :   0.3810 0.0000 0.0000  plane waves:   48444
 k-point 10 :   0.4286 0.0000 0.0000  plane waves:   48450
 k-point 11 :   0.4762 0.0000 0.0000  plane waves:   48422
 k-point 12 :   0.0000 0.0476 0.0000  plane waves:   48405
 k-point 13 :   0.0476 0.0476 0.0000  plane waves:   48405
 k-point 14 :   0.0952 0.0476 0.0000  plane waves:   48381
 k-point 15 :   0.1429 0.0476 0.0000  plane waves:   48398
 k-point 16 :   0.1905 0.0476 0.0000  plane waves:   48393
 k-point 17 :   0.2381 0.0476 0.0000  plane waves:   48404
 k-point 18 :   0.2857 0.0476 0.0000  plane waves:   48427
 k-point 19 :   0.3333 0.0476 0.0000  plane waves:   48437
 k-point 20 :   0.3810 0.0476 0.0000  plane waves:   48444
 k-point 21 :   0.4286 0.0476 0.0000  plane waves:   48462
 k-point 22 :   0.4762 0.0476 0.0000  plane waves:   48459
 k-point 23 :  -0.4762 0.0476 0.0000  plane waves:   48451
 k-point 24 :  -0.4286 0.0476 0.0000  plane waves:   48459
 k-point 25 :  -0.3810 0.0476 0.0000  plane waves:   48462
 k-point 26 :  -0.3333 0.0476 0.0000  plane waves:   48444
 k-point 27 :  -0.2857 0.0476 0.0000  plane waves:   48437
 k-point 28 :  -0.2381 0.0476 0.0000  plane waves:   48427
 k-point 29 :  -0.1905 0.0476 0.0000  plane waves:   48404
 k-point 30 :  -0.1429 0.0476 0.0000  plane waves:   48393
 k-point 31 :  -0.0952 0.0476 0.0000  plane waves:   48398
 k-point 32 :  -0.0476 0.0476 0.0000  plane waves:   48381
 k-point 33 :   0.0000 0.0952 0.0000  plane waves:   48383
 k-point 34 :   0.0476 0.0952 0.0000  plane waves:   48381
 k-point 35 :   0.0952 0.0952 0.0000  plane waves:   48383
 k-point 36 :   0.1429 0.0952 0.0000  plane waves:   48398
 k-point 37 :   0.1905 0.0952 0.0000  plane waves:   48393
 k-point 38 :   0.2381 0.0952 0.0000  plane waves:   48406
 k-point 39 :   0.2857 0.0952 0.0000  plane waves:   48407
 k-point 40 :   0.3333 0.0952 0.0000  plane waves:   48423
 k-point 41 :   0.3810 0.0952 0.0000  plane waves:   48422
 k-point 42 :   0.4286 0.0952 0.0000  plane waves:   48438
 k-point 43 :   0.4762 0.0952 0.0000  plane waves:   48478
 k-point 44 :  -0.4762 0.0952 0.0000  plane waves:   48484
 k-point 45 :  -0.4286 0.0952 0.0000  plane waves:   48484
 k-point 46 :  -0.3810 0.0952 0.0000  plane waves:   48478
 k-point 47 :  -0.3333 0.0952 0.0000  plane waves:   48438
 k-point 48 :  -0.2857 0.0952 0.0000  plane waves:   48422
 k-point 49 :  -0.2381 0.0952 0.0000  plane waves:   48423
 k-point 50 :  -0.1905 0.0952 0.0000  plane waves:   48407
 k-point 51 :  -0.1429 0.0952 0.0000  plane waves:   48406
 k-point 52 :  -0.0952 0.0952 0.0000  plane waves:   48393
 k-point 53 :  -0.0476 0.0952 0.0000  plane waves:   48398
 k-point 54 :   0.0000 0.1429 0.0000  plane waves:   48385
 k-point 55 :   0.0476 0.1429 0.0000  plane waves:   48398
 k-point 56 :   0.0952 0.1429 0.0000  plane waves:   48398
 k-point 57 :   0.1429 0.1429 0.0000  plane waves:   48385
 k-point 58 :   0.1905 0.1429 0.0000  plane waves:   48393
 k-point 59 :   0.2381 0.1429 0.0000  plane waves:   48406
 k-point 60 :   0.2857 0.1429 0.0000  plane waves:   48431
 k-point 61 :   0.3333 0.1429 0.0000  plane waves:   48436
 k-point 62 :   0.3810 0.1429 0.0000  plane waves:   48440
 k-point 63 :   0.4286 0.1429 0.0000  plane waves:   48480
 k-point 64 :   0.4762 0.1429 0.0000  plane waves:   48473
 k-point 65 :  -0.4762 0.1429 0.0000  plane waves:   48488
 k-point 66 :  -0.4286 0.1429 0.0000  plane waves:   48497
 k-point 67 :  -0.3810 0.1429 0.0000  plane waves:   48488
 k-point 68 :  -0.3333 0.1429 0.0000  plane waves:   48473
 k-point 69 :  -0.2857 0.1429 0.0000  plane waves:   48480
 k-point 70 :  -0.2381 0.1429 0.0000  plane waves:   48440
 k-point 71 :  -0.1905 0.1429 0.0000  plane waves:   48436
 k-point 72 :  -0.1429 0.1429 0.0000  plane waves:   48431
 k-point 73 :  -0.0952 0.1429 0.0000  plane waves:   48406
 k-point 74 :  -0.0476 0.1429 0.0000  plane waves:   48393
 k-point 75 :   0.0000 0.1905 0.0000  plane waves:   48399
 k-point 76 :   0.0476 0.1905 0.0000  plane waves:   48393
 k-point 77 :   0.0952 0.1905 0.0000  plane waves:   48393
 k-point 78 :   0.1429 0.1905 0.0000  plane waves:   48393
 k-point 79 :   0.1905 0.1905 0.0000  plane waves:   48399
 k-point 80 :   0.2381 0.1905 0.0000  plane waves:   48404
 k-point 81 :   0.2857 0.1905 0.0000  plane waves:   48407
 k-point 82 :   0.3333 0.1905 0.0000  plane waves:   48436
 k-point 83 :   0.3810 0.1905 0.0000  plane waves:   48463
 k-point 84 :   0.4286 0.1905 0.0000  plane waves:   48457
 k-point 85 :   0.4762 0.1905 0.0000  plane waves:   48482
 k-point 86 :  -0.4762 0.1905 0.0000  plane waves:   48472
 k-point 87 :  -0.4286 0.1905 0.0000  plane waves:   48505
 k-point 88 :  -0.3810 0.1905 0.0000  plane waves:   48505
 k-point 89 :  -0.3333 0.1905 0.0000  plane waves:   48472
 k-point 90 :  -0.2857 0.1905 0.0000  plane waves:   48482
 k-point 91 :  -0.2381 0.1905 0.0000  plane waves:   48457
 k-point 92 :  -0.1905 0.1905 0.0000  plane waves:   48463
 k-point 93 :  -0.1429 0.1905 0.0000  plane waves:   48436
 k-point 94 :  -0.0952 0.1905 0.0000  plane waves:   48407
 k-point 95 :  -0.0476 0.1905 0.0000  plane waves:   48404
 k-point 96 :   0.0000 0.2381 0.0000  plane waves:   48395
 k-point 97 :   0.0476 0.2381 0.0000  plane waves:   48404
 k-point 98 :   0.0952 0.2381 0.0000  plane waves:   48406
 k-point 99 :   0.1429 0.2381 0.0000  plane waves:   48406
 k-point ** :   0.1905 0.2381 0.0000  plane waves:   48404
 k-point ** :   0.2381 0.2381 0.0000  plane waves:   48395
 k-point ** :   0.2857 0.2381 0.0000  plane waves:   48427
 k-point ** :   0.3333 0.2381 0.0000  plane waves:   48423
 k-point ** :   0.3810 0.2381 0.0000  plane waves:   48440
 k-point ** :   0.4286 0.2381 0.0000  plane waves:   48457
 k-point ** :   0.4762 0.2381 0.0000  plane waves:   48483
 k-point ** :  -0.4762 0.2381 0.0000  plane waves:   48509
 k-point ** :  -0.4286 0.2381 0.0000  plane waves:   48508
 k-point ** :  -0.3810 0.2381 0.0000  plane waves:   48503
 k-point ** :  -0.3333 0.2381 0.0000  plane waves:   48508
 k-point ** :  -0.2857 0.2381 0.0000  plane waves:   48509
 k-point ** :  -0.2381 0.2381 0.0000  plane waves:   48483
 k-point ** :  -0.1905 0.2381 0.0000  plane waves:   48457
 k-point ** :  -0.1429 0.2381 0.0000  plane waves:   48440
 k-point ** :  -0.0952 0.2381 0.0000  plane waves:   48423
 k-point ** :  -0.0476 0.2381 0.0000  plane waves:   48427
 k-point ** :   0.0000 0.2857 0.0000  plane waves:   48422
 k-point ** :   0.0476 0.2857 0.0000  plane waves:   48427
 k-point ** :   0.0952 0.2857 0.0000  plane waves:   48407
 k-point ** :   0.1429 0.2857 0.0000  plane waves:   48431
 k-point ** :   0.1905 0.2857 0.0000  plane waves:   48407
 k-point ** :   0.2381 0.2857 0.0000  plane waves:   48427
 k-point ** :   0.2857 0.2857 0.0000  plane waves:   48422
 k-point ** :   0.3333 0.2857 0.0000  plane waves:   48437
 k-point ** :   0.3810 0.2857 0.0000  plane waves:   48422
 k-point ** :   0.4286 0.2857 0.0000  plane waves:   48480
 k-point ** :   0.4762 0.2857 0.0000  plane waves:   48482
 k-point ** :  -0.4762 0.2857 0.0000  plane waves:   48509
 k-point ** :  -0.4286 0.2857 0.0000  plane waves:   48509
 k-point ** :  -0.3810 0.2857 0.0000  plane waves:   48500
 k-point ** :  -0.3333 0.2857 0.0000  plane waves:   48500
 k-point ** :  -0.2857 0.2857 0.0000  plane waves:   48509
 k-point ** :  -0.2381 0.2857 0.0000  plane waves:   48509
 k-point ** :  -0.1905 0.2857 0.0000  plane waves:   48482
 k-point ** :  -0.1429 0.2857 0.0000  plane waves:   48480
 k-point ** :  -0.0952 0.2857 0.0000  plane waves:   48422
 k-point ** :  -0.0476 0.2857 0.0000  plane waves:   48437
 k-point ** :   0.0000 0.3333 0.0000  plane waves:   48426
 k-point ** :   0.0476 0.3333 0.0000  plane waves:   48437
 k-point ** :   0.0952 0.3333 0.0000  plane waves:   48423
 k-point ** :   0.1429 0.3333 0.0000  plane waves:   48436
 k-point ** :   0.1905 0.3333 0.0000  plane waves:   48436
 k-point ** :   0.2381 0.3333 0.0000  plane waves:   48423
 k-point ** :   0.2857 0.3333 0.0000  plane waves:   48437
 k-point ** :   0.3333 0.3333 0.0000  plane waves:   48426
 k-point ** :   0.3810 0.3333 0.0000  plane waves:   48444
 k-point ** :   0.4286 0.3333 0.0000  plane waves:   48438
 k-point ** :   0.4762 0.3333 0.0000  plane waves:   48473
 k-point ** :  -0.4762 0.3333 0.0000  plane waves:   48472
 k-point ** :  -0.4286 0.3333 0.0000  plane waves:   48508
 k-point ** :  -0.3810 0.3333 0.0000  plane waves:   48500
 k-point ** :  -0.3333 0.3333 0.0000  plane waves:   48483
 k-point ** :  -0.2857 0.3333 0.0000  plane waves:   48500
 k-point ** :  -0.2381 0.3333 0.0000  plane waves:   48508
 k-point ** :  -0.1905 0.3333 0.0000  plane waves:   48472
 k-point ** :  -0.1429 0.3333 0.0000  plane waves:   48473
 k-point ** :  -0.0952 0.3333 0.0000  plane waves:   48438
 k-point ** :  -0.0476 0.3333 0.0000  plane waves:   48444
 k-point ** :   0.0000 0.3810 0.0000  plane waves:   48444
 k-point ** :   0.0476 0.3810 0.0000  plane waves:   48444
 k-point ** :   0.0952 0.3810 0.0000  plane waves:   48422
 k-point ** :   0.1429 0.3810 0.0000  plane waves:   48440
 k-point ** :   0.1905 0.3810 0.0000  plane waves:   48463
 k-point ** :   0.2381 0.3810 0.0000  plane waves:   48440
 k-point ** :   0.2857 0.3810 0.0000  plane waves:   48422
 k-point ** :   0.3333 0.3810 0.0000  plane waves:   48444
 k-point ** :   0.3810 0.3810 0.0000  plane waves:   48444
 k-point ** :   0.4286 0.3810 0.0000  plane waves:   48462
 k-point ** :   0.4762 0.3810 0.0000  plane waves:   48478
 k-point ** :  -0.4762 0.3810 0.0000  plane waves:   48488
 k-point ** :  -0.4286 0.3810 0.0000  plane waves:   48505
 k-point ** :  -0.3810 0.3810 0.0000  plane waves:   48503
 k-point ** :  -0.3333 0.3810 0.0000  plane waves:   48500
 k-point ** :  -0.2857 0.3810 0.0000  plane waves:   48500
 k-point ** :  -0.2381 0.3810 0.0000  plane waves:   48503
 k-point ** :  -0.1905 0.3810 0.0000  plane waves:   48505
 k-point ** :  -0.1429 0.3810 0.0000  plane waves:   48488
 k-point ** :  -0.0952 0.3810 0.0000  plane waves:   48478
 k-point ** :  -0.0476 0.3810 0.0000  plane waves:   48462
 k-point ** :   0.0000 0.4286 0.0000  plane waves:   48450
 k-point ** :   0.0476 0.4286 0.0000  plane waves:   48462
 k-point ** :   0.0952 0.4286 0.0000  plane waves:   48438
 k-point ** :   0.1429 0.4286 0.0000  plane waves:   48480
 k-point ** :   0.1905 0.4286 0.0000  plane waves:   48457
 k-point ** :   0.2381 0.4286 0.0000  plane waves:   48457
 k-point ** :   0.2857 0.4286 0.0000  plane waves:   48480
 k-point ** :   0.3333 0.4286 0.0000  plane waves:   48438
 k-point ** :   0.3810 0.4286 0.0000  plane waves:   48462
 k-point ** :   0.4286 0.4286 0.0000  plane waves:   48450
 k-point ** :   0.4762 0.4286 0.0000  plane waves:   48459
 k-point ** :  -0.4762 0.4286 0.0000  plane waves:   48484
 k-point ** :  -0.4286 0.4286 0.0000  plane waves:   48497
 k-point ** :  -0.3810 0.4286 0.0000  plane waves:   48505
 k-point ** :  -0.3333 0.4286 0.0000  plane waves:   48508
 k-point ** :  -0.2857 0.4286 0.0000  plane waves:   48509
 k-point ** :  -0.2381 0.4286 0.0000  plane waves:   48508
 k-point ** :  -0.1905 0.4286 0.0000  plane waves:   48505
 k-point ** :  -0.1429 0.4286 0.0000  plane waves:   48497
 k-point ** :  -0.0952 0.4286 0.0000  plane waves:   48484
 k-point ** :  -0.0476 0.4286 0.0000  plane waves:   48459
 k-point ** :   0.0000 0.4762 0.0000  plane waves:   48422
 k-point ** :   0.0476 0.4762 0.0000  plane waves:   48459
 k-point ** :   0.0952 0.4762 0.0000  plane waves:   48478
 k-point ** :   0.1429 0.4762 0.0000  plane waves:   48473
 k-point ** :   0.1905 0.4762 0.0000  plane waves:   48482
 k-point ** :   0.2381 0.4762 0.0000  plane waves:   48483
 k-point ** :   0.2857 0.4762 0.0000  plane waves:   48482
 k-point ** :   0.3333 0.4762 0.0000  plane waves:   48473
 k-point ** :   0.3810 0.4762 0.0000  plane waves:   48478
 k-point ** :   0.4286 0.4762 0.0000  plane waves:   48459
 k-point ** :   0.4762 0.4762 0.0000  plane waves:   48422
 k-point ** :  -0.4762 0.4762 0.0000  plane waves:   48451
 k-point ** :  -0.4286 0.4762 0.0000  plane waves:   48484
 k-point ** :  -0.3810 0.4762 0.0000  plane waves:   48488
 k-point ** :  -0.3333 0.4762 0.0000  plane waves:   48472
 k-point ** :  -0.2857 0.4762 0.0000  plane waves:   48509
 k-point ** :  -0.2381 0.4762 0.0000  plane waves:   48509
 k-point ** :  -0.1905 0.4762 0.0000  plane waves:   48472
 k-point ** :  -0.1429 0.4762 0.0000  plane waves:   48488
 k-point ** :  -0.0952 0.4762 0.0000  plane waves:   48484
 k-point ** :  -0.0476 0.4762 0.0000  plane waves:   48451

 maximum and minimum number of plane-waves per node :      8115     8036

 maximum number of plane-waves:     48509
 maximum index in each direction: 
   IXMAX=   17   IYMAX=   17   IZMAX=   46
   IXMIN=  -17   IYMIN=  -17   IZMIN=  -46


 parallel 3D FFT for wavefunctions:
    minimum data exchange during FFTs selected (reduces bandwidth)
 parallel 3D FFT for charge:
    minimum data exchange during FFTs selected (reduces bandwidth)


 total amount of memory used by VASP MPI-rank0   430232. kBytes
=======================================================================

   base      :      30000. kBytes
   nonl-proj :     117158. kBytes
   fftplans  :      35923. kBytes
   grid      :      16822. kBytes
   one-center:          9. kBytes
   wavefun   :     230320. kBytes
 
     INWAV:  cpu time    0.0000: real time    0.0002
 Broyden mixing: mesh for mixing (old mesh)
   NGX = 35   NGY = 35   NGZ = 93
  (NGX  =140   NGY  =140   NGZ  =384)
  gives a total of 113925 points

 initial charge density was supplied:
 charge density of overlapping atoms calculated
 number of electron      72.0000000 magnetization 
 keeping initial charge density in first step


--------------------------------------------------------------------------------------------------------


 Maximum index for augmentation-charges         2926 (set IRDMAX)


--------------------------------------------------------------------------------------------------------


 First call to EWALD:  gamma=   0.181
 Maximum number of real-space cells 4x 4x 2
 Maximum number of reciprocal cells 2x 2x 5

    FEWALD:  cpu time    0.0011: real time    0.0024


--------------------------------------- Iteration      1(   1)  ---------------------------------------


    POTLOK:  cpu time    0.1222: real time    0.1420
    SETDIJ:  cpu time    0.0836: real time    0.0838
     EDDAV:  cpu time   55.1024: real time   55.2570
       DOS:  cpu time    0.0036: real time    0.0036
    --------------------------------------------
      LOOP:  cpu time   55.3118: real time   55.4865

 eigenvalue-minimisations  : 21300
 total energy-change (2. order) : 0.8038851E+03  (-0.3036258E+04)
 number of electron      72.0000000 magnetization 
 augmentation part       72.0000000 magnetization 

 Free energy of the ion-electron system (eV)
  ---------------------------------------------------
  alpha Z        PSCENC =        27.99599133
  Ewald energy   TEWEN  =     11727.27928553
  -Hartree energ DENC   =    -13636.90389693
  -exchange      EXHF   =         0.00000000
  -V(xc)+E(xc)   XCENC  =       248.31592008
  PAW double counting   =       680.96597573     -701.67460981
  entropy T*S    EENTRO =        -0.00025433
  eigenvalues    EBANDS =      -190.87294078
  atomic energy  EATOM  =      2648.77962213
  Solvation  Ediel_sol  =         0.00000000
  ---------------------------------------------------
  free energy    TOTEN  =       803.88509295 eV

  energy without entropy =      803.88534728  energy(sigma->0) =      803.88522011


--------------------------------------------------------------------------------------------------------




--------------------------------------- Iteration      1(   2)  ---------------------------------------


     EDDAV:  cpu time   81.4770: real time   81.7038
       DOS:  cpu time    0.0015: real time    0.0015
    --------------------------------------------
      LOOP:  cpu time   81.4785: real time   81.7053

 eigenvalue-minimisations  : 36336
 total energy-change (2. order) :-0.8283556E+03  (-0.7882418E+03)
 number of electron      72.0000000 magnetization 
 augmentation part       72.0000000 magnetization 

 Free energy of the ion-electron system (eV)
  ---------------------------------------------------
  alpha Z        PSCENC =        27.99599133
  Ewald energy   TEWEN  =     11727.27928553
  -Hartree energ DENC   =    -13636.90389693
  -exchange      EXHF   =         0.00000000
  -V(xc)+E(xc)   XCENC  =       248.31592008
  PAW double counting   =       680.96597573     -701.67460981
  entropy T*S    EENTRO =        -0.00000000
  eigenvalues    EBANDS =     -1019.22878881
  atomic energy  EATOM  =      2648.77962213
  Solvation  Ediel_sol  =         0.00000000
  ---------------------------------------------------
  free energy    TOTEN  =       -24.47050074 eV

  energy without entropy =      -24.47050074  energy(sigma->0) =      -24.47050074


--------------------------------------------------------------------------------------------------------




--------------------------------------- Iteration      1(   3)  ---------------------------------------


     EDDAV:  cpu time   62.0437: real time   62.2367
       DOS:  cpu time    0.0033: real time    0.0034
    --------------------------------------------
      LOOP:  cpu time   62.0471: real time   62.2401

 eigenvalue-minimisations  : 25248
 total energy-change (2. order) :-0.1479578E+03  (-0.1472815E+03)
 number of electron      72.0000000 magnetization 
 augmentation part       72.0000000 magnetization 

 Free energy of the ion-electron system (eV)
  ---------------------------------------------------
  alpha Z        PSCENC =        27.99599133
  Ewald energy   TEWEN  =     11727.27928553
  -Hartree energ DENC   =    -13636.90389693
  -exchange      EXHF   =         0.00000000
  -V(xc)+E(xc)   XCENC  =       248.31592008
  PAW double counting   =       680.96597573     -701.67460981
  entropy T*S    EENTRO =        -0.00001415
  eigenvalues    EBANDS =     -1167.18661486
  atomic energy  EATOM  =      2648.77962213
  Solvation  Ediel_sol  =         0.00000000
  ---------------------------------------------------
  free energy    TOTEN  =      -172.42834095 eV

  energy without entropy =     -172.42832680  energy(sigma->0) =     -172.42833387


--------------------------------------------------------------------------------------------------------




--------------------------------------- Iteration      1(   4)  ---------------------------------------


     EDDAV:  cpu time   62.8414: real time   63.0368
       DOS:  cpu time    0.0034: real time    0.0035
    --------------------------------------------
      LOOP:  cpu time   62.8448: real time   63.0403

 eigenvalue-minimisations  : 25704
 total energy-change (2. order) :-0.5324072E+01  (-0.5305892E+01)
 number of electron      72.0000000 magnetization 
 augmentation part       72.0000000 magnetization 

 Free energy of the ion-electron system (eV)
  ---------------------------------------------------
  alpha Z        PSCENC =        27.99599133
  Ewald energy   TEWEN  =     11727.27928553
  -Hartree energ DENC   =    -13636.90389693
  -exchange      EXHF   =         0.00000000
  -V(xc)+E(xc)   XCENC  =       248.31592008
  PAW double counting   =       680.96597573     -701.67460981
  entropy T*S    EENTRO =        -0.00004439
  eigenvalues    EBANDS =     -1172.51065682
  atomic energy  EATOM  =      2648.77962213
[...]
     15     -12.0522      2.00000
     16     -11.5802      2.00000
     17     -10.8347      2.00000
     18     -10.4104      2.00000
     19     -10.2523      2.00000
     20      -9.7928      2.00000
     21      -9.7428      2.00000
     22      -9.6077      2.00000
     23      -9.1547      2.00000
     24      -9.1475      2.00000
     25      -9.0086      2.00000
     26      -8.9164      2.00000
     27      -7.8700      2.00000
     28      -7.6240      2.00000
     29      -7.5886      2.00000
     30      -6.9083      2.00000
     31      -6.8604      2.00000
     32      -6.6435      2.00000
     33      -5.6139      2.00000
     34      -5.1375      2.00000
     35      -5.1126      2.00000
     36      -4.5647      2.00000
     37      -1.2200      0.00000
     38      -0.8883      0.00000
     39      -0.8026      0.00000
     40       0.2642      0.00000
     41       1.2656      0.00000
     42       1.4914      0.00000
     43       1.8679      0.00000
     44       1.9480      0.00000
     45       2.0757      0.00000
     46       2.1183      0.00000
     47       2.4553      0.00000
     48       2.7635      0.00000

 k-point   217 :      -0.2381    0.4762    0.0000
  band No.  band energies     occupation 
      1     -21.7542      2.00000
      2     -21.2560      2.00000
      3     -21.1320      2.00000
      4     -19.3004      2.00000
      5     -19.0609      2.00000
      6     -18.1205      2.00000
      7     -17.3553      2.00000
      8     -17.2629      2.00000
      9     -16.6660      2.00000
     10     -15.6008      2.00000
     11     -15.5333      2.00000
     12     -15.3403      2.00000
     13     -13.1618      2.00000
     14     -12.4043      2.00000
     15     -12.0538      2.00000
     16     -11.5798      2.00000
     17     -10.8347      2.00000
     18     -10.4119      2.00000
     19     -10.2505      2.00000
     20      -9.7907      2.00000
     21      -9.7428      2.00000
     22      -9.6098      2.00000
     23      -9.1553      2.00000
     24      -9.1508      2.00000
     25      -9.0084      2.00000
     26      -8.9126      2.00000
     27      -7.8659      2.00000
     28      -7.6284      2.00000
     29      -7.5877      2.00000
     30      -6.9078      2.00000
     31      -6.8611      2.00000
     32      -6.6440      2.00000
     33      -5.6138      2.00000
     34      -5.1356      2.00000
     35      -5.1147      2.00000
     36      -4.5648      2.00000
     37      -1.2198      0.00000
     38      -0.8848      0.00000
     39      -0.8059      0.00000
     40       0.2640      0.00000
     41       1.2656      0.00000
     42       1.4929      0.00000
     43       1.8664      0.00000
     44       1.9480      0.00000
     45       2.0757      0.00000
     46       2.1183      0.00000
     47       2.4553      0.00000
     48       2.7635      0.00000

 k-point   218 :      -0.1905    0.4762    0.0000
  band No.  band energies     occupation 
      1     -21.7423      2.00000
      2     -21.3684      2.00000
      3     -20.9964      2.00000
      4     -19.5295      2.00000
      5     -18.8118      2.00000
      6     -18.1095      2.00000
      7     -17.4450      2.00000
      8     -17.1719      2.00000
      9     -16.8454      2.00000
     10     -15.7077      2.00000
     11     -15.4060      2.00000
     12     -15.1305      2.00000
     13     -13.2594      2.00000
     14     -12.7633      2.00000
     15     -11.7124      2.00000
     16     -11.4800      2.00000
     17     -10.8216      2.00000
     18     -10.5525      2.00000
     19     -10.0706      2.00000
     20      -9.9956      2.00000
     21      -9.7287      2.00000
     22      -9.4529      2.00000
     23      -9.3957      2.00000
     24      -9.2867      2.00000
     25      -8.8494      2.00000
     26      -8.6853      2.00000
     27      -8.1213      2.00000
     28      -7.6453      2.00000
     29      -7.4062      2.00000
     30      -7.1632      2.00000
     31      -6.8555      2.00000
     32      -6.3736      2.00000
     33      -5.6065      2.00000
     34      -5.1620      2.00000
     35      -5.0976      2.00000
     36      -4.6489      2.00000
     37      -1.1219      0.00000
     38      -0.9522      0.00000
     39      -0.7123      0.00000
     40       0.2384      0.00000
     41       1.1184      0.00000
     42       1.2820      0.00000
     43       1.7933      0.00000
     44       2.0920      0.00000
     45       2.2406      0.00000
     46       2.3053      0.00000
     47       2.4719      0.00000
     48       2.6080      0.00000

 k-point   219 :      -0.1429    0.4762    0.0000
  band No.  band energies     occupation 
      1     -21.7185      2.00000
      2     -21.4691      2.00000
      3     -20.8493      2.00000
      4     -19.7482      2.00000
      5     -18.5534      2.00000
      6     -18.0876      2.00000
      7     -17.5286      2.00000
      8     -17.1033      2.00000
      9     -17.0908      2.00000
     10     -15.8530      2.00000
     11     -15.1179      2.00000
     12     -14.9098      2.00000
     13     -13.4256      2.00000
     14     -13.1261      2.00000
     15     -11.3846      2.00000
     16     -11.3096      2.00000
     17     -10.7953      2.00000
     18     -10.6758      2.00000
     19     -10.2183      2.00000
     20      -9.8693      2.00000
     21      -9.7006      2.00000
     22      -9.6502      2.00000
     23      -9.4055      2.00000
     24      -9.3257      2.00000
     25      -8.6774      2.00000
     26      -8.4656      2.00000
     27      -8.3836      2.00000
     28      -7.7500      2.00000
     29      -7.4098      2.00000
     30      -7.2092      2.00000
     31      -6.8531      2.00000
     32      -6.0985      2.00000
     33      -5.5920      2.00000
     34      -5.1906      2.00000
     35      -5.0873      2.00000
     36      -4.8039      2.00000
     37      -1.0020      0.00000
     38      -0.9396      0.00000
     39      -0.6114      0.00000
     40       0.1888      0.00000
     41       0.7481      0.00000
     42       1.3144      0.00000
     43       1.6553      0.00000
     44       2.1248      0.00000
     45       2.4689      0.00000
     46       2.5052      0.00000
     47       2.5075      0.00000
     48       2.6124      0.00000

 k-point   220 :      -0.0952    0.4762    0.0000
  band No.  band energies     occupation 
      1     -21.6828      2.00000
      2     -21.5581      2.00000
      3     -20.6908      2.00000
      4     -19.9563      2.00000
      5     -18.2862      2.00000
      6     -18.0547      2.00000
      7     -17.6046      2.00000
      8     -17.3848      2.00000
      9     -17.0339      2.00000
     10     -15.9550      2.00000
     11     -14.7906      2.00000
     12     -14.6810      2.00000
     13     -13.6307      2.00000
     14     -13.4897      2.00000
     15     -11.0995      2.00000
     16     -11.0728      2.00000
     17     -10.7827      2.00000
     18     -10.7558      2.00000
     19     -10.4543      2.00000
     20      -9.9181      2.00000
     21      -9.6585      2.00000
     22      -9.6460      2.00000
     23      -9.5107      2.00000
     24      -9.2314      2.00000
     25      -8.6458      2.00000
     26      -8.4927      2.00000
     27      -8.2543      2.00000
     28      -7.8895      2.00000
     29      -7.6462      2.00000
     30      -7.0418      2.00000
     31      -6.8667      2.00000
     32      -5.8212      2.00000
     33      -5.5707      2.00000
     34      -5.2197      2.00000
     35      -5.0850      2.00000
     36      -5.0104      2.00000
     37      -1.0318      0.00000
     38      -0.6925      0.00000
     39      -0.5073      0.00000
     40       0.1174      0.00000
     41       0.3848      0.00000
     42       1.3630      0.00000
     43       1.5334      0.00000
     44       2.1740      0.00000
     45       2.3460      0.00000
     46       2.5552      0.00000
     47       2.7266      0.00000
     48       2.7300      0.00000

 k-point   221 :      -0.0476    0.4762    0.0000
  band No.  band energies     occupation 
      1     -21.6353      2.00000
      2     -21.6352      2.00000
      3     -20.5210      2.00000
      4     -20.1536      2.00000
      5     -18.0112      2.00000
      6     -18.0111      2.00000
      7     -17.6719      2.00000
      8     -17.6718      2.00000
      9     -17.0171      2.00000
     10     -15.9970      2.00000
     11     -14.4473      2.00000
     12     -14.4435      2.00000
     13     -13.8553      2.00000
     14     -13.8514      2.00000
     15     -10.8742      2.00000
     16     -10.8694      2.00000
     17     -10.7791      2.00000
     18     -10.7030      2.00000
     19     -10.6986      2.00000
     20     -10.2013      2.00000
     21      -9.6021      2.00000
     22      -9.6020      2.00000
     23      -9.4030      2.00000
     24      -9.1726      2.00000
     25      -8.9011      2.00000
     26      -8.2956      2.00000
     27      -8.0540      2.00000
     28      -8.0530      2.00000
     29      -7.8719      2.00000
     30      -6.9065      2.00000
     31      -6.9054      2.00000
     32      -5.5456      2.00000
     33      -5.5430      2.00000
     34      -5.2511      2.00000
     35      -5.2479      2.00000
     36      -5.0914      2.00000
     37      -1.0403      0.00000
     38      -0.4045      0.00000
     39      -0.3984      0.00000
     40       0.0276      0.00000
     41       0.0330      0.00000
     42       1.4278      0.00000
     43       1.4279      0.00000
     44       2.2395      0.00000
     45       2.2395      0.00000
     46       2.6218      0.00000
     47       2.6218      0.00000
     48       2.9615      0.00000


--------------------------------------------------------------------------------------------------------


 soft charge-density along one line, spin component           1
         0         1         2         3         4         5         6         7         8         9
 total charge-density along one line
 
 pseudopotential strength for first ion, spin component:           1
 10.225   0.019  -0.000  -0.000   0.000   0.000   0.000  -0.000
  0.019  -0.002  -0.000   0.000   0.000   0.000   0.000  -0.000
 -0.000  -0.000  -4.341  -0.000  -0.000  -0.018  -0.000  -0.000
 -0.000   0.000  -0.000  -4.335   0.000  -0.000  -0.015   0.000
  0.000   0.000  -0.000   0.000  -4.342  -0.000   0.000  -0.018
  0.000   0.000  -0.018  -0.000  -0.000  -0.772   0.000  -0.000
  0.000   0.000  -0.000  -0.015   0.000   0.000  -0.772   0.000
 -0.000  -0.000  -0.000   0.000  -0.018  -0.000   0.000  -0.772
 total augmentation occupancy for first ion, spin component:           1
  1.469  -1.133  -0.001   0.001   0.003  -0.000  -0.001   0.001
 -1.133   1.076   0.001   0.007  -0.002   0.000   0.002  -0.001
 -0.001   0.001   1.225   0.000   0.001   0.229   0.000   0.000
  0.001   0.007   0.000   0.932  -0.000   0.000   0.106  -0.000
  0.003  -0.002   0.001  -0.000   1.229   0.000  -0.000   0.230
 -0.000   0.000   0.229   0.000   0.000   0.049   0.000   0.000
 -0.001   0.002   0.000   0.106  -0.000   0.000   0.014  -0.000
  0.001  -0.001   0.000  -0.000   0.230   0.000  -0.000   0.049


------------------------ aborting loop because EDIFF is reached ----------------------------------------


    CHARGE:  cpu time    3.6538: real time    3.6624
    FORLOC:  cpu time    0.0175: real time    0.0175
    FORNL :  cpu time   10.6034: real time   10.6284
    STRESS:  cpu time   20.5508: real time   20.5994
    FORHAR:  cpu time    0.0405: real time    0.0406
    MIXING:  cpu time    0.0062: real time    0.0062
    OFIELD:  cpu time    0.0000: real time    0.0000

  FORCE on cell =-STRESS in cart. coord.  units (eV):
  Direction    XX          YY          ZZ          XY          YZ          ZX
  --------------------------------------------------------------------------------------
  Alpha Z    27.99599    27.99599    27.99599
  Ewald   14154.16719 14152.84033-16579.73351     0.38187     0.00421    -0.00737
  Hartree 13849.08039 13848.89725-13747.62238     0.05293     0.00099    -0.00172
  E(xc)    -263.02390  -263.02899  -273.57663     0.00146     0.00001    -0.00001
  Local  -28778.08441-28776.82855 29398.10024    -0.36192    -0.00436     0.00760
  n-local   -63.58891   -63.59850   -57.82454     0.00280    -0.00009     0.00015
  augment    -7.02812    -7.02600    -6.42355    -0.00062    -0.00001     0.00001
  Kinetic  1084.25728  1084.47510  1238.87640    -0.06277     0.00024    -0.00041
  Fock        0.00000     0.00000     0.00000     0.00000     0.00000     0.00000
  -------------------------------------------------------------------------------------
  Total       3.77551     3.72663    -0.20797     0.01376     0.00100    -0.00175
  in kB       6.41483     6.33179    -0.35335     0.02338     0.00170    -0.00297
  external pressure =        4.13 kB  Pullay stress =        0.00 kB


 VOLUME and BASIS-vectors are now :
 -----------------------------------------------------------------------------
  energy-cutoff  :      800.00
  volume of cell :      942.98
      direct lattice vectors                 reciprocal lattice vectors
     6.390000000 -3.689268000  0.000000000     0.078247261 -0.135528240  0.000000000
     6.390000000  3.689268000  0.000000000     0.078247261  0.135528240  0.000000000
     0.000000000  0.000000000 20.000000000     0.000000000  0.000000000  0.050000000

  length of vectors
     7.378536330  7.378536330 20.000000000     0.156494530  0.156494530  0.050000000


 FORCES acting on ions
    electron-ion (+dipol)            ewald-force                    non-local-force                 convergence-correction
 -----------------------------------------------------------------------------------------------
   0.686E+00 -.393E+00 -.437E+01   -.786E+00 0.449E+00 0.442E+01   -.867E-01 0.499E-01 -.181E+00   -.142E-05 0.813E-06 0.542E-06
   -.101E+00 0.569E-01 0.194E+00   0.107E+00 -.619E-01 -.187E+00   0.767E-02 -.675E-02 -.115E-01   0.687E-06 -.243E-06 0.169E-06
   -.997E-01 0.590E-01 0.193E+00   0.107E+00 -.607E-01 -.186E+00   0.945E-02 -.322E-02 -.115E-01   0.219E-06 -.108E-05 0.343E-06
   -.292E-01 -.489E-01 0.194E+00   0.340E-01 0.639E-01 -.187E+00   0.587E-03 -.474E-03 -.115E-01   0.611E-06 0.138E-06 0.111E-06
   -.131E-01 0.718E-02 0.100E+00   0.205E-01 -.114E-01 -.957E-01   -.213E-03 0.156E-03 -.266E-02   -.809E-06 0.605E-06 -.401E-06
   0.274E-01 0.492E-01 0.193E+00   -.381E-01 -.606E-01 -.187E+00   0.734E-03 -.102E-03 -.115E-01   0.356E-06 -.654E-06 0.243E-06
   -.429E-01 -.576E-01 0.193E+00   0.345E-01 0.627E-01 -.187E+00   0.967E-02 0.248E-02 -.115E-01   0.427E-07 0.470E-06 0.101E-06
   0.294E-01 0.672E-01 0.194E+00   -.383E-01 -.627E-01 -.187E+00   0.270E-02 -.983E-02 -.115E-01   0.349E-07 -.295E-07 0.715E-07
   -.126E-01 0.795E-02 0.971E-01   0.186E-01 -.115E-01 -.957E-01   0.804E-03 -.535E-03 0.678E-03   0.367E-06 0.414E-07 0.433E-06
   -.422E+00 -.138E+00 0.764E+00   0.486E+00 0.134E+00 -.793E+00   0.111E-01 -.149E-01 0.865E-01   0.556E-06 0.673E-06 0.396E-06
   -.537E-01 0.318E-01 0.103E+00   0.512E-01 -.305E-01 -.107E+00   0.255E-02 -.148E-02 -.521E-02   0.412E-07 -.667E-06 -.133E-06
   -.983E-01 0.444E+00 0.756E+00   0.134E+00 -.497E+00 -.784E+00   0.177E-01 -.106E-02 0.859E-01   -.606E-06 -.357E-06 0.629E-06
   -.248E-01 -.205E-01 0.103E+00   0.223E-01 0.223E-01 -.107E+00   -.717E-04 0.314E-02 -.522E-02   -.277E-07 0.387E-06 -.229E-06
   0.342E-02 0.306E-01 0.103E+00   -.603E-02 -.292E-01 -.107E+00   -.262E-02 -.144E-02 -.519E-02   0.458E-06 -.713E-07 -.272E-06
   0.204E-01 -.131E-01 0.140E+00   -.162E-01 0.109E-01 -.139E+00   0.284E-02 -.153E-02 0.287E-02   -.349E-06 -.301E-07 0.309E-06
   0.235E+00 -.143E+00 0.760E+00   -.227E+00 0.140E+00 -.788E+00   0.256E-01 -.152E-01 0.862E-01   -.139E-05 0.323E-06 0.314E-06
   -.275E-01 0.727E-01 0.140E+00   0.270E-01 -.670E-01 -.140E+00   0.411E-03 0.253E-02 0.285E-02   0.117E-06 -.563E-06 0.268E-06
   -.752E-01 -.117E-01 0.140E+00   0.698E-01 0.936E-02 -.139E+00   -.217E-02 -.161E-02 0.289E-02   0.105E-05 0.267E-06 0.287E-06
 -----------------------------------------------------------------------------------------------
   -.155E-04 -.144E-04 0.163E-04   -.466E-14 -.122E-13 -.472E-15   0.170E-04 0.138E-04 -.177E-04   -.595E-07 0.209E-07 0.318E-05
 
 
 POSITION                                       TOTAL-FORCE (eV/Angst)
 -----------------------------------------------------------------------------------
      0.00300     -0.00173      0.00938        -0.186476      0.106541     -0.133385
      2.13000     -1.22975      0.00000         0.012806     -0.011844     -0.004808
      4.26000     -2.45951      0.00000         0.016362     -0.004863     -0.004639
      2.13000      1.22975      0.00000         0.005326      0.014503     -0.004741
      4.26000      0.00000      0.00000         0.007193     -0.004107      0.002029
      6.39000     -1.22976      0.00000        -0.010034     -0.011548     -0.004706
      4.26000      2.45951      0.00000         0.001290      0.007562     -0.004655
      6.39000      1.22976      0.00000        -0.006204     -0.005304     -0.004791
      8.52000     -0.00000      0.00000         0.006875     -0.004106      0.002029
      1.42000      0.00000      0.00000         0.074830     -0.018804      0.057579
      3.55000     -1.22975      0.00000         0.000089     -0.000168     -0.008671
      5.68000     -2.45951      0.00000         0.053553     -0.054921      0.058399
      3.55000      1.22975      0.00000        -0.002637      0.004900     -0.008651
      5.67999      0.00000      0.00000        -0.005233      0.000005     -0.008692
      7.81000     -1.22976      0.00000         0.006969     -0.003759      0.003236
      5.68000      2.45951      0.00000         0.032965     -0.018352      0.057995
      7.81000      1.22976      0.00000        -0.000152      0.008207      0.003230
      9.94000     -0.00000      0.00000        -0.007522     -0.003943      0.003242
 -----------------------------------------------------------------------------------
    total drift:                                0.000001     -0.000001      0.000002


--------------------------------------------------------------------------------------------------------



  FREE ENERGIE OF THE ION-ELECTRON SYSTEM (eV)
  ---------------------------------------------------
  free  energy   TOTEN  =      -166.13028728 eV

  energy  without entropy=     -166.13024230  energy(sigma->0) =     -166.13026479
 


--------------------------------------------------------------------------------------------------------


    POTLOK:  cpu time    0.1936: real time    0.1947


--------------------------------------------------------------------------------------------------------


     LOOP+:  cpu time 1634.4529: real time 1639.7280
    4ORBIT:  cpu time    0.0000: real time    0.0000

 total amount of memory used by VASP MPI-rank0   430232. kBytes
=======================================================================

   base      :      30000. kBytes
   nonl-proj :     117158. kBytes
   fftplans  :      35923. kBytes
   grid      :      16822. kBytes
   one-center:          9. kBytes
   wavefun   :     230320. kBytes
 
  
  
 General timing and accounting informations for this job:
 ========================================================
  
                  Total CPU time used (sec):     1662.610
                            User time (sec):     1607.192
                          System time (sec):       55.418
                         Elapsed time (sec):     1668.496
  
                   Maximum memory used (kb):      557844.
                   Average memory used (kb):           0.
  
                          Minor page faults:       283168
                          Major page faults:            0
                 Voluntary context switches:         2873
