<?xml version="1.0" encoding="ISO-8859-1"?>
<modeling>
 <generator>
  <i name="program" type="string">vasp </i>
  <i name="version" type="string">5.4.4.18Apr17-6-g9f103f2a35  </i>
  <i name="subversion" type="string">(build May 31 2018 21:15:54) complex            parallel </i>
  <i name="platform" type="string">c7_intel_O1 </i>
  <i name="date" type="string">2020 08 11 </i>
  <i name="time" type="string">21:53:21 </i>
 </generator>
 <incar>
  <i type="string" name="SYSTEM"> C-2</i>
  <i type="int" name="ISTART">     0</i>
  <i type="string" name="PREC">accurate</i>
  <i type="string" name="ALGO"> N</i>
  <i type="logical" name="ADDGRID"> T  </i>
  <i name="AMIN">      0.01000000</i>
  <i type="int" name="ICHARG">     2</i>
  <i type="int" name="NELMIN">     5</i>
  <i type="int" name="IBRION">    -1</i>
  <i name="EDIFF">      0.00000001</i>
  <i name="EDIFFG">     -0.00000001</i>
  <i type="int" name="NSW">     0</i>
  <i name="SYMPREC">      0.00010000</i>
  <i name="ENCUT">    800.00000000</i>
  <i type="logical" name="LREAL"> F  </i>
  <i type="int" name="ISMEAR">     0</i>
  <i name="SIGMA">      0.01000000</i>
  <i type="logical" name="LWAVE"> F  </i>
  <i type="logical" name="LCHARG"> F  </i>
  <v type="int" name="KPOINT_BSE">    -1     0     0     0</v>
 </incar>
 <structure name="primitive_cell" >
  <crystal>
   <varray name="basis" >
    <v>       6.39000000      -3.68926800       0.00000000 </v>
    <v>       6.39000000       3.68926800       0.00000000 </v>
    <v>       0.00000000       0.00000000      20.00000000 </v>
   </varray>
   <i name="volume">    942.97690080 </i>
   <varray name="rec_basis" >
    <v>       0.07824726      -0.13552824       0.00000000 </v>
    <v>       0.07824726       0.13552824       0.00000000 </v>
    <v>       0.00000000       0.00000000       0.05000000 </v>
   </varray>
  </crystal>
  <varray name="positions" >
   <v>       0.00046900       0.00000000       0.00046900 </v>
   <v>       0.11111100       0.11111100       0.00000000 </v>
   <v>       0.11111100      -0.22222200       0.00000000 </v>
   <v>      -0.22222200       0.11111100       0.00000000 </v>
   <v>       0.33333300       0.00000000       0.00000000 </v>
   <v>       0.33333300      -0.33333300       0.00000000 </v>
   <v>       0.00000000       0.33333300       0.00000000 </v>
   <v>      -0.33333300       0.33333300       0.00000000 </v>
   <v>       0.00000000      -0.33333300       0.00000000 </v>
   <v>      -0.33333300       0.00000000       0.00000000 </v>
   <v>       0.44444400      -0.22222200       0.00000000 </v>
   <v>      -0.22222200       0.44444400       0.00000000 </v>
   <v>      -0.22222200      -0.22222200       0.00000000 </v>
   <v>       0.44444400       0.11111100       0.00000000 </v>
   <v>       0.11111100       0.44444400       0.00000000 </v>
   <v>       0.44444400       0.44444400       0.00000000 </v>
   <v>       0.33333300       0.33333300       0.00000000 </v>
   <v>      -0.33333300      -0.33333300       0.00000000 </v>
  </varray>
 </structure>
 <varray name="primitive_index" >
  <v type="int" >        1 </v>
  <v type="int" >       10 </v>
  <v type="int" >       16 </v>
  <v type="int" >       12 </v>
  <v type="int" >        2 </v>
  <v type="int" >        8 </v>
  <v type="int" >        4 </v>
  <v type="int" >        6 </v>
  <v type="int" >        7 </v>
  <v type="int" >        3 </v>
  <v type="int" >       17 </v>
  <v type="int" >       15 </v>
  <v type="int" >       18 </v>
  <v type="int" >       11 </v>
  <v type="int" >       13 </v>
  <v type="int" >       14 </v>
  <v type="int" >        5 </v>
  <v type="int" >        9 </v>
 </varray>
 <kpoints>
  <generation param="Gamma">
   <v type="int" name="divisions">      21       21        1 </v>
   <v name="usershift">      0.00000000       0.00000000       0.00000000 </v>
   <v name="genvec1">      0.04761905      -0.00000000       0.00000000 </v>
   <v name="genvec2">     -0.00000000       0.04761905       0.00000000 </v>
   <v name="genvec3">      0.00000000       0.00000000       1.00000000 </v>
   <v name="shift">      0.00000000       0.00000000       0.00000000 </v>
  </generation>
  <varray name="kpointlist" >
   <v>       0.00000000       0.00000000       0.00000000 </v>
   <v>       0.04761905       0.00000000       0.00000000 </v>
   <v>       0.09523810       0.00000000       0.00000000 </v>
   <v>       0.14285714       0.00000000       0.00000000 </v>
   <v>       0.19047619       0.00000000       0.00000000 </v>
   <v>       0.23809524       0.00000000       0.00000000 </v>
   <v>       0.28571429       0.00000000       0.00000000 </v>
   <v>       0.33333333       0.00000000       0.00000000 </v>
   <v>       0.38095238       0.00000000       0.00000000 </v>
   <v>       0.42857143       0.00000000       0.00000000 </v>
   <v>       0.47619048       0.00000000       0.00000000 </v>
   <v>       0.00000000       0.04761905       0.00000000 </v>
   <v>       0.04761905       0.04761905       0.00000000 </v>
   <v>       0.09523810       0.04761905       0.00000000 </v>
   <v>       0.14285714       0.04761905       0.00000000 </v>
   <v>       0.19047619       0.04761905       0.00000000 </v>
   <v>       0.23809524       0.04761905       0.00000000 </v>
   <v>       0.28571429       0.04761905       0.00000000 </v>
   <v>       0.33333333       0.04761905       0.00000000 </v>
   <v>       0.38095238       0.04761905       0.00000000 </v>
   <v>       0.42857143       0.04761905       0.00000000 </v>
   <v>       0.47619048       0.04761905       0.00000000 </v>
   <v>      -0.47619048       0.04761905       0.00000000 </v>
   <v>      -0.42857143       0.04761905       0.00000000 </v>
   <v>      -0.38095238       0.04761905       0.00000000 </v>
   <v>      -0.33333333       0.04761905       0.00000000 </v>
   <v>      -0.28571429       0.04761905       0.00000000 </v>
   <v>      -0.23809524       0.04761905       0.00000000 </v>
   <v>      -0.19047619       0.04761905       0.00000000 </v>
   <v>      -0.14285714       0.04761905       0.00000000 </v>
   <v>      -0.09523810       0.04761905       0.00000000 </v>
   <v>      -0.04761905       0.04761905       0.00000000 </v>
   <v>       0.00000000       0.09523810       0.00000000 </v>
   <v>       0.04761905       0.09523810       0.00000000 </v>
   <v>       0.09523810       0.09523810       0.00000000 </v>
   <v>       0.14285714       0.09523810       0.00000000 </v>
   <v>       0.19047619       0.09523810       0.00000000 </v>
   <v>       0.23809524       0.09523810       0.00000000 </v>
   <v>       0.28571429       0.09523810       0.00000000 </v>
   <v>       0.33333333       0.09523810       0.00000000 </v>
   <v>       0.38095238       0.09523810       0.00000000 </v>
   <v>       0.42857143       0.09523810       0.00000000 </v>
   <v>       0.47619048       0.09523810       0.00000000 </v>
   <v>      -0.47619048       0.09523810       0.00000000 </v>
   <v>      -0.42857143       0.09523810       0.00000000 </v>
   <v>      -0.38095238       0.09523810       0.00000000 </v>
   <v>      -0.33333333       0.09523810       0.00000000 </v>
   <v>      -0.28571429       0.09523810       0.00000000 </v>
   <v>      -0.23809524       0.09523810       0.00000000 </v>
   <v>      -0.19047619       0.09523810       0.00000000 </v>
   <v>      -0.14285714       0.09523810       0.00000000 </v>
   <v>      -0.09523810       0.09523810       0.00000000 </v>
   <v>      -0.04761905       0.09523810       0.00000000 </v>
   <v>       0.00000000       0.14285714       0.00000000 </v>
   <v>       0.04761905       0.14285714       0.00000000 </v>
   <v>       0.09523810       0.14285714       0.00000000 </v>
   <v>       0.14285714       0.14285714       0.00000000 </v>
   <v>       0.19047619       0.14285714       0.00000000 </v>
   <v>       0.23809524       0.14285714       0.00000000 </v>
   <v>       0.28571429       0.14285714       0.00000000 </v>
   <v>       0.33333333       0.14285714       0.00000000 </v>
   <v>       0.38095238       0.14285714       0.00000000 </v>
   <v>       0.42857143       0.14285714       0.00000000 </v>
   <v>       0.47619048       0.14285714       0.00000000 </v>
   <v>      -0.47619048       0.14285714       0.00000000 </v>
   <v>      -0.42857143       0.14285714       0.00000000 </v>
   <v>      -0.38095238       0.14285714       0.00000000 </v>
   <v>      -0.33333333       0.14285714       0.00000000 </v>
   <v>      -0.28571429       0.14285714       0.00000000 </v>
   <v>      -0.23809524       0.14285714       0.00000000 </v>
   <v>      -0.19047619       0.14285714       0.00000000 </v>
   <v>      -0.14285714       0.14285714       0.00000000 </v>
   <v>      -0.09523810       0.14285714       0.00000000 </v>
   <v>      -0.04761905       0.14285714       0.00000000 </v>
   <v>       0.00000000       0.19047619       0.00000000 </v>
   <v>       0.04761905       0.19047619       0.00000000 </v>
   <v>       0.09523810       0.19047619       0.00000000 </v>
   <v>       0.14285714       0.19047619       0.00000000 </v>
   <v>       0.19047619       0.19047619       0.00000000 </v>
   <v>       0.23809524       0.19047619       0.00000000 </v>
   <v>       0.28571429       0.19047619       0.00000000 </v>
   <v>       0.33333333       0.19047619       0.00000000 </v>
   <v>       0.38095238       0.19047619       0.00000000 </v>
   <v>       0.42857143       0.19047619       0.00000000 </v>
   <v>       0.47619048       0.19047619       0.00000000 </v>
   <v>      -0.47619048       0.19047619       0.00000000 </v>
   <v>      -0.42857143       0.19047619       0.00000000 </v>
   <v>      -0.38095238       0.19047619       0.00000000 </v>
   <v>      -0.33333333       0.19047619       0.00000000 </v>
   <v>      -0.28571429       0.19047619       0.00000000 </v>
   <v>      -0.23809524       0.19047619       0.00000000 </v>
   <v>      -0.19047619       0.19047619       0.00000000 </v>
   <v>      -0.14285714       0.19047619       0.00000000 </v>
   <v>      -0.09523810       0.19047619       0.00000000 </v>
   <v>      -0.04761905       0.19047619       0.00000000 </v>
   <v>       0.00000000       0.23809524       0.00000000 </v>
   <v>       0.04761905       0.23809524       0.00000000 </v>
   <v>       0.09523810       0.23809524       0.00000000 </v>
   <v>       0.14285714       0.23809524       0.00000000 </v>
   <v>       0.19047619       0.23809524       0.00000000 </v>
   <v>       0.23809524       0.23809524       0.00000000 </v>
   <v>       0.28571429       0.23809524       0.00000000 </v>
   <v>       0.33333333       0.23809524       0.00000000 </v>
   <v>       0.38095238       0.23809524       0.00000000 </v>
   <v>       0.42857143       0.23809524       0.00000000 </v>
   <v>       0.47619048       0.23809524       0.00000000 </v>
   <v>      -0.47619048       0.23809524       0.00000000 </v>
   <v>      -0.42857143       0.23809524       0.00000000 </v>
   <v>      -0.38095238       0.23809524       0.00000000 </v>
   <v>      -0.33333333       0.23809524       0.00000000 </v>
   <v>      -0.28571429       0.23809524       0.00000000 </v>
   <v>      -0.23809524       0.23809524       0.00000000 </v>
   <v>      -0.19047619       0.23809524       0.00000000 </v>
   <v>      -0.14285714       0.23809524       0.00000000 </v>
   <v>      -0.09523810       0.23809524       0.00000000 </v>
   <v>      -0.04761905       0.23809524       0.00000000 </v>
   <v>       0.00000000       0.28571429       0.00000000 </v>
   <v>       0.04761905       0.28571429       0.00000000 </v>
   <v>       0.09523810       0.28571429       0.00000000 </v>
   <v>       0.14285714       0.28571429       0.00000000 </v>
   <v>       0.19047619       0.28571429       0.00000000 </v>
   <v>       0.23809524       0.28571429       0.00000000 </v>
   <v>       0.28571429       0.28571429       0.00000000 </v>
   <v>       0.33333333       0.28571429       0.00000000 </v>
   <v>       0.38095238       0.28571429       0.00000000 </v>
   <v>       0.42857143       0.28571429       0.00000000 </v>
   <v>       0.47619048       0.28571429       0.00000000 </v>
   <v>      -0.47619048       0.28571429       0.00000000 </v>
   <v>      -0.42857143       0.28571429       0.00000000 </v>
   <v>      -0.38095238       0.28571429       0.00000000 </v>
   <v>      -0.33333333       0.28571429       0.00000000 </v>
   <v>      -0.28571429       0.28571429       0.00000000 </v>
   <v>      -0.23809524       0.28571429       0.00000000 </v>
   <v>      -0.19047619       0.28571429       0.00000000 </v>
   <v>      -0.14285714       0.28571429       0.00000000 </v>
   <v>      -0.09523810       0.28571429       0.00000000 </v>
   <v>      -0.04761905       0.28571429       0.00000000 </v>
   <v>       0.00000000       0.33333333       0.00000000 </v>
   <v>       0.04761905       0.33333333       0.00000000 </v>
   <v>       0.09523810       0.33333333       0.00000000 </v>
   <v>       0.14285714       0.33333333       0.00000000 </v>
   <v>       0.19047619       0.33333333       0.00000000 </v>
   <v>       0.23809524       0.33333333       0.00000000 </v>
   <v>       0.28571429       0.33333333       0.00000000 </v>
   <v>       0.33333333       0.33333333       0.00000000 </v>
   <v>       0.38095238       0.33333333       0.00000000 </v>
   <v>       0.42857143       0.33333333       0.00000000 </v>
   <v>       0.47619048       0.33333333       0.00000000 </v>
   <v>      -0.47619048       0.33333333       0.00000000 </v>
   <v>      -0.42857143       0.33333333       0.00000000 </v>
   <v>      -0.38095238       0.33333333       0.00000000 </v>
   <v>      -0.33333333       0.33333333       0.00000000 </v>
   <v>      -0.28571429       0.33333333       0.00000000 </v>
   <v>      -0.23809524       0.33333333       0.00000000 </v>
   <v>      -0.19047619       0.33333333       0.00000000 </v>
   <v>      -0.14285714       0.33333333       0.00000000 </v>
   <v>      -0.09523810       0.33333333       0.00000000 </v>
   <v>      -0.04761905       0.33333333       0.00000000 </v>
   <v>       0.00000000       0.38095238       0.00000000 </v>
   <v>       0.04761905       0.38095238       0.00000000 </v>
   <v>       0.09523810       0.38095238       0.00000000 </v>
   <v>       0.14285714       0.38095238       0.00000000 </v>
   <v>       0.19047619       0.38095238       0.00000000 </v>
   <v>       0.23809524       0.38095238       0.00000000 </v>
   <v>       0.28571429       0.38095238       0.00000000 </v>
   <v>       0.33333333       0.38095238       0.00000000 </v>
   <v>       0.38095238       0.38095238       0.00000000 </v>
   <v>       0.42857143       0.38095238       0.00000000 </v>
   <v>       0.47619048       0.38095238       0.00000000 </v>
   <v>      -0.47619048       0.38095238       0.00000000 </v>
   <v>      -0.42857143       0.38095238       0.00000000 </v>
   <v>      -0.38095238       0.38095238       0.00000000 </v>
   <v>      -0.33333333       0.38095238       0.00000000 </v>
   <v>      -0.28571429       0.38095238       0.00000000 </v>
   <v>      -0.23809524       0.38095238       0.00000000 </v>
   <v>      -0.19047619       0.38095238       0.00000000 </v>
   <v>      -0.14285714       0.38095238       0.00000000 </v>
   <v>      -0.09523810       0.38095238       0.00000000 </v>
   <v>      -0.04761905       0.38095238       0.00000000 </v>
   <v>       0.00000000       0.42857143       0.00000000 </v>
   <v>       0.04761905       0.42857143       0.00000000 </v>
   <v>       0.09523810       0.42857143       0.00000000 </v>
   <v>       0.14285714       0.42857143       0.00000000 </v>
   <v>       0.19047619       0.42857143       0.00000000 </v>
   <v>       0.23809524       0.42857143       0.00000000 </v>
   <v>       0.28571429       0.42857143       0.00000000 </v>
   <v>       0.33333333       0.42857143       0.00000000 </v>
   <v>       0.38095238       0.42857143       0.00000000 </v>
   <v>       0.42857143       0.42857143       0.00000000 </v>
   <v>       0.47619048       0.42857143       0.00000000 </v>
   <v>      -0.47619048       0.42857143       0.00000000 </v>
   <v>      -0.42857143       0.42857143       0.00000000 </v>
   <v>      -0.38095238       0.42857143       0.00000000 </v>
   <v>      -0.33333333       0.42857143       0.00000000 </v>
   <v>      -0.28571429       0.42857143       0.00000000 </v>
   <v>      -0.23809524       0.42857143       0.00000000 </v>
   <v>      -0.19047619       0.42857143       0.00000000 </v>
   <v>      -0.14285714       0.42857143       0.00000000 </v>
   <v>      -0.09523810       0.42857143       0.00000000 </v>
   <v>      -0.04761905       0.42857143       0.00000000 </v>
   <v>       0.00000000       0.47619048       0.00000000 </v>
   <v>       0.04761905       0.47619048       0.00000000 </v>
   <v>       0.09523810       0.47619048       0.00000000 </v>
   <v>       0.14285714       0.47619048       0.00000000 </v>
   <v>       0.19047619       0.47619048       0.00000000 </v>
   <v>       0.23809524       0.47619048       0.00000000 </v>
   <v>       0.28571429       0.47619048       0.00000000 </v>
   <v>       0.33333333       0.47619048       0.00000000 </v>
   <v>       0.38095238       0.47619048       0.00000000 </v>
   <v>       0.42857143       0.47619048       0.00000000 </v>
   <v>       0.47619048       0.47619048       0.00000000 </v>
   <v>      -0.47619048       0.47619048       0.00000000 </v>
   <v>      -0.42857143       0.47619048       0.00000000 </v>
   <v>      -0.38095238       0.47619048       0.00000000 </v>
   <v>      -0.33333333       0.47619048       0.00000000 </v>
   <v>      -0.28571429       0.47619048       0.00000000 </v>
   <v>      -0.23809524       0.47619048       0.00000000 </v>
   <v>      -0.19047619       0.47619048       0.00000000 </v>
   <v>      -0.14285714       0.47619048       0.00000000 </v>
   <v>      -0.09523810       0.47619048       0.00000000 </v>
   <v>      -0.04761905       0.47619048       0.00000000 </v>
  </varray>
  <varray name="weights" >
   <v>       0.00226757 </v>
   <v>       0.00453515 </v>
   <v>       0.00453515 </v>
   <v>       0.00453515 </v>
   <v>       0.00453515 </v>
   <v>       0.00453515 </v>
   <v>       0.00453515 </v>
   <v>       0.00453515 </v>
   <v>       0.00453515 </v>
   <v>       0.00453515 </v>
   <v>       0.00453515 </v>
   <v>       0.00453515 </v>
   <v>       0.00453515 </v>
   <v>       0.00453515 </v>
   <v>       0.00453515 </v>
   <v>       0.00453515 </v>
   <v>       0.00453515 </v>
   <v>       0.00453515 </v>
   <v>       0.00453515 </v>
   <v>       0.00453515 </v>
   <v>       0.00453515 </v>
   <v>       0.00453515 </v>
   <v>       0.00453515 </v>
   <v>       0.00453515 </v>
   <v>       0.00453515 </v>
   <v>       0.00453515 </v>
   <v>       0.00453515 </v>
   <v>       0.00453515 </v>
   <v>       0.00453515 </v>
   <v>       0.00453515 </v>
   <v>       0.00453515 </v>
   <v>       0.00453515 </v>
   <v>       0.00453515 </v>
   <v>       0.00453515 </v>
   <v>       0.00453515 </v>
   <v>       0.00453515 </v>
   <v>       0.00453515 </v>
   <v>       0.00453515 </v>
   <v>       0.00453515 </v>
   <v>       0.00453515 </v>
   <v>       0.00453515 </v>
   <v>       0.00453515 </v>
   <v>       0.00453515 </v>
   <v>       0.00453515 </v>
   <v>       0.00453515 </v>
   <v>       0.00453515 </v>
   <v>       0.00453515 </v>
   <v>       0.00453515 </v>
   <v>       0.00453515 </v>
   <v>       0.00453515 </v>
   <v>       0.00453515 </v>
   <v>       0.00453515 </v>
   <v>       0.00453515 </v>
   <v>       0.00453515 </v>
   <v>       0.00453515 </v>
   <v>       0.00453515 </v>
   <v>       0.00453515 </v>
   <v>       0.00453515 </v>
   <v>       0.00453515 </v>
   <v>       0.00453515 </v>
   <v>       0.00453515 </v>
   <v>       0.00453515 </v>
   <v>       0.00453515 </v>
   <v>       0.00453515 </v>
   <v>       0.00453515 </v>
   <v>       0.00453515 </v>
   <v>       0.00453515 </v>
   <v>       0.00453515 </v>
   <v>       0.00453515 </v>
   <v>       0.00453515 </v>
   <v>       0.00453515 </v>
   <v>       0.00453515 </v>
   <v>       0.00453515 </v>
   <v>       0.00453515 </v>
   <v>       0.00453515 </v>
   <v>       0.00453515 </v>
   <v>       0.00453515 </v>
   <v>       0.00453515 </v>
   <v>       0.00453515 </v>
   <v>       0.00453515 </v>
   <v>       0.00453515 </v>
   <v>       0.00453515 </v>
   <v>       0.00453515 </v>
   <v>       0.00453515 </v>
   <v>       0.00453515 </v>
   <v>       0.00453515 </v>
   <v>       0.00453515 </v>
   <v>       0.00453515 </v>
   <v>       0.00453515 </v>
   <v>       0.00453515 </v>
   <v>       0.00453515 </v>
   <v>       0.00453515 </v>
   <v>       0.00453515 </v>
   <v>       0.00453515 </v>
   <v>       0.00453515 </v>
   <v>       0.00453515 </v>
   <v>       0.00453515 </v>
   <v>       0.00453515 </v>
   <v>       0.00453515 </v>
   <v>       0.00453515 </v>
   <v>       0.00453515 </v>
   <v>       0.00453515 </v>
   <v>       0.00453515 </v>
   <v>       0.00453515 </v>
   <v>       0.00453515 </v>
   <v>       0.00453515 </v>
   <v>       0.00453515 </v>
   <v>       0.00453515 </v>
   <v>       0.00453515 </v>
   <v>       0.00453515 </v>
   <v>       0.00453515 </v>
   <v>       0.00453515 </v>
   <v>       0.00453515 </v>
   <v>       0.00453515 </v>
   <v>       0.00453515 </v>
   <v>       0.00453515 </v>
   <v>       0.00453515 </v>
   <v>       0.00453515 </v>
   <v>       0.00453515 </v>
   <v>       0.00453515 </v>
   <v>       0.00453515 </v>
   <v>       0.00453515 </v>
   <v>       0.00453515 </v>
   <v>       0.00453515 </v>
   <v>       0.00453515 </v>
   <v>       0.00453515 </v>
   <v>       0.00453515 </v>
   <v>       0.00453515 </v>
   <v>       0.00453515 </v>
   <v>       0.00453515 </v>
   <v>       0.00453515 </v>
   <v>       0.00453515 </v>
   <v>       0.00453515 </v>
   <v>       0.00453515 </v>
   <v>       0.00453515 </v>
   <v>       0.00453515 </v>
   <v>       0.00453515 </v>
   <v>       0.00453515 </v>
   <v>       0.00453515 </v>
   <v>       0.00453515 </v>
   <v>       0.00453515 </v>
   <v>       0.00453515 </v>
   <v>       0.00453515 </v>
   <v>       0.00453515 </v>
   <v>       0.00453515 </v>
   <v>       0.00453515 </v>
   <v>       0.00453515 </v>
   <v>       0.00453515 </v>
   <v>       0.00453515 </v>
   <v>       0.00453515 </v>
   <v>       0.00453515 </v>
   <v>       0.00453515 </v>
   <v>       0.00453515 </v>
   <v>       0.00453515 </v>
   <v>       0.00453515 </v>
   <v>       0.00453515 </v>
   <v>       0.00453515 </v>
   <v>       0.00453515 </v>
   <v>       0.00453515 </v>
   <v>       0.00453515 </v>
   <v>       0.00453515 </v>
   <v>       0.00453515 </v>
   <v>       0.00453515 </v>
   <v>       0.00453515 </v>
   <v>       0.00453515 </v>
   <v>       0.00453515 </v>
   <v>       0.00453515 </v>
   <v>       0.00453515 </v>
   <v>       0.00453515 </v>
   <v>       0.00453515 </v>
   <v>       0.00453515 </v>
   <v>       0.00453515 </v>
   <v>       0.00453515 </v>
   <v>       0.00453515 </v>
   <v>       0.00453515 </v>
   <v>       0.00453515 </v>
   <v>       0.00453515 </v>
   <v>       0.00453515 </v>
   <v>       0.00453515 </v>
   <v>       0.00453515 </v>
   <v>       0.00453515 </v>
   <v>       0.00453515 </v>
   <v>       0.00453515 </v>
   <v>       0.00453515 </v>
   <v>       0.00453515 </v>
   <v>       0.00453515 </v>
   <v>       0.00453515 </v>
   <v>       0.00453515 </v>
   <v>       0.00453515 </v>
   <v>       0.00453515 </v>
   <v>       0.00453515 </v>
   <v>       0.00453515 </v>
   <v>       0.00453515 </v>
   <v>       0.00453515 </v>
   <v>       0.00453515 </v>
   <v>       0.00453515 </v>
   <v>       0.00453515 </v>
   <v>       0.00453515 </v>
   <v>       0.00453515 </v>
   <v>       0.00453515 </v>
   <v>       0.00453515 </v>
   <v>       0.00453515 </v>
   <v>       0.00453515 </v>
   <v>       0.00453515 </v>
   <v>       0.00453515 </v>
   <v>       0.00453515 </v>
   <v>       0.00453515 </v>
   <v>       0.00453515 </v>
   <v>       0.00453515 </v>
   <v>       0.00453515 </v>
   <v>       0.00453515 </v>
   <v>       0.00453515 </v>
   <v>       0.00453515 </v>
   <v>       0.00453515 </v>
   <v>       0.00453515 </v>
   <v>       0.00453515 </v>
   <v>       0.00453515 </v>
   <v>       0.00453515 </v>
   <v>       0.00453515 </v>
   <v>       0.00453515 </v>
   <v>       0.00453515 </v>
  </varray>
 </kpoints>
 <parameters>
  <separator name="general" >
   <i type="string" name="SYSTEM">C-2</i>
   <i type="logical" name="LCOMPAT"> F  </i>
  </separator>
  <separator name="electronic" >
   <i type="string" name="PREC">accura</i>
   <i name="ENMAX">    800.00000000</i>
   <i name="ENAUG">    644.87300000</i>
   <i name="EDIFF">      0.00000001</i>
   <i type="int" name="IALGO">    38</i>
   <i type="int" name="IWAVPR">    10</i>
   <i type="int" name="NBANDS">    48</i>
   <i name="NELECT">     72.00000000</i>
   <i type="int" name="TURBO">     0</i>
   <i type="int" name="IRESTART">     0</i>
   <i type="int" name="NREBOOT">     0</i>
   <i type="int" name="NMIN">     0</i>
   <i name="EREF">      0.00000000</i>
   <separator name="electronic smearing" >
    <i type="int" name="ISMEAR">     0</i>
    <i name="SIGMA">      0.01000000</i>
    <i name="KSPACING">      0.50000000</i>
    <i type="logical" name="KGAMMA"> T  </i>
   </separator>
   <separator name="electronic projectors" >
    <i type="logical" name="LREAL"> F  </i>
    <v name="ROPT">      0.00000000</v>
    <i type="int" name="LMAXPAW">  -100</i>
    <i type="int" name="LMAXMIX">     2</i>
    <i type="logical" name="NLSPLINE"> F  </i>
   </separator>
   <separator name="electronic startup" >
    <i type="int" name="ISTART">     0</i>
    <i type="int" name="ICHARG">     2</i>
    <i type="int" name="INIWAV">     1</i>
   </separator>
   <separator name="electronic spin" >
    <i type="int" name="ISPIN">     1</i>
    <i type="logical" name="LNONCOLLINEAR"> F  </i>
    <v name="MAGMOM">      1.00000000      1.00000000      1.00000000      1.00000000      1.00000000      1.00000000      1.00000000      1.00000000      1.00000000      1.00000000      1.00000000      1.00000000      1.00000000      1.00000000      1.00000000      1.00000000      1.00000000      1.00000000</v>
    <i name="NUPDOWN">     -1.00000000</i>
    <i type="logical" name="LSORBIT"> F  </i>
    <v name="SAXIS">      0.00000000      0.00000000      1.00000000</v>
    <i type="logical" name="LSPIRAL"> F  </i>
    <v name="QSPIRAL">      0.00000000      0.00000000      0.00000000</v>
    <i type="logical" name="LZEROZ"> F  </i>
   </separator>
   <separator name="electronic exchange-correlation" >
    <i type="logical" name="LASPH"> F  </i>
    <i type="logical" name="LMETAGGA"> F  </i>
   </separator>
   <separator name="electronic convergence" >
    <i type="int" name="NELM">    60</i>
    <i type="int" name="NELMDL">    -5</i>
    <i type="int" name="NELMIN">     5</i>
    <i name="ENINI">    800.00000000</i>
    <separator name="electronic convergence detail" >
     <i type="logical" name="LDIAG"> T  </i>
     <i type="logical" name="LSUBROT"> F  </i>
     <i name="WEIMIN">      0.00000000</i>
     <i name="EBREAK">      0.00000000</i>
     <i name="DEPER">      0.30000000</i>
     <i type="int" name="NRMM">     4</i>
     <i name="TIME">      0.40000000</i>
    </separator>
   </separator>
   <separator name="electronic mixer" >
    <i name="AMIX">      0.40000000</i>
    <i name="BMIX">      1.00000000</i>
    <i name="AMIN">      0.01000000</i>
    <i name="AMIX_MAG">      1.60000000</i>
    <i name="BMIX_MAG">      1.00000000</i>
    <separator name="electronic mixer details" >
     <i type="int" name="IMIX">     4</i>
     <i type="logical" name="MIXFIRST"> F  </i>
     <i type="int" name="MAXMIX">   -45</i>
     <i name="WC">    100.00000000</i>
     <i type="int" name="INIMIX">     1</i>
     <i type="int" name="MIXPRE">     1</i>
     <i type="int" name="MREMOVE">     5</i>
    </separator>
   </separator>
   <separator name="electronic dipolcorrection" >
    <i type="logical" name="LDIPOL"> F  </i>
    <i type="logical" name="LMONO"> F  </i>
    <i type="int" name="IDIPOL">     0</i>
    <i name="EPSILON">      1.00000000</i>
    <v name="DIPOL">   -100.00000000   -100.00000000   -100.00000000</v>
    <i name="EFIELD">      0.00000000</i>
   </separator>
  </separator>
  <separator name="grids" >
   <i type="int" name="NGX">    70</i>
   <i type="int" name="NGY">    70</i>
   <i type="int" name="NGZ">   192</i>
   <i type="int" name="NGXF">   140</i>
   <i type="int" name="NGYF">   140</i>
   <i type="int" name="NGZF">   384</i>
   <i type="logical" name="ADDGRID"> T  </i>
  </separator>
  <separator name="ionic" >
   <i type="int" name="NSW">     0</i>
   <i type="int" name="IBRION">    -1</i>
   <i type="int" name="MDALGO">     0</i>
   <i type="int" name="ISIF">     2</i>
   <i name="PSTRESS">      0.00000000</i>
   <i name="EDIFFG">     -0.00000001</i>
   <i type="int" name="NFREE">     0</i>
   <i name="POTIM">      0.50000000</i>
   <i name="SMASS">     -3.00000000</i>
   <i name="SCALEE">      1.00000000</i>
  </separator>
  <separator name="ionic md" >
   <i name="TEBEG">      0.00010000</i>
   <i name="TEEND">      0.00010000</i>
   <i type="int" name="NBLOCK">     1</i>
   <i type="int" name="KBLOCK">     1</i>
   <i type="int" name="NPACO">   256</i>
   <i name="APACO">     16.00000000</i>
  </separator>
  <separator name="symmetry" >
   <i type="int" name="ISYM">     2</i>
   <i name="SYMPREC">      0.00010000</i>
  </separator>
  <separator name="dos" >
   <i type="int" name="LORBIT">     0</i>
   <v name="RWIGS">     -1.00000000</v>
   <i type="int" name="NEDOS">   301</i>
   <i name="EMIN">     10.00000000</i>
   <i name="EMAX">    -10.00000000</i>
   <i name="EFERMI">      0.00000000</i>
  </separator>
  <separator name="writing" >
   <i type="int" name="NWRITE">     2</i>
   <i type="logical" name="LWAVE"> F  </i>
   <i type="logical" name="LDOWNSAMPLE"> F  </i>
   <i type="logical" name="LCHARG"> F  </i>
   <i type="logical" name="LPARD"> F  </i>
   <i type="logical" name="LVTOT"> F  </i>
   <i type="logical" name="LVHAR"> F  </i>
   <i type="logical" name="LELF"> F  </i>
   <i type="logical" name="LOPTICS"> F  </i>
   <v name="STM">      0.00000000      0.00000000      0.00000000      0.00000000      0.00000000      0.00000000      0.00000000</v>
  </separator>
  <separator name="performance" >
   <i type="int" name="NPAR">     6</i>
   <i type="int" name="NSIM">     4</i>
   <i type="int" name="NBLK">    -1</i>
   <i type="logical" name="LPLANE"> T  </i>
   <i type="logical" name="LSCALAPACK"> T  </i>
   <i type="logical" name="LSCAAWARE"> F  </i>
   <i type="logical" name="LSCALU"> F  </i>
   <i type="logical" name="LASYNC"> F  </i>
   <i type="logical" name="LORBITALREAL"> F  </i>
  </separator>
  <separator name="miscellaneous" >
   <i type="int" name="IDIOT">     3</i>
   <i type="int" name="ISPECIAL">     0</i>
   <i type="logical" name="LMUSIC"> F  </i>
   <v name="POMASS">     12.01100000</v>
   <v name="DARWINR">      0.00000000</v>
   <v name="DARWINV">      1.00000000</v>
   <i type="logical" name="LCORR"> T  </i>
  </separator>
  <i type="logical" name="GGA_COMPAT"> T  </i>
  <i type="logical" name="LBERRY"> F  </i>
  <i type="int" name="ICORELEVEL">     0</i>
  <i type="logical" name="LDAU"> F  </i>
  <i type="int" name="I_CONSTRAINED_M">     0</i>
  <separator name="electronic exchange-correlation" >
   <i type="string" name="GGA">--</i>
   <i type="int" name="VOSKOWN">     0</i>
   <i type="logical" name="LHFCALC"> F  </i>
   <i type="string" name="PRECFOCK"></i>
   <i type="logical" name="LSYMGRAD"> F  </i>
   <i type="logical" name="LHFONE"> F  </i>
   <i type="logical" name="LRHFCALC"> F  </i>
   <i type="logical" name="LTHOMAS"> F  </i>
   <i type="logical" name="LMODELHF"> F  </i>
   <i name="ENCUT4O">     -1.00000000</i>
   <i type="int" name="EXXOEP">     0</i>
   <i type="int" name="FOURORBIT">     0</i>
   <i name="AEXX">      0.00000000</i>
   <i name="HFALPHA">      0.00000000</i>
   <i name="MCALPHA">      0.00000000</i>
   <i name="ALDAX">      1.00000000</i>
   <i name="AGGAX">      1.00000000</i>
   <i name="ALDAC">      1.00000000</i>
   <i name="AGGAC">      1.00000000</i>
   <i type="int" name="NKREDX">     1</i>
   <i type="int" name="NKREDY">     1</i>
   <i type="int" name="NKREDZ">     1</i>
   <i type="logical" name="SHIFTRED"> F  </i>
   <i type="logical" name="ODDONLY"> F  </i>
   <i type="logical" name="EVENONLY"> F  </i>
   <i type="int" name="LMAXFOCK">     0</i>
   <i type="int" name="NMAXFOCKAE">     0</i>
   <i type="logical" name="LFOCKAEDFT"> F  </i>
   <i name="HFSCREEN">      0.00000000</i>
   <i name="HFSCREENC">      0.00000000</i>
   <i type="int" name="NBANDSGWLOW">     0</i>
  </separator>
  <separator name="vdW DFT" >
   <i type="logical" name="LUSE_VDW"> F  </i>
   <i name="Zab_VDW">     -0.84910000</i>
   <i name="PARAM1">      0.12340000</i>
   <i name="PARAM2">      1.00000000</i>
   <i name="PARAM3">      0.00000000</i>
  </separator>
  <separator name="model GW" >
   <i type="int" name="MODEL_GW">     0</i>
   <i name="MODEL_EPS0">     31.43256336</i>
   <i name="MODEL_ALPHA">      1.00000000</i>
  </separator>
  <separator name="linear response parameters" >
   <i type="logical" name="LEPSILON"> F  </i>
   <i type="logical" name="LRPA"> F  </i>
   <i type="logical" name="LNABLA"> F  </i>
   <i type="logical" name="LVEL"> F  </i>
   <i type="int" name="KINTER">     0</i>
   <i name="CSHIFT">      0.10000000</i>
   <i name="OMEGAMAX">     -1.00000000</i>
   <i name="DEG_THRESHOLD">      0.00200000</i>
   <i name="RTIME">     -0.10000000</i>
   <i name="WPLASMAI">      0.00000000</i>
   <v name="DFIELD">      0.00000000      0.00000000      0.00000000</v>
   <v name="WPLASMA">      0.00000000      0.00000000      0.00000000      0.00000000      0.00000000      0.00000000      0.00000000      0.00000000      0.00000000</v>
  </separator>
  <separator name="orbital magnetization" >
   <i type="logical" name="NUCIND"> F  </i>
   <v name="MAGPOS">      0.00000000      0.00000000      0.00000000</v>
   <i type="logical" name="LNICSALL"> T  </i>
   <i type="logical" name="ORBITALMAG"> F  </i>
   <i type="logical" name="LMAGBLOCH"> F  </i>
   <i type="logical" name="LCHIMAG"> F  </i>
   <i type="logical" name="LGAUGE"> T  </i>
   <i type="int" name="MAGATOM">     0</i>
   <v name="MAGDIPOL">      0.00000000      0.00000000      0.00000000</v>
   <v name="AVECCONST">      0.00000000      0.00000000      0.00000000</v>
  </separator>
  <separator name="response functions" >
   <i type="logical" name="LADDER"> F  </i>
   <i type="logical" name="LRPAFORCE"> F  </i>
   <i type="logical" name="LFXC"> F  </i>
   <i type="logical" name="LHARTREE"> T  </i>
   <i type="int" name="IBSE">     0</i>
   <v type="int" name="KPOINT">    -1     0     0     0</v>
   <i type="logical" name="LTCTE"> F  </i>
   <i type="logical" name="LTETE"> F  </i>
   <i type="logical" name="LTRIPLET"> F  </i>
   <i type="logical" name="LFXCEPS"> F  </i>
   <i type="logical" name="LFXHEG"> F  </i>
   <i type="int" name="NATURALO">     2</i>
   <i type="logical" name="L2ORDER"> F  </i>
   <i type="logical" name="LMP2LT"> F  </i>
   <i type="logical" name="LUSEW"> F  </i>
   <i name="ENCUTGW">     -2.00000000</i>
   <i name="ENCUTGWSOFT">     -2.00000000</i>
   <i name="ENCUTLF">     -1.00000000</i>
   <i type="int" name="LMAXMP2">    -1</i>
   <i name="SCISSOR">      0.00000000</i>
   <i type="int" name="NOMEGA">     0</i>
   <i type="int" name="NOMEGAR">     0</i>
   <i type="int" name="NBANDSGW">    -1</i>
   <i type="int" name="NBANDSO">    -1</i>
   <i type="int" name="NBANDSV">    -1</i>
   <i type="int" name="NELM">     1</i>
   <i type="int" name="NELMHF">     1</i>
   <i type="int" name="DIM">     3</i>
   <i type="int" name="ANTIRES">     0</i>
   <i name="OMEGAMAX">    -30.00000000</i>
   <i name="OMEGAMIN">    -30.00000000</i>
   <i name="OMEGATL">   -200.00000000</i>
   <i type="int" name="OMEGAGRID">   140</i>
   <i name="CSHIFT">     -0.10000000</i>
   <i type="logical" name="SELFENERGY"> F  </i>
   <i type="logical" name="LSPECTRAL"> F  </i>
   <i type="logical" name="LSPECTRALGW"> F  </i>
   <i type="logical" name="LSINGLES"> F  </i>
   <i type="logical" name="LFERMIGW"> F  </i>
   <i type="logical" name="ODDONLYGW"> F  </i>
   <i type="logical" name="EVENONLYGW"> F  </i>
   <i type="int" name="NKREDLFX">     1</i>
   <i type="int" name="NKREDLFY">     1</i>
   <i type="int" name="NKREDLFZ">     1</i>
   <i type="int" name="MAXMEM">  2800</i>
   <i type="int" name="TELESCOPE">     0</i>
   <i type="int" name="TAUPAR">     1</i>
   <i type="int" name="OMEGAPAR">    -1</i>
   <i name="LAMBDA">      1.00000000</i>
  </separator>
  <separator name="External order field" >
   <i name="OFIELD_KAPPA">      0.00000000</i>
   <v name="OFIELD_K">      0.00000000      0.00000000      0.00000000</v>
   <i name="OFIELD_Q6_NEAR">      0.00000000</i>
   <i name="OFIELD_Q6_FAR">      0.00000000</i>
   <i name="OFIELD_A">      0.00000000</i>
  </separator>
 </parameters>
 <atominfo>
  <atoms>      18 </atoms>
  <types>       1 </types>
  <array name="atoms" >
   <dimension dim="1">ion</dimension>
   <field type="string">element</field>
   <field type="int">atomtype</field>
   <set>
    <rc><c>C </c><c>   1</c></rc>
    <rc><c>C </c><c>   1</c></rc>
    <rc><c>C </c><c>   1</c></rc>
    <rc><c>C </c><c>   1</c></rc>
    <rc><c>C </c><c>   1</c></rc>
    <rc><c>C </c><c>   1</c></rc>
    <rc><c>C </c><c>   1</c></rc>
    <rc><c>C </c><c>   1</c></rc>
    <rc><c>C </c><c>   1</c></rc>
    <rc><c>C </c><c>   1</c></rc>
    <rc><c>C </c><c>   1</c></rc>
    <rc><c>C </c><c>   1</c></rc>
    <rc><c>C </c><c>   1</c></rc>
    <rc><c>C </c><c>   1</c></rc>
    <rc><c>C </c><c>   1</c></rc>
    <rc><c>C </c><c>   1</c></rc>
    <rc><c>C </c><c>   1</c></rc>
    <rc><c>C </c><c>   1</c></rc>
   </set>
  </array>
  <array name="atomtypes" >
   <dimension dim="1">type</dimension>
   <field type="int">atomspertype</field>
   <field type="string">element</field>
   <field>mass</field>
   <field>valence</field>
   <field type="string">pseudopotential</field>
   <set>
    <rc><c>  18</c><c>C </c><c>     12.01100000</c><c>      4.00000000</c><c> PAW_PBE C 08Apr2002                    </c></rc>
   </set>
  </array>
 </atominfo>
 <structure name="initialpos" >
  <crystal>
   <varray name="basis" >
    <v>       6.39000000      -3.68926800       0.00000000 </v>
    <v>       6.39000000       3.68926800       0.00000000 </v>
    <v>       0.00000000       0.00000000      20.00000000 </v>
   </varray>
   <i name="volume">    942.97690080 </i>
   <varray name="rec_basis" >
    <v>       0.07824726      -0.13552824       0.00000000 </v>
    <v>       0.07824726       0.13552824       0.00000000 </v>
    <v>       0.00000000       0.00000000       0.05000000 </v>
   </varray>
  </crystal>
  <varray name="positions" >
   <v>       0.00046900       0.00000000       0.00046900 </v>
   <v>       0.33333300       0.00000000       0.00000000 </v>
   <v>       0.66666700       0.00000000       0.00000000 </v>
   <v>       0.00000000       0.33333300       0.00000000 </v>
   <v>       0.33333300       0.33333300       0.00000000 </v>
   <v>       0.66666700       0.33333300       0.00000000 </v>
   <v>       0.00000000       0.66666700       0.00000000 </v>
   <v>       0.33333300       0.66666700       0.00000000 </v>
   <v>       0.66666700       0.66666700       0.00000000 </v>
   <v>       0.11111100       0.11111100       0.00000000 </v>
   <v>       0.44444400       0.11111100       0.00000000 </v>
   <v>       0.77777800       0.11111100       0.00000000 </v>
   <v>       0.11111100       0.44444400       0.00000000 </v>
   <v>       0.44444400       0.44444400       0.00000000 </v>
   <v>       0.77777800       0.44444400       0.00000000 </v>
   <v>       0.11111100       0.77777800       0.00000000 </v>
   <v>       0.44444400       0.77777800       0.00000000 </v>
   <v>       0.77777800       0.77777800       0.00000000 </v>
  </varray>
 </structure>
 <calculation>
  <scstep>
   <time name="dav">   55.10   55.26</time>
   <time name="total">   55.31   55.49</time>
   <energy>
    <i name="alphaZ">     27.99599133 </i>
    <i name="ewald">  11727.27928553 </i>
    <i name="hartreedc"> -13636.90389693 </i>
    <i name="XCdc">    248.31592008 </i>
    <i name="pawpsdc">    680.96597573 </i>
    <i name="pawaedc">   -701.67460981 </i>
    <i name="eentropy">     -0.00025433 </i>
    <i name="bandstr">   -190.87294078 </i>
    <i name="atom">   2648.77962213 </i>
    <i name="e_fr_energy">    803.88509295 </i>
    <i name="e_wo_entrp">    803.88534728 </i>
    <i name="e_0_energy">    803.88522011 </i>
   </energy>
  </scstep>
  <scstep>
   <time name="dav">   81.48   81.70</time>
   <time name="total">   81.48   81.71</time>
   <energy>
    <i name="e_fr_energy">    -24.47050074 </i>
    <i name="e_wo_entrp">    -24.47050074 </i>
    <i name="e_0_energy">    -24.47050074 </i>
   </energy>
  </scstep>
  <scstep>
   <time name="dav">   62.04   62.24</time>
   <time name="total">   62.05   62.24</time>
   <energy>
    <i name="e_fr_energy">   -172.42834095 </i>
    <i name="e_wo_entrp">   -172.42832680 </i>
    <i name="e_0_energy">   -172.42833387 </i>
   </energy>
  </scstep>
  <scstep>
   <time name="dav">   62.84   63.04</time>
   <time name="total">   62.84   63.04</time>
   <energy>
    <i name="e_fr_energy">   -177.75241316 </i>
    <i name="e_wo_entrp">   -177.75236876 </i>
    <i name="e_0_energy">   -177.75239096 </i>
   </energy>
  </scstep>
  <scstep>
   <time name="dav">   69.19   69.40</time>
   <time name="total">   72.91   73.13</time>
   <energy>
    <i name="e_fr_energy">   -177.91895776 </i>
    <i name="e_wo_entrp">   -177.91891529 </i>
    <i name="e_0_energy">   -177.91893653 </i>
   </energy>
  </scstep>
  <scstep>
   <time name="dav">   61.56   61.72</time>
   <time name="total">   65.46   65.67</time>
   <energy>
    <i name="e_fr_energy">   -169.49566593 </i>
    <i name="e_wo_entrp">   -169.49562157 </i>
    <i name="e_0_energy">   -169.49564375 </i>
   </energy>
  </scstep>
  <scstep>
   <time name="dav">   63.96   64.13</time>
   <time name="total">   67.87   68.08</time>
   <energy>
    <i name="e_fr_energy">   -166.26212500 </i>
    <i name="e_wo_entrp">   -166.26207974 </i>
    <i name="e_0_energy">   -166.26210237 </i>
   </energy>
  </scstep>
  <scstep>
   <time name="dav">   66.67   66.84</time>
   <time name="total">   70.58   70.80</time>
   <energy>
    <i name="e_fr_energy">   -166.18325355 </i>
    <i name="e_wo_entrp">   -166.18320871 </i>
    <i name="e_0_energy">   -166.18323113 </i>
   </energy>
  </scstep>
  <scstep>
   <time name="dav">   61.77   61.94</time>
   <time name="total">   65.69   65.89</time>
   <energy>
    <i name="e_fr_energy">   -166.15831609 </i>
    <i name="e_wo_entrp">   -166.15827113 </i>
    <i name="e_0_energy">   -166.15829361 </i>
   </energy>
  </scstep>
  <scstep>
   <time name="dav">   58.93   59.09</time>
   <time name="total">   62.84   63.04</time>
   <energy>
    <i name="e_fr_energy">   -166.12299363 </i>
    <i name="e_wo_entrp">   -166.12294861 </i>
    <i name="e_0_energy">   -166.12297112 </i>
   </energy>
  </scstep>
  <scstep>
   <time name="dav">   56.16   56.31</time>
   <time name="total">   60.06   60.32</time>
   <energy>
    <i name="e_fr_energy">   -166.10991559 </i>
    <i name="e_wo_entrp">   -166.10987068 </i>
    <i name="e_0_energy">   -166.10989314 </i>
   </energy>
  </scstep>
  <scstep>
   <time name="dav">   56.18   56.49</time>
   <time name="total">   60.08   60.43</time>
   <energy>
    <i name="e_fr_energy">   -166.12645136 </i>
    <i name="e_wo_entrp">   -166.12640639 </i>
    <i name="e_0_energy">   -166.12642887 </i>
   </energy>
  </scstep>
  <scstep>
   <time name="dav">   59.38   59.54</time>
   <time name="total">   63.29   63.48</time>
   <energy>
    <i name="e_fr_energy">   -166.12403334 </i>
    <i name="e_wo_entrp">   -166.12398827 </i>
    <i name="e_0_energy">   -166.12401080 </i>
   </energy>
  </scstep>
  <scstep>
   <time name="dav">   56.48   56.65</time>
   <time name="total">   60.38   60.58</time>
   <energy>
    <i name="e_fr_energy">   -166.12493565 </i>
    <i name="e_wo_entrp">   -166.12489078 </i>
    <i name="e_0_energy">   -166.12491322 </i>
   </energy>
  </scstep>
  <scstep>
   <time name="dav">   56.12   56.27</time>
   <time name="total">   60.01   60.20</time>
   <energy>
    <i name="e_fr_energy">   -166.12625557 </i>
    <i name="e_wo_entrp">   -166.12621058 </i>
    <i name="e_0_energy">   -166.12623308 </i>
   </energy>
  </scstep>
  <scstep>
   <time name="dav">   55.69   55.84</time>
   <time name="total">   59.59   59.78</time>
   <energy>
    <i name="e_fr_energy">   -166.12793823 </i>
    <i name="e_wo_entrp">   -166.12789326 </i>
    <i name="e_0_energy">   -166.12791575 </i>
   </energy>
  </scstep>
  <scstep>
   <time name="dav">   55.91   56.06</time>
   <time name="total">   59.78   59.94</time>
   <energy>
    <i name="e_fr_energy">   -166.12970479 </i>
    <i name="e_wo_entrp">   -166.12965981 </i>
    <i name="e_0_energy">   -166.12968230 </i>
   </energy>
  </scstep>
  <scstep>
   <time name="dav">   55.75   55.90</time>
   <time name="total">   59.63   59.81</time>
   <energy>
    <i name="e_fr_energy">   -166.13004557 </i>
    <i name="e_wo_entrp">   -166.13000056 </i>
    <i name="e_0_energy">   -166.13002307 </i>
   </energy>
  </scstep>
  <scstep>
   <time name="dav">   57.05   57.21</time>
   <time name="total">   60.93   61.09</time>
   <energy>
    <i name="e_fr_energy">   -166.13022438 </i>
    <i name="e_wo_entrp">   -166.13017940 </i>
    <i name="e_0_energy">   -166.13020189 </i>
   </energy>
  </scstep>
  <scstep>
   <time name="dav">   56.33   56.49</time>
   <time name="total">   60.22   60.41</time>
   <energy>
    <i name="e_fr_energy">   -166.13027525 </i>
    <i name="e_wo_entrp">   -166.13023028 </i>
    <i name="e_0_energy">   -166.13025276 </i>
   </energy>
  </scstep>
  <scstep>
   <time name="dav">   60.56   60.72</time>
   <time name="total">   64.45   64.65</time>
   <energy>
    <i name="e_fr_energy">   -166.13028242 </i>
    <i name="e_wo_entrp">   -166.13023744 </i>
    <i name="e_0_energy">   -166.13025993 </i>
   </energy>
  </scstep>
  <scstep>
   <time name="dav">   57.75   57.91</time>
   <time name="total">   61.64   61.84</time>
   <energy>
    <i name="e_fr_energy">   -166.13028640 </i>
    <i name="e_wo_entrp">   -166.13024142 </i>
    <i name="e_0_energy">   -166.13026391 </i>
   </energy>
  </scstep>
  <scstep>
   <time name="dav">   54.58   54.73</time>
   <time name="total">   58.47   58.66</time>
   <energy>
    <i name="e_fr_energy">   -166.13028710 </i>
    <i name="e_wo_entrp">   -166.13024212 </i>
    <i name="e_0_energy">   -166.13026461 </i>
   </energy>
  </scstep>
  <scstep>
   <time name="dav">   45.81   45.94</time>
   <time name="total">   49.67   49.80</time>
   <energy>
    <i name="e_fr_energy">   -166.13028725 </i>
    <i name="e_wo_entrp">   -166.13024227 </i>
    <i name="e_0_energy">   -166.13026476 </i>
   </energy>
  </scstep>
  <scstep>
   <time name="dav">   44.94   45.07</time>
   <time name="total">   48.80   48.96</time>
   <energy>
    <i name="e_fr_energy">   -166.13028728 </i>
    <i name="e_wo_entrp">   -166.13024229 </i>
    <i name="e_0_energy">   -166.13026478 </i>
   </energy>
  </scstep>
  <scstep>
   <time name="dav">   45.04   45.16</time>
   <time name="total">   45.24   45.36</time>
   <energy>
    <i name="alphaZ">     27.99599133 </i>
    <i name="ewald">  11727.27928553 </i>
    <i name="hartreedc"> -13950.35524915 </i>
    <i name="XCdc">    259.36063301 </i>
    <i name="pawpsdc">   1259.28727353 </i>
    <i name="pawaedc">  -1282.51180553 </i>
    <i name="eentropy">     -0.00004498 </i>
    <i name="bandstr">   -855.96599315 </i>
    <i name="atom">   2648.77962213 </i>
    <i name="e_fr_energy">   -166.13028728 </i>
    <i name="e_wo_entrp">   -166.13024230 </i>
    <i name="e_0_energy">   -166.13026479 </i>
   </energy>
  </scstep>
  <structure>
   <crystal>
    <varray name="basis" >
     <v>       6.39000000      -3.68926800       0.00000000 </v>
     <v>       6.39000000       3.68926800       0.00000000 </v>
     <v>       0.00000000       0.00000000      20.00000000 </v>
    </varray>
    <i name="volume">    942.97690080 </i>
    <varray name="rec_basis" >
     <v>       0.07824726      -0.13552824       0.00000000 </v>
     <v>       0.07824726       0.13552824       0.00000000 </v>
     <v>       0.00000000       0.00000000       0.05000000 </v>
    </varray>
   </crystal>
   <varray name="positions" >
    <v>       0.00046900       0.00000000       0.00046900 </v>
    <v>       0.33333300       0.00000000       0.00000000 </v>
    <v>       0.66666700       0.00000000       0.00000000 </v>
    <v>       0.00000000       0.33333300       0.00000000 </v>
    <v>       0.33333300       0.33333300       0.00000000 </v>
    <v>       0.66666700       0.33333300       0.00000000 </v>
    <v>       0.00000000       0.66666700       0.00000000 </v>
    <v>       0.33333300       0.66666700       0.00000000 </v>
    <v>       0.66666700       0.66666700       0.00000000 </v>
    <v>       0.11111100       0.11111100       0.00000000 </v>
    <v>       0.44444400       0.11111100       0.00000000 </v>
    <v>       0.77777800       0.11111100       0.00000000 </v>
    <v>       0.11111100       0.44444400       0.00000000 </v>
    <v>       0.44444400       0.44444400       0.00000000 </v>
    <v>       0.77777800       0.44444400       0.00000000 </v>
    <v>       0.11111100       0.77777800       0.00000000 </v>
    <v>       0.44444400       0.77777800       0.00000000 </v>
    <v>       0.77777800       0.77777800       0.00000000 </v>
   </varray>
  </structure>
  <varray name="forces" >
   <v>      -0.18647605       0.10654147      -0.13338487 </v>
   <v>       0.01280637      -0.01184406      -0.00480831 </v>
   <v>       0.01636195      -0.00486274      -0.00463868 </v>
   <v>       0.00532580       0.01450284      -0.00474062 </v>
   <v>       0.00719301      -0.00410688       0.00202860 </v>
   <v>      -0.01003417      -0.01154831      -0.00470610 </v>
   <v>       0.00128999       0.00756163      -0.00465548 </v>
   <v>      -0.00620378      -0.00530402      -0.00479058 </v>
   <v>       0.00687487      -0.00410552       0.00202866 </v>
   <v>       0.07482992      -0.01880445       0.05757861 </v>
   <v>       0.00008933      -0.00016828      -0.00867112 </v>
   <v>       0.05355278      -0.05492063       0.05839946 </v>
   <v>      -0.00263677       0.00490016      -0.00865110 </v>
   <v>      -0.00523310       0.00000498      -0.00869152 </v>
   <v>       0.00696866      -0.00375867       0.00323597 </v>
   <v>       0.03296520      -0.01835230       0.05799519 </v>
   <v>      -0.00015226       0.00820731       0.00322986 </v>
   <v>      -0.00752175      -0.00394253       0.00324202 </v>
  </varray>
  <varray name="stress" >
   <v>       6.41483359       0.02338210      -0.00297096 </v>
   <v>       0.02338210       6.33178589       0.00169749 </v>
   <v>      -0.00297096       0.00169749      -0.35335282 </v>
  </varray>
  <energy>
   <i name="e_fr_energy">   -166.13028728 </i>
   <i name="e_wo_entrp">   -166.13026479 </i>
   <i name="e_0_energy">     -0.00004498 </i>
  </energy>
  <time name="totalsc"> 1634.45 1639.73</time>
  <eigenvalues>
   <array>
    <dimension dim="1">band</dimension>
    <dimension dim="2">kpoint</dimension>
    <dimension dim="3">spin</dimension>
    <field>eigene</field>
    <field>occ</field>
    <set>
     <set comment="spin 1">
      <set comment="kpoint 1">
       <r>  -22.2970    1.0000 </r>
       <r>  -19.7080    1.0000 </r>
       <r>  -19.7015    1.0000 </r>
       <r>  -19.7007    1.0000 </r>
       <r>  -19.7007    1.0000 </r>
       <r>  -19.6999    1.0000 </r>
       <r>  -19.6934    1.0000 </r>
       <r>  -15.3409    1.0000 </r>
       <r>  -15.3358    1.0000 </r>
       <r>  -15.3356    1.0000 </r>
       <r>  -15.3305    1.0000 </r>
       <r>  -13.3273    1.0000 </r>
       <r>  -13.3256    1.0000 </r>
       <r>  -12.3778    1.0000 </r>
       <r>  -12.3728    1.0000 </r>
       <r>  -12.3700    1.0000 </r>
       <r>  -12.3700    1.0000 </r>
       <r>  -12.3671    1.0000 </r>
       <r>  -12.3619    1.0000 </r>
       <r>  -10.3901    1.0000 </r>
       <r>   -8.5228    1.0000 </r>
       <r>   -8.5146    1.0000 </r>
       <r>   -8.5134    1.0000 </r>
       <r>   -8.5133    1.0000 </r>
       <r>   -8.5121    1.0000 </r>
       <r>   -8.5038    1.0000 </r>
       <r>   -7.3834    1.0000 </r>
       <r>   -7.3776    1.0000 </r>
       <r>   -7.3772    1.0000 </r>
       <r>   -7.3772    1.0000 </r>
       <r>   -7.3769    1.0000 </r>
       <r>   -7.3709    1.0000 </r>
       <r>   -5.7557    1.0000 </r>
       <r>   -5.7441    1.0000 </r>
       <r>   -2.7271    0.7730 </r>
       <r>   -2.7218    0.4992 </r>
       <r>   -2.7218    0.4981 </r>
       <r>   -2.7166    0.2297 </r>
       <r>    0.5264    0.0000 </r>
       <r>    1.3277    0.0000 </r>
       <r>    1.6974    0.0000 </r>
       <r>    2.2067    0.0000 </r>
       <r>    2.2148    0.0000 </r>
       <r>    2.2156    0.0000 </r>
       <r>    2.2156    0.0000 </r>
       <r>    2.2162    0.0000 </r>
       <r>    2.2236    0.0000 </r>
       <r>    2.6044    0.0000 </r>
      </set>
      <set comment="kpoint 2">
       <r>  -22.2910    1.0000 </r>
       <r>  -19.9378    1.0000 </r>
       <r>  -19.8178    1.0000 </r>
       <r>  -19.8149    1.0000 </r>
       <r>  -19.5754    1.0000 </r>
       <r>  -19.5725    1.0000 </r>
       <r>  -19.4530    1.0000 </r>
       <r>  -15.5359    1.0000 </r>
       <r>  -15.5321    1.0000 </r>
       <r>  -15.1685    1.0000 </r>
       <r>  -15.1647    1.0000 </r>
       <r>  -13.2862    1.0000 </r>
       <r>  -13.2844    1.0000 </r>
       <r>  -12.7834    1.0000 </r>
       <r>  -12.5783    1.0000 </r>
       <r>  -12.5750    1.0000 </r>
       <r>  -12.1616    1.0000 </r>
       <r>  -12.1582    1.0000 </r>
       <r>  -11.9490    1.0000 </r>
       <r>  -10.3830    1.0000 </r>
       <r>   -8.6291    1.0000 </r>
       <r>   -8.5922    1.0000 </r>
       <r>   -8.5873    1.0000 </r>
       <r>   -8.4743    1.0000 </r>
       <r>   -8.4687    1.0000 </r>
       <r>   -8.3931    1.0000 </r>
       <r>   -7.6406    1.0000 </r>
       <r>   -7.5055    1.0000 </r>
       <r>   -7.5029    1.0000 </r>
       <r>   -7.2390    1.0000 </r>
       <r>   -7.2364    1.0000 </r>
       <r>   -7.1082    1.0000 </r>
       <r>   -5.7720    1.0000 </r>
       <r>   -5.7660    1.0000 </r>
       <r>   -2.9808    1.0000 </r>
       <r>   -2.9781    1.0000 </r>
       <r>   -2.4680    0.0000 </r>
       <r>   -2.4652    0.0000 </r>
       <r>    0.5345    0.0000 </r>
       <r>    1.3359    0.0000 </r>
       <r>    1.7057    0.0000 </r>
       <r>    1.7810    0.0000 </r>
       <r>    1.9907    0.0000 </r>
       <r>    1.9944    0.0000 </r>
       <r>    2.4290    0.0000 </r>
       <r>    2.4327    0.0000 </r>
       <r>    2.6127    0.0000 </r>
       <r>    2.6572    0.0000 </r>
      </set>
      <set comment="kpoint 3">
       <r>  -22.2731    1.0000 </r>
       <r>  -20.1643    1.0000 </r>
       <r>  -19.9220    1.0000 </r>
       <r>  -19.9192    1.0000 </r>
       <r>  -19.4375    1.0000 </r>
       <r>  -19.4346    1.0000 </r>
       <r>  -19.1956    1.0000 </r>
       <r>  -15.7580    1.0000 </r>
       <r>  -15.7543    1.0000 </r>
       <r>  -15.0288    1.0000 </r>
       <r>  -15.0251    1.0000 </r>
       <r>  -13.1939    1.0000 </r>
       <r>  -13.1680    1.0000 </r>
       <r>  -13.1661    1.0000 </r>
       <r>  -12.7780    1.0000 </r>
       <r>  -12.7748    1.0000 </r>
       <r>  -11.9468    1.0000 </r>
       <r>  -11.9434    1.0000 </r>
       <r>  -11.5273    1.0000 </r>
       <r>  -10.3615    1.0000 </r>
       <r>   -8.7319    1.0000 </r>
       <r>   -8.7067    1.0000 </r>
       <r>   -8.7018    1.0000 </r>
       <r>   -8.4700    1.0000 </r>
       <r>   -8.4646    1.0000 </r>
       <r>   -8.2615    1.0000 </r>
       <r>   -7.8950    1.0000 </r>
       <r>   -7.6207    1.0000 </r>
       <r>   -7.6181    1.0000 </r>
       <r>   -7.0883    1.0000 </r>
       <r>   -7.0857    1.0000 </r>
       <r>   -6.8338    1.0000 </r>
       <r>   -5.8444    1.0000 </r>
       <r>   -5.8073    1.0000 </r>
       <r>   -3.2403    1.0000 </r>
       <r>   -3.2376    1.0000 </r>
       <r>   -2.2158    0.0000 </r>
       <r>   -2.2129    0.0000 </r>
       <r>    0.5588    0.0000 </r>
       <r>    1.3524    0.0000 </r>
       <r>    1.3607    0.0000 </r>
       <r>    1.7306    0.0000 </r>
       <r>    1.7648    0.0000 </r>
       <r>    1.7685    0.0000 </r>
       <r>    2.6372    0.0000 </r>
       <r>    2.6377    0.0000 </r>
       <r>    2.6413    0.0000 </r>
       <r>    3.0984    0.0000 </r>
      </set>
      <set comment="kpoint 4">
       <r>  -22.2432    1.0000 </r>
       <r>  -20.3801    1.0000 </r>
       <r>  -20.0149    1.0000 </r>
       <r>  -20.0120    1.0000 </r>
       <r>  -19.2888    1.0000 </r>
       <r>  -19.2858    1.0000 </r>
       <r>  -18.9286    1.0000 </r>
       <r>  -15.9970    1.0000 </r>
       <r>  -15.9934    1.0000 </r>
       <r>  -14.9130    1.0000 </r>
       <r>  -14.9094    1.0000 </r>
       <r>  -13.5982    1.0000 </r>
       <r>  -12.9863    1.0000 </r>
       <r>  -12.9838    1.0000 </r>
       <r>  -12.9705    1.0000 </r>
       <r>  -12.9674    1.0000 </r>
       <r>  -11.7297    1.0000 </r>
       <r>  -11.7261    1.0000 </r>
       <r>  -11.1042    1.0000 </r>
       <r>  -10.3257    1.0000 </r>
       <r>   -8.8569    1.0000 </r>
       <r>   -8.8520    1.0000 </r>
       <r>   -8.8238    1.0000 </r>
       <r>   -8.4999    1.0000 </r>
       <r>   -8.4945    1.0000 </r>
       <r>   -8.1399    1.0000 </r>
       <r>   -8.1212    1.0000 </r>
       <r>   -7.7236    1.0000 </r>
       <r>   -7.7210    1.0000 </r>
       <r>   -6.9263    1.0000 </r>
       <r>   -6.9237    1.0000 </r>
       <r>   -6.5572    1.0000 </r>
       <r>   -5.9661    1.0000 </r>
       <r>   -5.8715    1.0000 </r>
       <r>   -3.5008    1.0000 </r>
       <r>   -3.4982    1.0000 </r>
       <r>   -1.9668    0.0000 </r>
       <r>   -1.9639    0.0000 </r>
       <r>    0.5994    0.0000 </r>
       <r>    0.9359    0.0000 </r>
       <r>    1.4018    0.0000 </r>
       <r>    1.5363    0.0000 </r>
       <r>    1.5399    0.0000 </r>
       <r>    1.7724    0.0000 </r>
       <r>    2.6787    0.0000 </r>
       <r>    2.8358    0.0000 </r>
       <r>    2.8397    0.0000 </r>
       <r>    3.1398    0.0000 </r>
      </set>
      <set comment="kpoint 5">
       <r>  -22.2013    1.0000 </r>
       <r>  -20.5848    1.0000 </r>
       <r>  -20.0963    1.0000 </r>
       <r>  -20.0935    1.0000 </r>
       <r>  -19.1292    1.0000 </r>
       <r>  -19.1263    1.0000 </r>
       <r>  -18.6527    1.0000 </r>
       <r>  -16.2459    1.0000 </r>
       <r>  -16.2424    1.0000 </r>
       <r>  -14.8127    1.0000 </r>
       <r>  -14.8093    1.0000 </r>
       <r>  -13.9953    1.0000 </r>
       <r>  -13.1563    1.0000 </r>
       <r>  -13.1532    1.0000 </r>
       <r>  -12.7549    1.0000 </r>
       <r>  -12.7525    1.0000 </r>
       <r>  -11.5123    1.0000 </r>
       <r>  -11.5086    1.0000 </r>
       <r>  -10.6809    1.0000 </r>
       <r>  -10.2757    1.0000 </r>
       <r>   -9.0398    1.0000 </r>
       <r>   -9.0350    1.0000 </r>
       <r>   -8.9053    1.0000 </r>
       <r>   -8.5603    1.0000 </r>
       <r>   -8.5550    1.0000 </r>
       <r>   -8.3744    1.0000 </r>
       <r>   -7.9733    1.0000 </r>
       <r>   -7.8139    1.0000 </r>
       <r>   -7.8113    1.0000 </r>
       <r>   -6.7534    1.0000 </r>
       <r>   -6.7508    1.0000 </r>
       <r>   -6.2823    1.0000 </r>
       <r>   -6.1326    1.0000 </r>
       <r>   -5.9586    1.0000 </r>
       <r>   -3.7615    1.0000 </r>
       <r>   -3.7589    1.0000 </r>
       <r>   -1.7213    0.0000 </r>
       <r>   -1.7183    0.0000 </r>
       <r>    0.5359    0.0000 </r>
       <r>    0.6565    0.0000 </r>
       <r>    1.3063    0.0000 </r>
       <r>    1.3099    0.0000 </r>
       <r>    1.4594    0.0000 </r>
       <r>    1.8307    0.0000 </r>
       <r>    2.7365    0.0000 </r>
       <r>    2.8692    0.0000 </r>
       <r>    3.0218    0.0000 </r>
       <r>    3.0256    0.0000 </r>
      </set>
      <set comment="kpoint 6">
       <r>  -22.1476    1.0000 </r>
       <r>  -20.7784    1.0000 </r>
       <r>  -20.1662    1.0000 </r>
       <r>  -20.1634    1.0000 </r>
       <r>  -18.9590    1.0000 </r>
       <r>  -18.9561    1.0000 </r>
       <r>  -18.3690    1.0000 </r>
       <r>  -16.4995    1.0000 </r>
       <r>  -16.4960    1.0000 </r>
       <r>  -14.7199    1.0000 </r>
       <r>  -14.7166    1.0000 </r>
       <r>  -14.3838    1.0000 </r>
       <r>  -13.3336    1.0000 </r>
       <r>  -13.3306    1.0000 </r>
       <r>  -12.4897    1.0000 </r>
       <r>  -12.4870    1.0000 </r>
       <r>  -11.2973    1.0000 </r>
       <r>  -11.2936    1.0000 </r>
       <r>  -10.2591    1.0000 </r>
       <r>  -10.2112    1.0000 </r>
       <r>   -9.2527    1.0000 </r>
       <r>   -9.2481    1.0000 </r>
       <r>   -8.9756    1.0000 </r>
       <r>   -8.6465    1.0000 </r>
       <r>   -8.6417    1.0000 </r>
       <r>   -8.5975    1.0000 </r>
       <r>   -7.8921    1.0000 </r>
       <r>   -7.8893    1.0000 </r>
       <r>   -7.8177    1.0000 </r>
       <r>   -6.5700    1.0000 </r>
       <r>   -6.5674    1.0000 </r>
       <r>   -6.3409    1.0000 </r>
       <r>   -6.0660    1.0000 </r>
       <r>   -6.0134    1.0000 </r>
       <r>   -4.0215    1.0000 </r>
       <r>   -4.0189    1.0000 </r>
       <r>   -1.4790    0.0000 </r>
       <r>   -1.4760    0.0000 </r>
       <r>    0.1589    0.0000 </r>
       <r>    0.7294    0.0000 </r>
       <r>    1.0756    0.0000 </r>
       <r>    1.0792    0.0000 </r>
       <r>    1.5334    0.0000 </r>
       <r>    1.9056    0.0000 </r>
       <r>    2.6027    0.0000 </r>
       <r>    2.8108    0.0000 </r>
       <r>    3.1913    0.0000 </r>
       <r>    3.2222    0.0000 </r>
      </set>
      <set comment="kpoint 7">
       <r>  -22.0819    1.0000 </r>
       <r>  -20.9608    1.0000 </r>
       <r>  -20.2246    1.0000 </r>
       <r>  -20.2217    1.0000 </r>
       <r>  -18.7785    1.0000 </r>
       <r>  -18.7755    1.0000 </r>
       <r>  -18.0793    1.0000 </r>
       <r>  -16.7537    1.0000 </r>
       <r>  -16.7504    1.0000 </r>
       <r>  -14.7615    1.0000 </r>
       <r>  -14.6283    1.0000 </r>
       <r>  -14.6252    1.0000 </r>
       <r>  -13.5025    1.0000 </r>
       <r>  -13.4995    1.0000 </r>
       <r>  -12.2011    1.0000 </r>
       <r>  -12.1982    1.0000 </r>
       <r>  -11.0889    1.0000 </r>
       <r>  -11.0851    1.0000 </r>
       <r>  -10.1330    1.0000 </r>
       <r>   -9.8399    1.0000 </r>
       <r>   -9.4919    1.0000 </r>
       <r>   -9.4875    1.0000 </r>
       <r>   -9.0344    1.0000 </r>
       <r>   -8.8102    1.0000 </r>
       <r>   -8.7521    1.0000 </r>
       <r>   -8.7467    1.0000 </r>
       <r>   -7.9569    1.0000 </r>
       <r>   -7.9542    1.0000 </r>
       <r>   -7.6570    1.0000 </r>
       <r>   -6.5865    1.0000 </r>
       <r>   -6.3765    1.0000 </r>
       <r>   -6.3738    1.0000 </r>
       <r>   -6.1909    1.0000 </r>
       <r>   -5.7584    1.0000 </r>
       <r>   -4.2798    1.0000 </r>
       <r>   -4.2772    1.0000 </r>
       <r>   -1.2400    0.0000 </r>
       <r>   -1.2369    0.0000 </r>
       <r>   -0.1877    0.0000 </r>
       <r>    0.8173    0.0000 </r>
       <r>    0.8455    0.0000 </r>
       <r>    0.8490    0.0000 </r>
       <r>    1.6238    0.0000 </r>
       <r>    1.9972    0.0000 </r>
       <r>    2.3520    0.0000 </r>
       <r>    2.9015    0.0000 </r>
       <r>    3.1666    0.0000 </r>
       <r>    3.3595    0.0000 </r>
      </set>
      <set comment="kpoint 8">
       <r>  -22.0043    1.0000 </r>
       <r>  -21.1318    1.0000 </r>
       <r>  -20.2713    1.0000 </r>
       <r>  -20.2684    1.0000 </r>
       <r>  -18.5878    1.0000 </r>
       <r>  -18.5848    1.0000 </r>
       <r>  -17.7869    1.0000 </r>
       <r>  -17.0058    1.0000 </r>
       <r>  -17.0025    1.0000 </r>
       <r>  -15.1246    1.0000 </r>
       <r>  -14.5341    1.0000 </r>
       <r>  -14.5310    1.0000 </r>
       <r>  -13.6626    1.0000 </r>
       <r>  -13.6597    1.0000 </r>
       <r>  -11.8972    1.0000 </r>
       <r>  -11.8941    1.0000 </r>
       <r>  -10.8931    1.0000 </r>
       <r>  -10.8893    1.0000 </r>
       <r>  -10.0405    1.0000 </r>
       <r>   -9.7537    1.0000 </r>
       <r>   -9.7496    1.0000 </r>
       <r>   -9.4256    1.0000 </r>
       <r>   -9.0817    1.0000 </r>
       <r>   -9.0096    1.0000 </r>
       <r>   -8.8689    1.0000 </r>
       <r>   -8.8639    1.0000 </r>
       <r>   -8.0090    1.0000 </r>
       <r>   -8.0063    1.0000 </r>
       <r>   -7.4913    1.0000 </r>
       <r>   -6.8654    1.0000 </r>
       <r>   -6.3308    1.0000 </r>
       <r>   -6.1731    1.0000 </r>
       <r>   -6.1706    1.0000 </r>
       <r>   -5.5265    1.0000 </r>
       <r>   -4.5353    1.0000 </r>
       <r>   -4.5327    1.0000 </r>
       <r>   -1.0036    0.0000 </r>
       <r>   -1.0005    0.0000 </r>
       <r>   -0.4935    0.0000 </r>
       <r>    0.6141    0.0000 </r>
       <r>    0.6175    0.0000 </r>
       <r>    0.9245    0.0000 </r>
       <r>    1.7307    0.0000 </r>
       <r>    2.1055    0.0000 </r>
       <r>    2.1171    0.0000 </r>
       <r>    2.9329    0.0000 </r>
       <r>    3.0087    0.0000 </r>
       <r>    3.3295    0.0000 </r>
      </set>
      <set comment="kpoint 9">
       <r>  -21.9149    1.0000 </r>
       <r>  -21.2914    1.0000 </r>
       <r>  -20.3063    1.0000 </r>
       <r>  -20.3035    1.0000 </r>
       <r>  -18.3873    1.0000 </r>
       <r>  -18.3843    1.0000 </r>
       <r>  -17.4991    1.0000 </r>
       <r>  -17.2537    1.0000 </r>
       <r>  -17.2504    1.0000 </r>
       <r>  -15.4655    1.0000 </r>
       <r>  -14.4343    1.0000 </r>
       <r>  -14.4313    1.0000 </r>
       <r>  -13.8137    1.0000 </r>
       <r>  -13.8108    1.0000 </r>
       <r>  -11.5841    1.0000 </r>
       <r>  -11.5809    1.0000 </r>
       <r>  -10.7197    1.0000 </r>
       <r>  -10.7158    1.0000 </r>
       <r>  -10.0342    1.0000 </r>
       <r>  -10.0302    1.0000 </r>
       <r>   -9.9340    1.0000 </r>
       <r>   -9.1967    1.0000 </r>
       <r>   -9.1174    1.0000 </r>
       <r>   -9.0185    1.0000 </r>
       <r>   -8.9851    1.0000 </r>
       <r>   -8.9800    1.0000 </r>
       <r>   -8.0481    1.0000 </r>
       <r>   -8.0455    1.0000 </r>
       <r>   -7.3220    1.0000 </r>
       <r>   -7.1734    1.0000 </r>
       <r>   -6.4820    1.0000 </r>
       <r>   -5.9610    1.0000 </r>
       <r>   -5.9585    1.0000 </r>
       <r>   -5.3307    1.0000 </r>
       <r>   -4.7872    1.0000 </r>
       <r>   -4.7846    1.0000 </r>
       <r>   -0.7698    0.0000 </r>
       <r>   -0.7668    0.0000 </r>
       <r>   -0.7447    0.0000 </r>
       <r>    0.3838    0.0000 </r>
       <r>    0.3873    0.0000 </r>
       <r>    1.0463    0.0000 </r>
       <r>    1.8539    0.0000 </r>
       <r>    1.8983    0.0000 </r>
       <r>    2.2304    0.0000 </r>
       <r>    2.7135    0.0000 </r>
       <r>    3.1047    0.0000 </r>
       <r>    3.1324    0.0000 </r>
      </set>
      <set comment="kpoint 10">
       <r>  -21.8136    1.0000 </r>
       <r>  -21.4394    1.0000 </r>
       <r>  -20.3297    1.0000 </r>
       <r>  -20.3269    1.0000 </r>
       <r>  -18.1774    1.0000 </r>
       <r>  -18.1743    1.0000 </r>
       <r>  -17.4958    1.0000 </r>
       <r>  -17.4926    1.0000 </r>
       <r>  -17.2351    1.0000 </r>
       <r>  -15.7650    1.0000 </r>
       <r>  -14.3274    1.0000 </r>
       <r>  -14.3245    1.0000 </r>
       <r>  -13.9557    1.0000 </r>
       <r>  -13.9528    1.0000 </r>
       <r>  -11.2668    1.0000 </r>
       <r>  -11.2635    1.0000 </r>
       <r>  -10.5840    1.0000 </r>
       <r>  -10.5801    1.0000 </r>
       <r>  -10.3294    1.0000 </r>
       <r>  -10.3256    1.0000 </r>
       <r>   -9.8136    1.0000 </r>
       <r>   -9.3709    1.0000 </r>
       <r>   -9.1412    1.0000 </r>
       <r>   -9.0836    1.0000 </r>
       <r>   -9.0792    1.0000 </r>
       <r>   -8.6197    1.0000 </r>
       <r>   -8.0743    1.0000 </r>
       <r>   -8.0716    1.0000 </r>
       <r>   -7.5065    1.0000 </r>
       <r>   -7.1505    1.0000 </r>
       <r>   -6.6422    1.0000 </r>
       <r>   -5.7404    1.0000 </r>
       <r>   -5.7378    1.0000 </r>
       <r>   -5.1864    1.0000 </r>
       <r>   -5.0345    1.0000 </r>
       <r>   -5.0319    1.0000 </r>
       <r>   -0.9270    0.0000 </r>
       <r>   -0.5374    0.0000 </r>
       <r>   -0.5341    0.0000 </r>
       <r>    0.1538    0.0000 </r>
       <r>    0.1572    0.0000 </r>
       <r>    1.1843    0.0000 </r>
       <r>    1.6956    0.0000 </r>
       <r>    1.9935    0.0000 </r>
       <r>    2.3720    0.0000 </r>
       <r>    2.5095    0.0000 </r>
       <r>    2.8966    0.0000 </r>
       <r>    3.2725    0.0000 </r>
      </set>
      <set comment="kpoint 11">
       <r>  -21.7006    1.0000 </r>
       <r>  -21.5758    1.0000 </r>
       <r>  -20.3414    1.0000 </r>
       <r>  -20.3386    1.0000 </r>
       <r>  -17.9585    1.0000 </r>
       <r>  -17.9554    1.0000 </r>
       <r>  -17.7310    1.0000 </r>
       <r>  -17.7278    1.0000 </r>
       <r>  -17.0504    1.0000 </r>
       <r>  -15.9676    1.0000 </r>
       <r>  -14.2124    1.0000 </r>
       <r>  -14.2095    1.0000 </r>
       <r>  -14.0885    1.0000 </r>
       <r>  -14.0856    1.0000 </r>
       <r>  -10.9495    1.0000 </r>
       <r>  -10.9460    1.0000 </r>
       <r>  -10.6358    1.0000 </r>
       <r>  -10.6321    1.0000 </r>
       <r>  -10.5069    1.0000 </r>
       <r>  -10.5031    1.0000 </r>
       <r>   -9.6796    1.0000 </r>
       <r>   -9.5319    1.0000 </r>
       <r>   -9.1534    1.0000 </r>
       <r>   -9.1421    1.0000 </r>
       <r>   -9.1379    1.0000 </r>
       <r>   -8.2330    1.0000 </r>
       <r>   -8.0874    1.0000 </r>
       <r>   -8.0847    1.0000 </r>
       <r>   -7.8608    1.0000 </r>
       <r>   -6.9789    1.0000 </r>
       <r>   -6.8084    1.0000 </r>
       <r>   -5.5120    1.0000 </r>
       <r>   -5.5094    1.0000 </r>
       <r>   -5.2764    1.0000 </r>
       <r>   -5.2738    1.0000 </r>
       <r>   -5.1091    1.0000 </r>
       <r>   -1.0229    0.0000 </r>
       <r>   -0.3064    0.0000 </r>
       <r>   -0.3031    0.0000 </r>
       <r>   -0.0760    0.0000 </r>
       <r>   -0.0727    0.0000 </r>
       <r>    1.3385    0.0000 </r>
       <r>    1.5090    0.0000 </r>
       <r>    2.1493    0.0000 </r>
       <r>    2.3214    0.0000 </r>
       <r>    2.5302    0.0000 </r>
       <r>    2.7050    0.0000 </r>
       <r>    3.2125    0.0000 </r>
      </set>
      <set comment="kpoint 12">
       <r>  -22.2910    1.0000 </r>
       <r>  -19.9379    1.0000 </r>
       <r>  -19.8190    1.0000 </r>
       <r>  -19.8135    1.0000 </r>
       <r>  -19.5767    1.0000 </r>
       <r>  -19.5711    1.0000 </r>
       <r>  -19.4531    1.0000 </r>
       <r>  -15.5366    1.0000 </r>
       <r>  -15.5315    1.0000 </r>
       <r>  -15.1691    1.0000 </r>
       <r>  -15.1640    1.0000 </r>
       <r>  -13.2865    1.0000 </r>
       <r>  -13.2842    1.0000 </r>
       <r>  -12.7852    1.0000 </r>
       <r>  -12.5781    1.0000 </r>
       <r>  -12.5735    1.0000 </r>
       <r>  -12.1614    1.0000 </r>
       <r>  -12.1566    1.0000 </r>
       <r>  -11.9509    1.0000 </r>
       <r>  -10.3830    1.0000 </r>
       <r>   -8.6268    1.0000 </r>
       <r>   -8.5935    1.0000 </r>
       <r>   -8.5883    1.0000 </r>
       <r>   -8.4755    1.0000 </r>
       <r>   -8.4703    1.0000 </r>
       <r>   -8.3904    1.0000 </r>
       <r>   -7.6401    1.0000 </r>
       <r>   -7.5069    1.0000 </r>
       <r>   -7.5021    1.0000 </r>
       <r>   -7.2404    1.0000 </r>
       <r>   -7.2357    1.0000 </r>
       <r>   -7.1075    1.0000 </r>
       <r>   -5.7772    1.0000 </r>
       <r>   -5.7608    1.0000 </r>
       <r>   -2.9821    1.0000 </r>
       <r>   -2.9769    1.0000 </r>
       <r>   -2.4693    0.0000 </r>
       <r>   -2.4639    0.0000 </r>
       <r>    0.5345    0.0000 </r>
       <r>    1.3359    0.0000 </r>
       <r>    1.7057    0.0000 </r>
       <r>    1.7790    0.0000 </r>
       <r>    1.9899    0.0000 </r>
       <r>    1.9969    0.0000 </r>
       <r>    2.4282    0.0000 </r>
       <r>    2.4353    0.0000 </r>
       <r>    2.6127    0.0000 </r>
       <r>    2.6555    0.0000 </r>
      </set>
      <set comment="kpoint 13">
       <r>  -22.2910    1.0000 </r>
       <r>  -19.9380    1.0000 </r>
       <r>  -19.8176    1.0000 </r>
       <r>  -19.8148    1.0000 </r>
       <r>  -19.5753    1.0000 </r>
       <r>  -19.5724    1.0000 </r>
       <r>  -19.4532    1.0000 </r>
       <r>  -15.5360    1.0000 </r>
       <r>  -15.5322    1.0000 </r>
       <r>  -15.1683    1.0000 </r>
       <r>  -15.1645    1.0000 </r>
       <r>  -13.2863    1.0000 </r>
       <r>  -13.2845    1.0000 </r>
       <r>  -12.7869    1.0000 </r>
       <r>  -12.5766    1.0000 </r>
       <r>  -12.5734    1.0000 </r>
       <r>  -12.1597    1.0000 </r>
       <r>  -12.1562    1.0000 </r>
       <r>  -11.9528    1.0000 </r>
       <r>  -10.3830    1.0000 </r>
       <r>   -8.6241    1.0000 </r>
       <r>   -8.5949    1.0000 </r>
       <r>   -8.5895    1.0000 </r>
       <r>   -8.4768    1.0000 </r>
       <r>   -8.4716    1.0000 </r>
       <r>   -8.3878    1.0000 </r>
       <r>   -7.6396    1.0000 </r>
       <r>   -7.5061    1.0000 </r>
       <r>   -7.5035    1.0000 </r>
       <r>   -7.2396    1.0000 </r>
       <r>   -7.2370    1.0000 </r>
       <r>   -7.1068    1.0000 </r>
       <r>   -5.7802    1.0000 </r>
       <r>   -5.7578    1.0000 </r>
       <r>   -2.9809    1.0000 </r>
       <r>   -2.9782    1.0000 </r>
       <r>   -2.4679    0.0000 </r>
       <r>   -2.4651    0.0000 </r>
       <r>    0.5345    0.0000 </r>
       <r>    1.3359    0.0000 </r>
       <r>    1.7057    0.0000 </r>
       <r>    1.7770    0.0000 </r>
       <r>    1.9925    0.0000 </r>
       <r>    1.9960    0.0000 </r>
       <r>    2.4310    0.0000 </r>
       <r>    2.4346    0.0000 </r>
       <r>    2.6127    0.0000 </r>
       <r>    2.6538    0.0000 </r>
      </set>
      <set comment="kpoint 14">
       <r>  -22.2791    1.0000 </r>
       <r>  -20.0482    1.0000 </r>
       <r>  -20.0480    1.0000 </r>
       <r>  -19.6835    1.0000 </r>
       <r>  -19.6834    1.0000 </r>
       <r>  -19.3215    1.0000 </r>
       <r>  -19.3213    1.0000 </r>
       <r>  -15.7399    1.0000 </r>
       <r>  -15.6400    1.0000 </r>
       <r>  -15.1306    1.0000 </r>
       <r>  -15.0018    1.0000 </r>
       <r>  -13.2198    1.0000 </r>
       <r>  -13.1921    1.0000 </r>
       <r>  -12.9901    1.0000 </r>
       <r>  -12.9867    1.0000 </r>
       <r>  -12.3617    1.0000 </r>
       <r>  -12.3615    1.0000 </r>
       <r>  -11.7408    1.0000 </r>
       <r>  -11.7368    1.0000 </r>
       <r>  -10.3687    1.0000 </r>
       <r>   -8.7016    1.0000 </r>
       <r>   -8.6967    1.0000 </r>
       <r>   -8.5921    1.0000 </r>
       <r>   -8.5918    1.0000 </r>
       <r>   -8.3481    1.0000 </r>
       <r>   -8.3426    1.0000 </r>
       <r>   -7.7638    1.0000 </r>
       <r>   -7.7628    1.0000 </r>
       <r>   -7.3570    1.0000 </r>
       <r>   -7.3568    1.0000 </r>
       <r>   -6.9664    1.0000 </r>
       <r>   -6.9649    1.0000 </r>
       <r>   -5.8251    1.0000 </r>
       <r>   -5.7888    1.0000 </r>
       <r>   -3.1910    1.0000 </r>
       <r>   -3.1465    1.0000 </r>
       <r>   -2.3062    0.0000 </r>
       <r>   -2.2582    0.0000 </r>
       <r>    0.5507    0.0000 </r>
       <r>    1.3524    0.0000 </r>
       <r>    1.5587    0.0000 </r>
       <r>    1.5627    0.0000 </r>
       <r>    1.7224    0.0000 </r>
       <r>    2.2018    0.0000 </r>
       <r>    2.2024    0.0000 </r>
       <r>    2.6292    0.0000 </r>
       <r>    2.8695    0.0000 </r>
       <r>    2.8728    0.0000 </r>
      </set>
      <set comment="kpoint 15">
       <r>  -22.2552    1.0000 </r>
       <r>  -20.2692    1.0000 </r>
       <r>  -20.1471    1.0000 </r>
       <r>  -19.7817    1.0000 </r>
       <r>  -19.5396    1.0000 </r>
       <r>  -19.1787    1.0000 </r>
       <r>  -19.0590    1.0000 </r>
       <r>  -15.9863    1.0000 </r>
       <r>  -15.8112    1.0000 </r>
       <r>  -15.0831    1.0000 </r>
       <r>  -14.8350    1.0000 </r>
       <r>  -13.3940    1.0000 </r>
       <r>  -13.1866    1.0000 </r>
       <r>  -13.0915    1.0000 </r>
       <r>  -13.0223    1.0000 </r>
       <r>  -12.5580    1.0000 </r>
       <r>  -12.1441    1.0000 </r>
       <r>  -11.5261    1.0000 </r>
       <r>  -11.3147    1.0000 </r>
       <r>  -10.3400    1.0000 </r>
       <r>   -8.8064    1.0000 </r>
       <r>   -8.7993    1.0000 </r>
       <r>   -8.7465    1.0000 </r>
       <r>   -8.6272    1.0000 </r>
       <r>   -8.3335    1.0000 </r>
       <r>   -8.2119    1.0000 </r>
       <r>   -8.0136    1.0000 </r>
       <r>   -7.8737    1.0000 </r>
       <r>   -7.4638    1.0000 </r>
       <r>   -7.1977    1.0000 </r>
       <r>   -6.8120    1.0000 </r>
       <r>   -6.6905    1.0000 </r>
       <r>   -5.9198    1.0000 </r>
       <r>   -5.8439    1.0000 </r>
       <r>   -3.4478    1.0000 </r>
       <r>   -3.3636    1.0000 </r>
       <r>   -2.1019    0.0000 </r>
       <r>   -2.0073    0.0000 </r>
       <r>    0.5832    0.0000 </r>
       <r>    1.1401    0.0000 </r>
       <r>    1.3383    0.0000 </r>
       <r>    1.3853    0.0000 </r>
       <r>    1.7557    0.0000 </r>
       <r>    1.9685    0.0000 </r>
       <r>    2.4024    0.0000 </r>
       <r>    2.6622    0.0000 </r>
       <r>    3.0747    0.0000 </r>
       <r>    3.1236    0.0000 </r>
      </set>
      <set comment="kpoint 16">
       <r>  -22.2193    1.0000 </r>
       <r>  -20.4794    1.0000 </r>
       <r>  -20.2345    1.0000 </r>
       <r>  -19.8686    1.0000 </r>
       <r>  -19.3847    1.0000 </r>
       <r>  -19.0253    1.0000 </r>
       <r>  -18.7875    1.0000 </r>
       <r>  -16.2451    1.0000 </r>
       <r>  -16.0188    1.0000 </r>
       <r>  -15.0317    1.0000 </r>
       <r>  -14.6872    1.0000 </r>
       <r>  -13.7948    1.0000 </r>
       <r>  -13.3755    1.0000 </r>
       <r>  -12.9079    1.0000 </r>
       <r>  -12.7974    1.0000 </r>
       <r>  -12.7476    1.0000 </r>
       <r>  -11.9246    1.0000 </r>
       <r>  -11.3103    1.0000 </r>
       <r>  -10.8917    1.0000 </r>
       <r>  -10.2971    1.0000 </r>
       <r>   -8.9518    1.0000 </r>
       <r>   -8.9341    1.0000 </r>
       <r>   -8.8860    1.0000 </r>
       <r>   -8.6936    1.0000 </r>
       <r>   -8.3580    1.0000 </r>
       <r>   -8.2534    1.0000 </r>
       <r>   -8.0676    1.0000 </r>
       <r>   -7.9717    1.0000 </r>
       <r>   -7.5587    1.0000 </r>
       <r>   -7.0270    1.0000 </r>
       <r>   -6.6485    1.0000 </r>
       <r>   -6.4142    1.0000 </r>
       <r>   -6.0620    1.0000 </r>
       <r>   -5.9215    1.0000 </r>
       <r>   -3.7152    1.0000 </r>
[...]
       <r>  -10.7558    1.0000 </r>
       <r>  -10.4543    1.0000 </r>
       <r>   -9.9181    1.0000 </r>
       <r>   -9.6585    1.0000 </r>
       <r>   -9.6460    1.0000 </r>
       <r>   -9.5107    1.0000 </r>
       <r>   -9.2314    1.0000 </r>
       <r>   -8.6458    1.0000 </r>
       <r>   -8.4927    1.0000 </r>
       <r>   -8.2543    1.0000 </r>
       <r>   -7.8895    1.0000 </r>
       <r>   -7.6462    1.0000 </r>
       <r>   -7.0418    1.0000 </r>
       <r>   -6.8667    1.0000 </r>
       <r>   -5.8212    1.0000 </r>
       <r>   -5.5707    1.0000 </r>
       <r>   -5.2197    1.0000 </r>
       <r>   -5.0850    1.0000 </r>
       <r>   -5.0104    1.0000 </r>
       <r>   -1.0318    0.0000 </r>
       <r>   -0.6925    0.0000 </r>
       <r>   -0.5073    0.0000 </r>
       <r>    0.1174    0.0000 </r>
       <r>    0.3848    0.0000 </r>
       <r>    1.3630    0.0000 </r>
       <r>    1.5334    0.0000 </r>
       <r>    2.1740    0.0000 </r>
       <r>    2.3460    0.0000 </r>
       <r>    2.5552    0.0000 </r>
       <r>    2.7266    0.0000 </r>
       <r>    2.7300    0.0000 </r>
      </set>
      <set comment="kpoint 221">
       <r>  -21.6353    1.0000 </r>
       <r>  -21.6352    1.0000 </r>
       <r>  -20.5210    1.0000 </r>
       <r>  -20.1536    1.0000 </r>
       <r>  -18.0112    1.0000 </r>
       <r>  -18.0111    1.0000 </r>
       <r>  -17.6719    1.0000 </r>
       <r>  -17.6718    1.0000 </r>
       <r>  -17.0171    1.0000 </r>
       <r>  -15.9970    1.0000 </r>
       <r>  -14.4473    1.0000 </r>
       <r>  -14.4435    1.0000 </r>
       <r>  -13.8553    1.0000 </r>
       <r>  -13.8514    1.0000 </r>
       <r>  -10.8742    1.0000 </r>
       <r>  -10.8694    1.0000 </r>
       <r>  -10.7791    1.0000 </r>
       <r>  -10.7030    1.0000 </r>
       <r>  -10.6986    1.0000 </r>
       <r>  -10.2013    1.0000 </r>
       <r>   -9.6021    1.0000 </r>
       <r>   -9.6020    1.0000 </r>
       <r>   -9.4030    1.0000 </r>
       <r>   -9.1726    1.0000 </r>
       <r>   -8.9011    1.0000 </r>
       <r>   -8.2956    1.0000 </r>
       <r>   -8.0540    1.0000 </r>
       <r>   -8.0530    1.0000 </r>
       <r>   -7.8719    1.0000 </r>
       <r>   -6.9065    1.0000 </r>
       <r>   -6.9054    1.0000 </r>
       <r>   -5.5456    1.0000 </r>
       <r>   -5.5430    1.0000 </r>
       <r>   -5.2511    1.0000 </r>
       <r>   -5.2479    1.0000 </r>
       <r>   -5.0914    1.0000 </r>
       <r>   -1.0403    0.0000 </r>
       <r>   -0.4045    0.0000 </r>
       <r>   -0.3984    0.0000 </r>
       <r>    0.0276    0.0000 </r>
       <r>    0.0330    0.0000 </r>
       <r>    1.4278    0.0000 </r>
       <r>    1.4279    0.0000 </r>
       <r>    2.2395    0.0000 </r>
       <r>    2.2395    0.0000 </r>
       <r>    2.6218    0.0000 </r>
       <r>    2.6218    0.0000 </r>
       <r>    2.9615    0.0000 </r>
      </set>
     </set>
    </set>
   </array>
  </eigenvalues>
  <separator name="orbital magnetization" >
   <v name="MAGDIPOLOUT">      0.00000000      0.00000000      0.00000000</v>
  </separator>
  <dos>
   <i name="efermi">     -2.72180452 </i>
   <total>
    <array>
     <dimension dim="1">gridpoints</dimension>
     <dimension dim="2">spin</dimension>
     <field>energy</field>
     <field>total</field>
     <field>integrated</field>
     <set>
      <set comment="spin 1">
       <r>   -23.5799     0.0000     0.0000 </r>
       <r>   -23.4858     0.0000     0.0000 </r>
       <r>   -23.3918     0.0000     0.0000 </r>
       <r>   -23.2977     0.0000     0.0000 </r>
       <r>   -23.2036     0.0000     0.0000 </r>
       <r>   -23.1095     0.0000     0.0000 </r>
       <r>   -23.0154     0.0000     0.0000 </r>
       <r>   -22.9214     0.0000     0.0000 </r>
       <r>   -22.8273     0.0000     0.0000 </r>
       <r>   -22.7332     0.0000     0.0000 </r>
       <r>   -22.6391     0.0000     0.0000 </r>
       <r>   -22.5451     0.0000     0.0000 </r>
       <r>   -22.4510     0.0000     0.0000 </r>
       <r>   -22.3569     0.0000     0.0000 </r>
       <r>   -22.2628     0.9730     0.0915 </r>
       <r>   -22.1687     2.3891     0.3654 </r>
       <r>   -22.0747     2.3468     0.6063 </r>
       <r>   -21.9806     2.1950     0.8913 </r>
       <r>   -21.8865     2.5631     1.1436 </r>
       <r>   -21.7924     2.7081     1.4022 </r>
       <r>   -21.6984     2.5017     1.6549 </r>
       <r>   -21.6043     2.7458     1.9235 </r>
       <r>   -21.5102     2.2727     2.1775 </r>
       <r>   -21.4161     1.8279     2.4350 </r>
       <r>   -21.3220     2.1702     2.6852 </r>
       <r>   -21.2280     2.6901     2.9515 </r>
       <r>   -21.1339     2.3568     3.2196 </r>
       <r>   -21.0398     2.1344     3.4708 </r>
       <r>   -20.9457     2.8773     3.7582 </r>
       <r>   -20.8516     1.5641     3.9884 </r>
       <r>   -20.7576     2.8141     4.2967 </r>
       <r>   -20.6635     2.3740     4.5544 </r>
       <r>   -20.5694     2.0757     4.7986 </r>
       <r>   -20.4753     2.5334     5.0864 </r>
       <r>   -20.3813     1.3859     5.2778 </r>
       <r>   -20.2872     2.8928     5.6103 </r>
       <r>   -20.1931     2.3055     5.8277 </r>
       <r>   -20.0990     3.4140     6.1489 </r>
       <r>   -20.0049     2.0488     6.4014 </r>
       <r>   -19.9109     3.0884     6.7169 </r>
       <r>   -19.8168     2.0077     6.9145 </r>
       <r>   -19.7227     2.5789     7.1859 </r>
       <r>   -19.6286     2.4102     7.4696 </r>
       <r>   -19.5346     2.7499     7.7464 </r>
       <r>   -19.4405     2.1860     8.0197 </r>
       <r>   -19.3464     1.5375     8.2222 </r>
       <r>   -19.2523     3.7580     8.5758 </r>
       <r>   -19.1582     2.6005     8.8207 </r>
       <r>   -19.0642     2.6387     9.0691 </r>
       <r>   -18.9701     2.3048     9.3643 </r>
       <r>   -18.8760     1.5690     9.5582 </r>
       <r>   -18.7819     3.6243     9.9161 </r>
       <r>   -18.6879     1.4136    10.1511 </r>
       <r>   -18.5938     2.8630    10.4508 </r>
       <r>   -18.4997     1.9760    10.7755 </r>
       <r>   -18.4056     1.5200    10.9503 </r>
       <r>   -18.3115     3.6988    11.3187 </r>
       <r>   -18.2175     1.9206    11.5866 </r>
       <r>   -18.1234     1.6109    11.7751 </r>
       <r>   -18.0293     2.7307    12.1528 </r>
       <r>   -17.9352     1.8314    12.3862 </r>
       <r>   -17.8412     2.3631    12.6894 </r>
       <r>   -17.7471     2.6262    13.0136 </r>
       <r>   -17.6530     1.7646    13.2322 </r>
       <r>   -17.5589     3.3818    13.6023 </r>
       <r>   -17.4648     3.1763    13.9092 </r>
       <r>   -17.3708     2.3245    14.1282 </r>
       <r>   -17.2767     3.7134    14.5317 </r>
       <r>   -17.1826     2.8430    14.8393 </r>
       <r>   -17.0885     2.8073    15.1808 </r>
       <r>   -16.9944     4.7648    15.6637 </r>
       <r>   -16.9004     2.5742    16.0290 </r>
       <r>   -16.8063     1.7083    16.2291 </r>
       <r>   -16.7122     2.7319    16.5338 </r>
       <r>   -16.6181     1.7354    16.7664 </r>
       <r>   -16.5241     0.3400    16.7984 </r>
       <r>   -16.4300     3.4634    17.1746 </r>
       <r>   -16.3359     0.2892    17.2018 </r>
       <r>   -16.2418     2.5599    17.4426 </r>
       <r>   -16.1477     0.2721    17.5267 </r>
       <r>   -16.0537     0.5663    17.5816 </r>
       <r>   -15.9596     2.6838    17.8353 </r>
       <r>   -15.8655     1.7560    18.0473 </r>
       <r>   -15.7714     2.3091    18.2992 </r>
       <r>   -15.6774     3.1766    18.6440 </r>
       <r>   -15.5833     2.9972    18.9260 </r>
       <r>   -15.4892     2.0247    19.1338 </r>
       <r>   -15.3951     3.9977    19.5099 </r>
       <r>   -15.3010     2.0094    19.7038 </r>
       <r>   -15.2070     2.6009    20.0497 </r>
       <r>   -15.1129     4.1691    20.4965 </r>
       <r>   -15.0188     3.1594    20.8641 </r>
       <r>   -14.9247     2.6990    21.1481 </r>
       <r>   -14.8307     3.1012    21.5491 </r>
       <r>   -14.7366     3.1596    21.8711 </r>
       <r>   -14.6425     3.3081    22.1845 </r>
       <r>   -14.5484     2.7687    22.4968 </r>
       <r>   -14.4543     1.6637    22.7105 </r>
       <r>   -14.3603     2.5716    23.0135 </r>
       <r>   -14.2662     3.3452    23.3306 </r>
       <r>   -14.1721     2.6789    23.5945 </r>
       <r>   -14.0780     2.2364    23.8526 </r>
       <r>   -13.9839     2.4784    24.0926 </r>
       <r>   -13.8899     1.8018    24.3282 </r>
       <r>   -13.7958     1.7460    24.5951 </r>
       <r>   -13.7017     2.8858    24.8928 </r>
       <r>   -13.6076     1.7543    25.0585 </r>
       <r>   -13.5136     2.3317    25.3036 </r>
       <r>   -13.4195     2.2542    25.5503 </r>
       <r>   -13.3254     2.5367    25.8124 </r>
       <r>   -13.2313     2.3292    26.0468 </r>
       <r>   -13.1372     3.5260    26.4043 </r>
       <r>   -13.0432     1.9818    26.6400 </r>
       <r>   -12.9491     3.6681    27.0164 </r>
       <r>   -12.8550     2.5988    27.2698 </r>
       <r>   -12.7609     3.8750    27.6344 </r>
       <r>   -12.6669     1.7883    27.9101 </r>
       <r>   -12.5728     2.4685    28.1737 </r>
       <r>   -12.4787     2.7662    28.5197 </r>
       <r>   -12.3846     3.1932    28.8492 </r>
       <r>   -12.2905     2.5696    29.0991 </r>
       <r>   -12.1965     3.2332    29.4610 </r>
       <r>   -12.1024     2.8747    29.7988 </r>
       <r>   -12.0083     2.9120    30.0745 </r>
       <r>   -11.9142     3.4445    30.4510 </r>
       <r>   -11.8202     3.1631    30.7790 </r>
       <r>   -11.7261     1.9720    30.9928 </r>
       <r>   -11.6320     4.0215    31.4401 </r>
       <r>   -11.5379     1.2074    31.6555 </r>
       <r>   -11.4438     3.7561    32.0590 </r>
       <r>   -11.3498     3.2134    32.3613 </r>
       <r>   -11.2557     5.1552    32.8705 </r>
       <r>   -11.1616     1.2600    32.9938 </r>
       <r>   -11.0675     5.7119    33.5759 </r>
       <r>   -10.9735     1.7343    33.8003 </r>
       <r>   -10.8794     3.6023    34.1394 </r>
       <r>   -10.7853     3.0133    34.5465 </r>
       <r>   -10.6912     2.4703    34.8492 </r>
       <r>   -10.5971     1.9262    35.1888 </r>
       <r>   -10.5031     4.3684    35.6085 </r>
       <r>   -10.4090     3.3222    36.0178 </r>
       <r>   -10.3149     4.0826    36.4975 </r>
       <r>   -10.2208     8.3377    37.3110 </r>
       <r>   -10.1267     4.0859    37.7541 </r>
       <r>   -10.0327     7.4362    38.5329 </r>
       <r>    -9.9386     4.0866    39.0602 </r>
       <r>    -9.8445     6.4154    39.7421 </r>
       <r>    -9.7504     5.5837    40.3996 </r>
       <r>    -9.6564     4.1406    40.9524 </r>
       <r>    -9.5623     7.5483    41.8894 </r>
       <r>    -9.4682     5.0140    42.4400 </r>
       <r>    -9.3741     6.9848    43.2700 </r>
       <r>    -9.2800     9.1217    44.1870 </r>
       <r>    -9.1860     6.4593    44.9161 </r>
       <r>    -9.0919     9.5684    46.0257 </r>
       <r>    -8.9978     9.4821    47.0062 </r>
       <r>    -8.9037     5.8826    47.6653 </r>
       <r>    -8.8097     7.0440    48.4542 </r>
       <r>    -8.7156     5.0253    49.0724 </r>
       <r>    -8.6215     7.6161    49.8609 </r>
       <r>    -8.5274     4.9946    50.3838 </r>
       <r>    -8.4333     6.9273    51.1418 </r>
       <r>    -8.3393     5.1647    51.7335 </r>
       <r>    -8.2452     5.1648    52.3323 </r>
       <r>    -8.1511     4.7836    52.8945 </r>
       <r>    -8.0570     6.1829    53.5432 </r>
       <r>    -7.9630     3.1896    54.0418 </r>
       <r>    -7.8689     6.3541    54.7021 </r>
       <r>    -7.7748     2.8947    55.1023 </r>
       <r>    -7.6807     4.8038    55.6815 </r>
       <r>    -7.5866     5.7832    56.2541 </r>
       <r>    -7.4926     4.3939    56.7501 </r>
       <r>    -7.3985     5.0647    57.2656 </r>
       <r>    -7.3044     4.6640    57.8278 </r>
       <r>    -7.2103     4.4887    58.3089 </r>
       <r>    -7.1162     3.2476    58.7550 </r>
       <r>    -7.0222     5.7161    59.4312 </r>
       <r>    -6.9281     2.2545    59.6770 </r>
       <r>    -6.8340     5.9382    60.3866 </r>
       <r>    -6.7399     2.7115    60.6996 </r>
       <r>    -6.6459     5.5026    61.2985 </r>
       <r>    -6.5518     3.3968    61.7436 </r>
       <r>    -6.4577     4.1002    62.1643 </r>
       <r>    -6.3636     6.0743    62.7846 </r>
       <r>    -6.2695     2.8124    63.1127 </r>
       <r>    -6.1755     3.8227    63.5617 </r>
       <r>    -6.0814     5.7794    64.1447 </r>
       <r>    -5.9873     4.4111    64.5876 </r>
       <r>    -5.8932     3.6212    64.9576 </r>
       <r>    -5.7992     5.1349    65.5269 </r>
       <r>    -5.7051     3.3714    65.8691 </r>
       <r>    -5.6110     2.8951    66.1415 </r>
       <r>    -5.5169     3.3323    66.5090 </r>
       <r>    -5.4228     1.9266    66.8210 </r>
       <r>    -5.3288     2.9489    67.1527 </r>
       <r>    -5.2347     3.9249    67.6256 </r>
       <r>    -5.1406     3.0410    67.9599 </r>
       <r>    -5.0465     4.9520    68.5112 </r>
       <r>    -4.9525     5.1589    69.0754 </r>
       <r>    -4.8584     1.1286    69.1855 </r>
       <r>    -4.7643     5.8893    69.7425 </r>
       <r>    -4.6702     0.5839    69.8418 </r>
       <r>    -4.5761     1.6111    70.0021 </r>
       <r>    -4.4821     3.3578    70.3841 </r>
       <r>    -4.3880     0.8676    70.4943 </r>
       <r>    -4.2939     1.7423    70.6582 </r>
       <r>    -4.1998     2.4058    70.9025 </r>
       <r>    -4.1058     0.8674    70.9841 </r>
       <r>    -4.0117     1.6678    71.1410 </r>
       <r>    -3.9176     1.6879    71.3062 </r>
       <r>    -3.8235     0.7975    71.3857 </r>
       <r>    -3.7294     0.7030    71.4584 </r>
       <r>    -3.6354     0.5733    71.5828 </r>
       <r>    -3.5413     0.6030    71.6395 </r>
       <r>    -3.4472     0.9018    71.7492 </r>
       <r>    -3.3531     0.5294    71.8231 </r>
       <r>    -3.2590     0.0017    71.8278 </r>
       <r>    -3.1650     0.8676    71.9094 </r>
       <r>    -3.0709     0.2876    71.9365 </r>
       <r>    -2.9768     0.3726    71.9716 </r>
       <r>    -2.8827     0.0000    71.9909 </r>
       <r>    -2.7887     0.0000    71.9909 </r>
       <r>    -2.6946     0.1928    72.0091 </r>
       <r>    -2.6005     0.0000    72.0091 </r>
       <r>    -2.5064     0.0000    72.0091 </r>
       <r>    -2.4123     0.5785    72.0635 </r>
       <r>    -2.3183     0.0147    72.0649 </r>
       <r>    -2.2242     0.4350    72.1227 </r>
       <r>    -2.1301     0.0000    72.1723 </r>
       <r>    -2.0360     0.5784    72.2268 </r>
       <r>    -1.9420     1.4308    72.3614 </r>
       <r>    -1.8479     0.5785    72.4172 </r>
       <r>    -1.7538     0.8804    72.5001 </r>
       <r>    -1.6597     1.4099    72.6859 </r>
       <r>    -1.5656     0.5786    72.7438 </r>
       <r>    -1.4716     2.2220    72.9528 </r>
       <r>    -1.3775     1.4443    73.1519 </r>
       <r>    -1.2834     0.8510    73.2321 </r>
       <r>    -1.1893     5.0343    73.7072 </r>
       <r>    -1.0953     2.5102    73.9595 </r>
       <r>    -1.0012     6.4178    74.5908 </r>
       <r>    -0.9071     4.7209    75.1926 </r>
       <r>    -0.8130     3.4787    75.5202 </r>
       <r>    -0.7189     3.0237    75.8493 </r>
       <r>    -0.6249     3.6862    76.2743 </r>
       <r>    -0.5308     1.5138    76.4875 </r>
       <r>    -0.4367     2.3659    76.7581 </r>
       <r>    -0.3426     3.9096    77.1660 </r>
       <r>    -0.2486     1.4917    77.3195 </r>
       <r>    -0.1545     2.6529    77.5920 </r>
       <r>    -0.0604     2.2269    77.8512 </r>
       <r>     0.0337     2.3353    78.1339 </r>
       <r>     0.1278     1.3170    78.2826 </r>
       <r>     0.2218     2.0291    78.5130 </r>
       <r>     0.3159     2.9403    78.7896 </r>
       <r>     0.4100     1.7347    79.0022 </r>
       <r>     0.5041     1.4963    79.1430 </r>
       <r>     0.5982     4.4663    79.5863 </r>
       <r>     0.6922     3.5776    79.9424 </r>
       <r>     0.7863     3.9717    80.3601 </r>
       <r>     0.8804     3.2418    80.6723 </r>
       <r>     0.9745     4.3419    81.1302 </r>
       <r>     1.0685     3.4495    81.4547 </r>
       <r>     1.1626     3.7502    81.8902 </r>
       <r>     1.2567     2.8593    82.2146 </r>
       <r>     1.3508     3.7767    82.6818 </r>
       <r>     1.4449     4.8091    83.2461 </r>
       <r>     1.5389     4.4885    83.6791 </r>
       <r>     1.6330     6.0719    84.3457 </r>
       <r>     1.7271     5.4237    84.8830 </r>
       <r>     1.8212     6.4211    85.6608 </r>
       <r>     1.9152     6.0008    86.3287 </r>
       <r>     2.0093     6.9092    87.1862 </r>
       <r>     2.1034     5.4115    87.8515 </r>
       <r>     2.1975     5.7284    88.4810 </r>
       <r>     2.2916     7.7528    89.3014 </r>
       <r>     2.3856     6.2632    90.0541 </r>
       <r>     2.4797     5.6024    90.6999 </r>
       <r>     2.5738     7.1388    91.4427 </r>
       <r>     2.6679     9.1447    92.3390 </r>
       <r>     2.7619     6.7447    93.0699 </r>
       <r>     2.8560     5.8478    93.8122 </r>
       <r>     2.9501     5.8379    94.4544 </r>
       <r>     3.0442     5.4848    95.0924 </r>
       <r>     3.1383     4.3837    95.5600 </r>
       <r>     3.2323     2.9489    95.8602 </r>
       <r>     3.3264     0.4819    95.9546 </r>
       <r>     3.4205     0.2892    96.0000 </r>
       <r>     3.5146     0.0000    96.0000 </r>
       <r>     3.6087     0.0000    96.0000 </r>
       <r>     3.7027     0.0000    96.0000 </r>
       <r>     3.7968     0.0000    96.0000 </r>
       <r>     3.8909     0.0000    96.0000 </r>
       <r>     3.9850     0.0000    96.0000 </r>
       <r>     4.0790     0.0000    96.0000 </r>
       <r>     4.1731     0.0000    96.0000 </r>
       <r>     4.2672     0.0000    96.0000 </r>
       <r>     4.3613     0.0000    96.0000 </r>
       <r>     4.4554     0.0000    96.0000 </r>
       <r>     4.5494     0.0000    96.0000 </r>
       <r>     4.6435     0.0000    96.0000 </r>
      </set>
     </set>
    </array>
   </total>
  </dos>
 </calculation>
 <structure name="finalpos" >
  <crystal>
   <varray name="basis" >
    <v>       6.39000000      -3.68926800       0.00000000 </v>
    <v>       6.39000000       3.68926800       0.00000000 </v>
    <v>       0.00000000       0.00000000      20.00000000 </v>
   </varray>
   <i name="volume">    942.97690080 </i>
   <varray name="rec_basis" >
    <v>       0.07824726      -0.13552824       0.00000000 </v>
    <v>       0.07824726       0.13552824       0.00000000 </v>
    <v>       0.00000000       0.00000000       0.05000000 </v>
   </varray>
  </crystal>
  <varray name="positions" >
   <v>       0.00046900       0.00000000       0.00046900 </v>
   <v>       0.33333300       0.00000000       0.00000000 </v>
   <v>       0.66666700       0.00000000       0.00000000 </v>
   <v>       0.00000000       0.33333300       0.00000000 </v>
   <v>       0.33333300       0.33333300       0.00000000 </v>
   <v>       0.66666700       0.33333300       0.00000000 </v>
   <v>       0.00000000       0.66666700       0.00000000 </v>
   <v>       0.33333300       0.66666700       0.00000000 </v>
   <v>       0.66666700       0.66666700       0.00000000 </v>
   <v>       0.11111100       0.11111100       0.00000000 </v>
   <v>       0.44444400       0.11111100       0.00000000 </v>
   <v>       0.77777800       0.11111100       0.00000000 </v>
   <v>       0.11111100       0.44444400       0.00000000 </v>
   <v>       0.44444400       0.44444400       0.00000000 </v>
   <v>       0.77777800       0.44444400       0.00000000 </v>
   <v>       0.11111100       0.77777800       0.00000000 </v>
   <v>       0.44444400       0.77777800       0.00000000 </v>
   <v>       0.77777800       0.77777800       0.00000000 </v>
  </varray>
 </structure>
</modeling>
