  27  27   0   0
  0.6214970E+02  0.9846000E-09  0.9841284E-09  0.2000000E-08  0.5000000E-15
  1.000000000000000E-004
  CAR 
 W-1, se-2                               
      2.35175496    -17.44521327  301     -1.72312100      1.00000000
    -17.445  0.0000E+00  0.0000E+00
    -17.379  0.0000E+00  0.0000E+00
    -17.313  0.0000E+00  0.0000E+00
    -17.247  0.0000E+00  0.0000E+00
    -17.181  0.0000E+00  0.0000E+00
    -17.115  0.0000E+00  0.0000E+00
    -17.049  0.0000E+00  0.0000E+00
    -16.983  0.0000E+00  0.0000E+00
    -16.917  0.0000E+00  0.0000E+00
    -16.851  0.0000E+00  0.0000E+00
    -16.785  0.0000E+00  0.0000E+00
    -16.719  0.0000E+00  0.0000E+00
    -16.653  0.0000E+00  0.0000E+00
    -16.587  0.1185E-09  0.7817E-11
    -16.521  0.1582E+01  0.1044E+00
    -16.455  0.4367E+01  0.3927E+00
    -16.389  0.4588E+01  0.6956E+00
    -16.323  0.4200E+01  0.9732E+00
    -16.257  0.4916E+01  0.1298E+01
    -16.191  0.4726E+01  0.1610E+01
    -16.125  0.4743E+01  0.1923E+01
    -16.059  0.4902E+01  0.2247E+01
    -15.993  0.4646E+01  0.2554E+01
    -15.927  0.5257E+01  0.2901E+01
    -15.861  0.4488E+01  0.3198E+01
    -15.795  0.4804E+01  0.3515E+01
    -15.729  0.5317E+01  0.3867E+01
    -15.663  0.5942E+01  0.4259E+01
    -15.597  0.5801E+01  0.4642E+01
    -15.532  0.4937E+01  0.4968E+01
    -15.466  0.5688E+01  0.5343E+01
    -15.400  0.6573E+01  0.5777E+01
    -15.334  0.1004E+02  0.6440E+01
    -15.268  0.1375E+02  0.7348E+01
    -15.202  0.1505E+02  0.8342E+01
    -15.136  0.1582E+02  0.9387E+01
    -15.070  0.1625E+02  0.1046E+02
    -15.004  0.1567E+02  0.1149E+02
    -14.938  0.1756E+02  0.1265E+02
    -14.872  0.1871E+02  0.1389E+02
    -14.806  0.2043E+02  0.1524E+02
    -14.740  0.2110E+02  0.1663E+02
    -14.674  0.2233E+02  0.1811E+02
    -14.608  0.2672E+02  0.1987E+02
    -14.542  0.3213E+02  0.2199E+02
    -14.476  0.3849E+02  0.2454E+02
    -14.410  0.3114E+02  0.2659E+02
    -14.344  0.3711E+02  0.2904E+02
    -14.278  0.4725E+02  0.3216E+02
    -14.212  0.3098E+02  0.3421E+02
    -14.146  0.1984E+02  0.3552E+02
    -14.080  0.7183E+01  0.3600E+02
    -14.014  0.0000E+00  0.3600E+02
    -13.948  0.0000E+00  0.3600E+02
    -13.882  0.0000E+00  0.3600E+02
    -13.816  0.0000E+00  0.3600E+02
    -13.750  0.0000E+00  0.3600E+02
    -13.684  0.0000E+00  0.3600E+02
    -13.618  0.0000E+00  0.3600E+02
    -13.552  0.0000E+00  0.3600E+02
    -13.486  0.0000E+00  0.3600E+02
    -13.420  0.0000E+00  0.3600E+02
    -13.354  0.0000E+00  0.3600E+02
    -13.288  0.0000E+00  0.3600E+02
    -13.222  0.0000E+00  0.3600E+02
    -13.156  0.0000E+00  0.3600E+02
    -13.090  0.0000E+00  0.3600E+02
    -13.024  0.0000E+00  0.3600E+02
    -12.958  0.0000E+00  0.3600E+02
    -12.892  0.0000E+00  0.3600E+02
    -12.826  0.0000E+00  0.3600E+02
    -12.760  0.0000E+00  0.3600E+02
    -12.694  0.0000E+00  0.3600E+02
    -12.628  0.0000E+00  0.3600E+02
    -12.562  0.0000E+00  0.3600E+02
    -12.496  0.0000E+00  0.3600E+02
    -12.430  0.0000E+00  0.3600E+02
    -12.364  0.0000E+00  0.3600E+02
    -12.298  0.0000E+00  0.3600E+02
    -12.232  0.0000E+00  0.3600E+02
    -12.166  0.0000E+00  0.3600E+02
    -12.100  0.0000E+00  0.3600E+02
    -12.034  0.0000E+00  0.3600E+02
    -11.968  0.0000E+00  0.3600E+02
    -11.902  0.0000E+00  0.3600E+02
    -11.836  0.0000E+00  0.3600E+02
    -11.770  0.0000E+00  0.3600E+02
    -11.704  0.0000E+00  0.3600E+02
    -11.638  0.0000E+00  0.3600E+02
    -11.572  0.0000E+00  0.3600E+02
    -11.506  0.0000E+00  0.3600E+02
    -11.440  0.0000E+00  0.3600E+02
    -11.374  0.0000E+00  0.3600E+02
    -11.308  0.0000E+00  0.3600E+02
    -11.242  0.0000E+00  0.3600E+02
    -11.176  0.0000E+00  0.3600E+02
    -11.110  0.0000E+00  0.3600E+02
    -11.044  0.0000E+00  0.3600E+02
    -10.978  0.0000E+00  0.3600E+02
    -10.912  0.0000E+00  0.3600E+02
    -10.846  0.0000E+00  0.3600E+02
    -10.780  0.0000E+00  0.3600E+02
    -10.714  0.0000E+00  0.3600E+02
    -10.648  0.0000E+00  0.3600E+02
    -10.582  0.0000E+00  0.3600E+02
    -10.516  0.0000E+00  0.3600E+02
    -10.450  0.0000E+00  0.3600E+02
    -10.384  0.0000E+00  0.3600E+02
    -10.318  0.0000E+00  0.3600E+02
    -10.252  0.0000E+00  0.3600E+02
    -10.186  0.0000E+00  0.3600E+02
    -10.120  0.0000E+00  0.3600E+02
    -10.054  0.0000E+00  0.3600E+02
     -9.988  0.0000E+00  0.3600E+02
     -9.922  0.0000E+00  0.3600E+02
     -9.856  0.0000E+00  0.3600E+02
     -9.790  0.0000E+00  0.3600E+02
     -9.724  0.0000E+00  0.3600E+02
     -9.658  0.0000E+00  0.3600E+02
     -9.592  0.0000E+00  0.3600E+02
     -9.526  0.0000E+00  0.3600E+02
     -9.460  0.0000E+00  0.3600E+02
     -9.394  0.0000E+00  0.3600E+02
     -9.328  0.0000E+00  0.3600E+02
     -9.262  0.0000E+00  0.3600E+02
     -9.196  0.0000E+00  0.3600E+02
     -9.130  0.0000E+00  0.3600E+02
     -9.064  0.0000E+00  0.3600E+02
     -8.999  0.0000E+00  0.3600E+02
     -8.933  0.0000E+00  0.3600E+02
     -8.867  0.0000E+00  0.3600E+02
     -8.801  0.0000E+00  0.3600E+02
     -8.735  0.0000E+00  0.3600E+02
     -8.669  0.0000E+00  0.3600E+02
     -8.603  0.0000E+00  0.3600E+02
     -8.537  0.0000E+00  0.3600E+02
     -8.471  0.0000E+00  0.3600E+02
     -8.405  0.0000E+00  0.3600E+02
     -8.339  0.0000E+00  0.3600E+02
     -8.273  0.0000E+00  0.3600E+02
     -8.207  0.0000E+00  0.3600E+02
     -8.141  0.3442E+00  0.3602E+02
     -8.075  0.6562E+01  0.3646E+02
     -8.009  0.7738E+01  0.3697E+02
     -7.943  0.1057E+02  0.3766E+02
     -7.877  0.1093E+02  0.3839E+02
     -7.811  0.1121E+02  0.3913E+02
     -7.745  0.1036E+02  0.3981E+02
     -7.679  0.1274E+02  0.4065E+02
     -7.613  0.1276E+02  0.4150E+02
     -7.547  0.1367E+02  0.4240E+02
     -7.481  0.1255E+02  0.4323E+02
     -7.415  0.1299E+02  0.4408E+02
     -7.349  0.1724E+02  0.4522E+02
     -7.283  0.2203E+02  0.4668E+02
     -7.217  0.1872E+02  0.4792E+02
     -7.151  0.1576E+02  0.4896E+02
     -7.085  0.2292E+02  0.5047E+02
     -7.019  0.2577E+02  0.5217E+02
     -6.953  0.3116E+02  0.5423E+02
     -6.887  0.3946E+02  0.5684E+02
     -6.821  0.2406E+02  0.5843E+02
     -6.755  0.1950E+02  0.5972E+02
     -6.689  0.1175E+02  0.6049E+02
     -6.623  0.8986E+01  0.6108E+02
     -6.557  0.9168E+01  0.6169E+02
     -6.491  0.5829E+01  0.6208E+02
     -6.425  0.6523E+01  0.6251E+02
     -6.359  0.6495E+01  0.6294E+02
     -6.293  0.7631E+01  0.6344E+02
     -6.227  0.3131E+02  0.6551E+02
     -6.161  0.2332E+02  0.6705E+02
     -6.095  0.2343E+02  0.6859E+02
     -6.029  0.2538E+02  0.7027E+02
     -5.963  0.3912E+02  0.7285E+02
     -5.897  0.4240E+02  0.7565E+02
     -5.831  0.3697E+02  0.7809E+02
     -5.765  0.3516E+02  0.8042E+02
     -5.699  0.1026E+02  0.8109E+02
     -5.633  0.7364E+01  0.8158E+02
     -5.567  0.5987E+01  0.8198E+02
     -5.501  0.7609E+01  0.8248E+02
     -5.435  0.1298E+02  0.8334E+02
     -5.369  0.1120E+02  0.8408E+02
     -5.303  0.9140E+01  0.8468E+02
     -5.237  0.1373E+02  0.8559E+02
     -5.171  0.3236E+02  0.8772E+02
     -5.105  0.4437E+02  0.9065E+02
     -5.039  0.2827E+02  0.9252E+02
     -4.973  0.2229E+02  0.9399E+02
     -4.907  0.2401E+02  0.9558E+02
     -4.841  0.2113E+02  0.9698E+02
     -4.775  0.2028E+02  0.9831E+02
     -4.709  0.2748E+02  0.1001E+03
     -4.643  0.2376E+02  0.1017E+03
     -4.577  0.1806E+02  0.1029E+03
     -4.511  0.1906E+02  0.1041E+03
     -4.445  0.1485E+02  0.1051E+03
     -4.379  0.1191E+02  0.1059E+03
     -4.313  0.1631E+02  0.1070E+03
     -4.247  0.1311E+02  0.1079E+03
     -4.181  0.1062E+02  0.1086E+03
     -4.115  0.2274E+02  0.1101E+03
     -4.049  0.1767E+02  0.1112E+03
     -3.983  0.3028E+02  0.1132E+03
     -3.917  0.5356E+02  0.1168E+03
     -3.851  0.3291E+02  0.1189E+03
     -3.785  0.3632E+02  0.1213E+03
     -3.719  0.2828E+02  0.1232E+03
     -3.653  0.2804E+02  0.1251E+03
     -3.587  0.3222E+02  0.1272E+03
     -3.521  0.3249E+02  0.1293E+03
     -3.455  0.2781E+02  0.1312E+03
     -3.389  0.2396E+02  0.1328E+03
     -3.323  0.2209E+02  0.1342E+03
     -3.257  0.2394E+02  0.1358E+03
     -3.191  0.1631E+02  0.1369E+03
     -3.125  0.2005E+02  0.1382E+03
     -3.059  0.2136E+02  0.1396E+03
     -2.993  0.1936E+02  0.1409E+03
     -2.927  0.1926E+02  0.1422E+03
     -2.861  0.3036E+02  0.1442E+03
     -2.795  0.8790E+01  0.1447E+03
     -2.729  0.1072E+02  0.1455E+03
     -2.663  0.1546E+02  0.1465E+03
     -2.597  0.2590E+02  0.1482E+03
     -2.531  0.3466E+02  0.1505E+03
     -2.466  0.2974E+02  0.1524E+03
     -2.400  0.2806E+02  0.1543E+03
     -2.334  0.2698E+02  0.1561E+03
     -2.268  0.2504E+02  0.1577E+03
     -2.202  0.2277E+02  0.1592E+03
     -2.136  0.1139E+02  0.1600E+03
     -2.070  0.8834E+01  0.1606E+03
     -2.004  0.6724E+01  0.1610E+03
     -1.938  0.5294E+01  0.1614E+03
     -1.872  0.4400E+01  0.1617E+03
     -1.806  0.3725E+01  0.1619E+03
     -1.740  0.1565E+01  0.1620E+03
     -1.674  0.0000E+00  0.1620E+03
     -1.608  0.0000E+00  0.1620E+03
     -1.542  0.0000E+00  0.1620E+03
     -1.476  0.0000E+00  0.1620E+03
     -1.410  0.0000E+00  0.1620E+03
     -1.344  0.0000E+00  0.1620E+03
     -1.278  0.0000E+00  0.1620E+03
     -1.212  0.0000E+00  0.1620E+03
     -1.146  0.0000E+00  0.1620E+03
     -1.080  0.0000E+00  0.1620E+03
     -1.014  0.0000E+00  0.1620E+03
     -0.948  0.0000E+00  0.1620E+03
     -0.882  0.0000E+00  0.1620E+03
     -0.816  0.0000E+00  0.1620E+03
     -0.750  0.0000E+00  0.1620E+03
     -0.684  0.0000E+00  0.1620E+03
     -0.618  0.0000E+00  0.1620E+03
     -0.552  0.0000E+00  0.1620E+03
     -0.486  0.0000E+00  0.1620E+03
     -0.420  0.0000E+00  0.1620E+03
     -0.354  0.0000E+00  0.1620E+03
     -0.288  0.0000E+00  0.1620E+03
     -0.222  0.0000E+00  0.1620E+03
     -0.156  0.6609E+00  0.1620E+03
     -0.090  0.1288E+02  0.1629E+03
     -0.024  0.1779E+02  0.1641E+03
      0.042  0.2088E+02  0.1654E+03
      0.108  0.3004E+02  0.1674E+03
      0.174  0.2605E+02  0.1692E+03
      0.240  0.2291E+02  0.1707E+03
      0.306  0.2660E+02  0.1724E+03
      0.372  0.2154E+02  0.1739E+03
      0.438  0.1942E+02  0.1751E+03
      0.504  0.1557E+02  0.1762E+03
      0.570  0.2178E+02  0.1776E+03
      0.636  0.3805E+02  0.1801E+03
      0.702  0.6250E+02  0.1842E+03
      0.768  0.4622E+02  0.1873E+03
      0.834  0.4290E+02  0.1901E+03
      0.900  0.3745E+02  0.1926E+03
      0.966  0.3942E+02  0.1952E+03
      1.032  0.4760E+02  0.1983E+03
      1.098  0.3604E+02  0.2007E+03
      1.164  0.2574E+02  0.2024E+03
      1.230  0.1318E+02  0.2033E+03
      1.296  0.6495E+01  0.2037E+03
      1.362  0.3130E+01  0.2039E+03
      1.428  0.8844E+00  0.2040E+03
      1.494  0.6870E-01  0.2040E+03
      1.560  0.0000E+00  0.2040E+03
      1.626  0.0000E+00  0.2040E+03
      1.692  0.0000E+00  0.2040E+03
      1.758  0.0000E+00  0.2040E+03
      1.824  0.0000E+00  0.2040E+03
      1.890  0.0000E+00  0.2040E+03
      1.956  0.0000E+00  0.2040E+03
      2.022  0.0000E+00  0.2040E+03
      2.088  0.0000E+00  0.2040E+03
      2.154  0.0000E+00  0.2040E+03
      2.220  0.0000E+00  0.2040E+03
      2.286  0.0000E+00  0.2040E+03
      2.352  0.0000E+00  0.2040E+03
