       N       E                     dE             d eps       ncg     rms          rms(c)
DAV:   1     0.141455531342E+04    0.14146E+04   -0.68454E+04 24684   0.168E+03
DAV:   2     0.197432571358E+02   -0.13948E+04   -0.13481E+04 40764   0.255E+02
DAV:   3    -0.195028058222E+03   -0.21477E+03   -0.21312E+03 29232   0.105E+02
DAV:   4    -0.203870095231E+03   -0.88420E+01   -0.87909E+01 32940   0.242E+01
DAV:   5    -0.204174002266E+03   -0.30391E+00   -0.30340E+00 37944   0.383E+00    0.161E+01
DAV:   6    -0.196825829393E+03    0.73482E+01   -0.41466E+01 35904   0.148E+01    0.606E+00
DAV:   7    -0.195222121780E+03    0.16037E+01   -0.82806E+00 34464   0.782E+00    0.383E+00
DAV:   8    -0.194746733763E+03    0.47539E+00   -0.15715E+00 29460   0.329E+00    0.799E-01
DAV:   9    -0.194730817517E+03    0.15916E-01   -0.26197E-01 36072   0.129E+00    0.481E-01
DAV:  10    -0.194703174273E+03    0.27643E-01   -0.89103E-02 35208   0.734E-01    0.234E-01
DAV:  11    -0.194696982612E+03    0.61917E-02   -0.81389E-03 35280   0.285E-01    0.196E-01
DAV:  12    -0.194692347711E+03    0.46349E-02   -0.88472E-03 36384   0.234E-01    0.952E-02
DAV:  13    -0.194681222997E+03    0.11125E-01   -0.12029E-02 30432   0.203E-01    0.725E-02
DAV:  14    -0.194678711962E+03    0.25110E-02   -0.15244E-03 32064   0.930E-02    0.600E-02
DAV:  15    -0.194674786658E+03    0.39253E-02   -0.19104E-03 30540   0.938E-02    0.599E-02
DAV:  16    -0.194675225462E+03   -0.43880E-03   -0.41222E-04 30876   0.576E-02    0.516E-02
DAV:  17    -0.194681466336E+03   -0.62409E-02   -0.22772E-03 32256   0.862E-02    0.488E-02
DAV:  18    -0.194686596827E+03   -0.51305E-02   -0.11078E-03 31944   0.762E-02    0.305E-02
DAV:  19    -0.194688769719E+03   -0.21729E-02   -0.33131E-04 33240   0.402E-02    0.210E-02
DAV:  20    -0.194690197494E+03   -0.14278E-02   -0.17433E-04 32100   0.296E-02    0.839E-03
DAV:  21    -0.194690821487E+03   -0.62399E-03   -0.46426E-05 31632   0.144E-02    0.569E-03
DAV:  22    -0.194691007790E+03   -0.18630E-03   -0.98441E-06 31848   0.589E-03    0.273E-03
DAV:  23    -0.194691058333E+03   -0.50543E-04   -0.20050E-06 31260   0.346E-03    0.153E-03
DAV:  24    -0.194691084807E+03   -0.26474E-04   -0.14411E-06 32076   0.235E-03    0.595E-04
DAV:  25    -0.194691089475E+03   -0.46679E-05   -0.12942E-07 31728   0.906E-04    0.303E-04
DAV:  26    -0.194691093003E+03   -0.35277E-05   -0.92739E-08 30396   0.496E-04    0.137E-04
DAV:  27    -0.194691093747E+03   -0.74399E-06   -0.87615E-09 29616   0.191E-04    0.648E-05
DAV:  28    -0.194691094248E+03   -0.50182E-06   -0.47392E-09 25680   0.131E-04    0.266E-05
DAV:  29    -0.194691094362E+03   -0.11355E-06    0.48122E-09 25572   0.611E-05    0.170E-05
DAV:  30    -0.194691094407E+03   -0.44988E-07    0.61339E-09 21864   0.322E-05    0.118E-05
DAV:  31    -0.194691094431E+03   -0.24109E-07    0.61723E-09 21660   0.246E-05    0.664E-06
DAV:  32    -0.194691094435E+03   -0.37371E-08    0.64764E-09 21636   0.126E-05
   1 F= -.19469109E+03 E0= -.19469109E+03  d E =-.137783E-15
