 vasp.5.4.4.18Apr17-6-g9f103f2a35 (build May 31 2018 21:15:54) complex          
  
 executed on          c7_intel_O1 date 2020.08.13  02:02:51
 running on   36 total cores
 distrk:  each k-point on   36 cores,    1 groups
 distr:  one band on NCORES_PER_BAND=   6 cores,    6 groups


--------------------------------------------------------------------------------------------------------


 INCAR:
 POTCAR:   PAW_PBE W 08Apr2002                    
 POTCAR:   PAW_PBE Se 06Sep2000                   
 POTCAR:   PAW_PBE W 08Apr2002                    
   VRHFIN =W : 6s5d                                                             
   LEXCH  = PE                                                                  
   EATOM  =   204.6100 eV,   15.0384 Ry                                         
                                                                                
   TITEL  = PAW_PBE W 08Apr2002                                                 
   LULTRA =        F    use ultrasoft PP ?                                      
   IUNSCR =        1    unscreen: 0-lin 1-nonlin 2-no                           
   RPACOR =    2.330    partial core radius                                     
   POMASS =  183.850; ZVAL   =    6.000    mass and valenz                      
   RCORE  =    2.750    outmost cutoff radius                                   
   RWIGS  =    2.750; RWIGS  =    1.455    wigner-seitz radius (au A)           
   ENMAX  =  223.057; ENMIN  =  167.293 eV                                      
   RCLOC  =    2.147    cutoff for local pot                                    
   LCOR   =        T    correct aug charges                                     
   LPAW   =        T    paw PP                                                  
   EAUG   =  373.438                                                            
   DEXC   =    -.060                                                            
   RMAX   =    3.087    core radius for proj-oper                               
   RAUG   =    1.300    factor for augmentation sphere                          
   RDEP   =    2.886    radius for radial grids                                 
   QCUT   =   -4.049; QGAM   =    8.098    optimization parameters              
                                                                                
   Description                                                                  
     l     E      TYP  RCUT    TYP  RCUT                                        
     2   .000     23  2.500                                                     
     2   .000     23  2.500                                                     
     0   .000     23  2.500                                                     
     0   .000     23  2.500                                                     
     1   .200     23  2.750                                                     
     1  2.000     23  2.750                                                     
     3   .000      7   .000                                                     
  local pseudopotential read in
  partial core-charges read in
  atomic valenz-charges read in
  non local Contribution for L=           2  read in
    real space projection operators read in
  non local Contribution for L=           2  read in
    real space projection operators read in
  non local Contribution for L=           0  read in
    real space projection operators read in
  non local Contribution for L=           0  read in
    real space projection operators read in
  non local Contribution for L=           1  read in
    real space projection operators read in
  non local Contribution for L=           1  read in
    real space projection operators read in
    PAW grid and wavefunctions read in
 
   number of l-projection  operators is LMAX  =           6
   number of lm-projection operators is LMMAX =          18
 
 POTCAR:   PAW_PBE Se 06Sep2000                   
   VRHFIN =Se: s2p4                                                             
   LEXCH  = PE                                                                  
   EATOM  =   256.9644 eV,   18.8864 Ry                                         
                                                                                
   TITEL  = PAW_PBE Se 06Sep2000                                                
   LULTRA =        F    use ultrasoft PP ?                                      
   IUNSCR =        1    unscreen: 0-lin 1-nonlin 2-no                           
   RPACOR =    1.900    partial core radius                                     
   POMASS =   78.960; ZVAL   =    6.000    mass and valenz                      
   RCORE  =    2.100    outmost cutoff radius                                   
   RWIGS  =    2.200; RWIGS  =    1.164    wigner-seitz radius (au A)           
   ENMAX  =  211.534; ENMIN  =  158.651 eV                                      
   ICORE  =        3    local potential                                         
   LCOR   =        T    correct aug charges                                     
   LPAW   =        T    paw PP                                                  
   EAUG   =  446.842                                                            
   DEXC   =    -.031                                                            
   RMAX   =    3.170    core radius for proj-oper                               
   RAUG   =    1.300    factor for augmentation sphere                          
   RDEP   =    2.177    radius for radial grids                                 
   QCUT   =   -3.943; QGAM   =    7.886    optimization parameters              
                                                                                
   Description                                                                  
     l     E      TYP  RCUT    TYP  RCUT                                        
     0   .000     23  2.100                                                     
     0   .000     23  2.100                                                     
     1   .000     23  2.100                                                     
     1   .000     23  2.100                                                     
     2   .000     23  2.100                                                     
     3  -.100      7  2.100                                                     
  local pseudopotential read in
  partial core-charges read in
  atomic valenz-charges read in
  non local Contribution for L=           0  read in
    real space projection operators read in
  non local Contribution for L=           0  read in
    real space projection operators read in
  non local Contribution for L=           1  read in
    real space projection operators read in
  non local Contribution for L=           1  read in
    real space projection operators read in
  non local Contribution for L=           2  read in
    real space projection operators read in
    PAW grid and wavefunctions read in
 
   number of l-projection  operators is LMAX  =           5
   number of lm-projection operators is LMMAX =          13
 

 ----------------------------------------------------------------------------- 
|                                                                             |
|  ADVICE TO THIS USER RUNNING 'VASP/VAMP'   (HEAR YOUR MASTER'S VOICE ...):  |
|                                                                             |
|      You have a (more or less) 'large supercell' and for larger cells       |
|      it might be more efficient to use real space projection operators      |
|      So try LREAL= Auto  in the INCAR   file.                               |
|      Mind: If you want to do a very accurate calculations keep the          |
|      reciprocal projection scheme          (i.e. LREAL=.FALSE.)             |
|                                                                             |
 ----------------------------------------------------------------------------- 

 WARNING: PSMAXN for non-local potential too small
          PSMAXN should be >   14.4904333269122       NTYP=           1
 PAW_PBE W 08Apr2002                    :
 energy of atom  1       EATOM= -204.6100
 kinetic energy error for atom=    0.0002 (will be added to EATOM!!)
 PAW_PBE Se 06Sep2000                   :
 energy of atom  2       EATOM= -256.9644
 kinetic energy error for atom=    0.0002 (will be added to EATOM!!)
 
 
 POSCAR: generated by phonopy                    
  positions in direct lattice
  No initial velocities read in
 exchange correlation table for  LEXCH =        8
   RHO(1)=    0.500       N(1)  =     2000
   RHO(2)=  100.500       N(2)  =     4000
 


--------------------------------------------------------------------------------------------------------


 ion  position               nearest neighbor table
   1  0.333  0.000  0.000-  17 2.54  26 2.54  20 2.54  11 2.54  19 2.54  10 2.55   4 3.28   6 3.28
                             8 3.28   7 3.28   2 3.28   3 3.28
   2  0.667  0.000  0.000-  18 2.54  27 2.54  20 2.54  11 2.54  21 2.54  12 2.54   4 3.28   5 3.28
                             8 3.28   9 3.28   1 3.28   3 3.28
   3  1.000  0.000  0.000-  16 2.54  25 2.54  19 2.54  21 2.54  12 2.54  10 2.55   6 3.28   7 3.28
                             5 3.28   9 3.28   1 3.28   2 3.28
   4  0.333  0.333  0.000-  11 2.54  20 2.54  14 2.54  13 2.54  22 2.54  23 2.54   1 3.28   2 3.28
                             7 3.28   9 3.28   5 3.28   6 3.28
   5  0.667  0.333  0.000-  12 2.54  21 2.54  14 2.54  23 2.54  15 2.54  24 2.54   2 3.28   7 3.28
                             8 3.28   3 3.28   4 3.28   6 3.28
   6  1.000  0.333  0.000-  19 2.54  13 2.54  22 2.54  15 2.54  24 2.54  10 2.55   3 3.28   1 3.28
                             9 3.28   8 3.28   4 3.28   5 3.28
   7  0.333  0.667  0.000-  14 2.54  23 2.54  17 2.54  26 2.54  25 2.54  16 2.54   5 3.28   4 3.28
                             3 3.28   1 3.28   8 3.28   9 3.28
   8  0.667  0.667  0.000-  15 2.54  24 2.54  17 2.54  26 2.54  18 2.54  27 2.54   5 3.28   1 3.28
                             6 3.28   2 3.28   7 3.28   9 3.28
   9  1.000  0.667  0.000-  13 2.54  22 2.54  16 2.54  25 2.54  18 2.54  27 2.54   4 3.28   6 3.28
                             2 3.28   3 3.28   7 3.28   8 3.28
  10  0.111  0.111  0.915-   6 2.55   3 2.55   1 2.55
  11  0.444  0.111  0.915-   4 2.54   2 2.54   1 2.54
  12  0.778  0.111  0.915-   5 2.54   3 2.54   2 2.54
  13  0.111  0.444  0.915-   9 2.54   6 2.54   4 2.54
  14  0.444  0.444  0.915-   7 2.54   5 2.54   4 2.54
  15  0.778  0.444  0.915-   8 2.54   6 2.54   5 2.54
  16  0.111  0.778  0.915-   3 2.54   9 2.54   7 2.54
  17  0.444  0.778  0.915-   1 2.54   8 2.54   7 2.54
  18  0.778  0.778  0.915-   2 2.54   9 2.54   8 2.54
  19  0.111  0.111  0.085-   6 2.54   3 2.54   1 2.54
  20  0.444  0.111  0.085-   4 2.54   2 2.54   1 2.54
  21  0.778  0.111  0.085-   5 2.54   3 2.54   2 2.54
  22  0.111  0.444  0.085-   9 2.54   6 2.54   4 2.54
  23  0.444  0.444  0.085-   7 2.54   5 2.54   4 2.54
  24  0.778  0.444  0.085-   8 2.54   6 2.54   5 2.54
  25  0.111  0.778  0.085-   3 2.54   9 2.54   7 2.54
  26  0.444  0.778  0.085-   1 2.54   8 2.54   7 2.54
  27  0.778  0.778  0.085-   2 2.54   9 2.54   8 2.54
 
  LATTYP: Found a base centered orthorhombic cell.
 ALAT       =     9.8460000000
 B/A-ratio  =     1.7309445460
 C/A-ratio  =     2.0312817388
  
  Lattice vectors:
  
 A1 = (  -4.9230000000,  -8.5214400000,   0.0000000000)
 A2 = (  -4.9230000000,   8.5214400000,   0.0000000000)
 A3 = (   0.0000000000,   0.0000000000, -20.0000000000)


Analysis of symmetry for initial positions (statically):
=====================================================================
 Subroutine PRICEL returns:
 Original cell was already a primitive cell.
 

 Routine SETGRP: Setting up the symmetry group for a 
 base centered orthorhombic supercell.


 Subroutine GETGRP returns: Found  2 space group operations
 (whereof  1 operations were pure point group operations)
 out of a pool of  8 trial point group operations.


The static configuration has the point symmetry C_1 .
 The point group associated with its full space group is C_1h.


Analysis of symmetry for dynamics (positions and initial velocities):
=====================================================================
 Subroutine PRICEL returns:
 Original cell was already a primitive cell.
 

 Routine SETGRP: Setting up the symmetry group for a 
 base centered orthorhombic supercell.


 Subroutine GETGRP returns: Found  2 space group operations
 (whereof  1 operations were pure point group operations)
 out of a pool of  8 trial point group operations.


The dynamic configuration has the point symmetry C_1 .
 The point group associated with its full space group is C_1h.


 Subroutine INISYM returns: Found  2 space group operations
 (whereof  1 operations are pure point group operations),
 and found     1 'primitive' translations

 
 
 KPOINTS: W-1, Se-2                               

Automatic generation of k-mesh.
Space group operators:
 irot       det(A)        alpha          n_x          n_y          n_z        tau_x        tau_y        tau_z
    1     1.000000     0.000000     1.000000     0.000000     0.000000     0.000000     0.000000     0.000000
    2    -1.000000   179.999999     1.000000     0.000000     0.000000    -0.666667    -0.000000     0.000000
 
 Subroutine IBZKPT returns following result:
 ===========================================
 
 Found    121 irreducible k-points:
 
 Following reciprocal coordinates:
            Coordinates               Weight
  0.000000  0.000000  0.000000      1.000000
  0.047619  0.000000  0.000000      4.000000
  0.095238  0.000000  0.000000      4.000000
  0.142857  0.000000  0.000000      4.000000
  0.190476  0.000000  0.000000      4.000000
  0.238095  0.000000  0.000000      4.000000
  0.285714  0.000000  0.000000      4.000000
  0.333333  0.000000  0.000000      4.000000
  0.380952  0.000000  0.000000      4.000000
  0.428571  0.000000  0.000000      4.000000
  0.476190  0.000000  0.000000      4.000000
  0.000000  0.047619  0.000000      2.000000
  0.095238  0.047619  0.000000      2.000000
  0.142857  0.047619  0.000000      4.000000
  0.190476  0.047619  0.000000      4.000000
  0.238095  0.047619  0.000000      4.000000
  0.285714  0.047619  0.000000      4.000000
  0.333333  0.047619  0.000000      4.000000
  0.380952  0.047619  0.000000      4.000000
  0.428571  0.047619  0.000000      4.000000
  0.476190  0.047619  0.000000      4.000000
 -0.476190  0.047619  0.000000      4.000000
 -0.428571  0.047619  0.000000      4.000000
 -0.380952  0.047619  0.000000      4.000000
 -0.333333  0.047619  0.000000      4.000000
 -0.285714  0.047619  0.000000      4.000000
 -0.238095  0.047619  0.000000      4.000000
 -0.190476  0.047619  0.000000      4.000000
 -0.142857  0.047619  0.000000      4.000000
 -0.095238  0.047619  0.000000      4.000000
 -0.047619  0.047619  0.000000      4.000000
  0.000000  0.095238  0.000000      2.000000
  0.190476  0.095238  0.000000      2.000000
  0.238095  0.095238  0.000000      4.000000
  0.285714  0.095238  0.000000      4.000000
  0.333333  0.095238  0.000000      4.000000
  0.380952  0.095238  0.000000      4.000000
  0.428571  0.095238  0.000000      4.000000
  0.476190  0.095238  0.000000      4.000000
 -0.476190  0.095238  0.000000      4.000000
 -0.428571  0.095238  0.000000      4.000000
 -0.380952  0.095238  0.000000      4.000000
 -0.333333  0.095238  0.000000      4.000000
 -0.285714  0.095238  0.000000      4.000000
 -0.238095  0.095238  0.000000      4.000000
 -0.190476  0.095238  0.000000      4.000000
 -0.142857  0.095238  0.000000      4.000000
 -0.095238  0.095238  0.000000      4.000000
 -0.047619  0.095238  0.000000      4.000000
  0.000000  0.142857  0.000000      2.000000
  0.285714  0.142857  0.000000      2.000000
  0.333333  0.142857  0.000000      4.000000
  0.380952  0.142857  0.000000      4.000000
  0.428571  0.142857  0.000000      4.000000
  0.476190  0.142857  0.000000      4.000000
 -0.476190  0.142857  0.000000      4.000000
 -0.428571  0.142857  0.000000      4.000000
 -0.380952  0.142857  0.000000      4.000000
 -0.333333  0.142857  0.000000      4.000000
 -0.285714  0.142857  0.000000      4.000000
 -0.238095  0.142857  0.000000      4.000000
 -0.190476  0.142857  0.000000      4.000000
 -0.142857  0.142857  0.000000      4.000000
 -0.095238  0.142857  0.000000      4.000000
 -0.047619  0.142857  0.000000      4.000000
  0.000000  0.190476  0.000000      2.000000
  0.380952  0.190476  0.000000      2.000000
  0.428571  0.190476  0.000000      4.000000
  0.476190  0.190476  0.000000      4.000000
 -0.476190  0.190476  0.000000      4.000000
 -0.428571  0.190476  0.000000      4.000000
 -0.380952  0.190476  0.000000      4.000000
 -0.333333  0.190476  0.000000      4.000000
 -0.285714  0.190476  0.000000      4.000000
 -0.238095  0.190476  0.000000      4.000000
 -0.190476  0.190476  0.000000      4.000000
 -0.142857  0.190476  0.000000      4.000000
 -0.095238  0.190476  0.000000      4.000000
 -0.047619  0.190476  0.000000      4.000000
  0.000000  0.238095  0.000000      2.000000
  0.476190  0.238095  0.000000      2.000000
 -0.476190  0.238095  0.000000      4.000000
 -0.428571  0.238095  0.000000      4.000000
 -0.380952  0.238095  0.000000      4.000000
 -0.333333  0.238095  0.000000      4.000000
 -0.285714  0.238095  0.000000      4.000000
 -0.238095  0.238095  0.000000      4.000000
 -0.190476  0.238095  0.000000      4.000000
 -0.142857  0.238095  0.000000      4.000000
 -0.095238  0.238095  0.000000      4.000000
 -0.047619  0.238095  0.000000      4.000000
  0.000000  0.285714  0.000000      2.000000
 -0.428571  0.285714  0.000000      2.000000
 -0.380952  0.285714  0.000000      4.000000
 -0.333333  0.285714  0.000000      4.000000
 -0.285714  0.285714  0.000000      4.000000
 -0.238095  0.285714  0.000000      4.000000
 -0.190476  0.285714  0.000000      4.000000
 -0.142857  0.285714  0.000000      4.000000
 -0.095238  0.285714  0.000000      4.000000
 -0.047619  0.285714  0.000000      4.000000
  0.000000  0.333333  0.000000      2.000000
 -0.333333  0.333333  0.000000      2.000000
 -0.285714  0.333333  0.000000      4.000000
 -0.238095  0.333333  0.000000      4.000000
 -0.190476  0.333333  0.000000      4.000000
 -0.142857  0.333333  0.000000      4.000000
 -0.095238  0.333333  0.000000      4.000000
 -0.047619  0.333333  0.000000      4.000000
  0.000000  0.380952  0.000000      2.000000
 -0.238095  0.380952  0.000000      2.000000
 -0.190476  0.380952  0.000000      4.000000
 -0.142857  0.380952  0.000000      4.000000
 -0.095238  0.380952  0.000000      4.000000
 -0.047619  0.380952  0.000000      4.000000
  0.000000  0.428571  0.000000      2.000000
 -0.142857  0.428571  0.000000      2.000000
 -0.095238  0.428571  0.000000      4.000000
 -0.047619  0.428571  0.000000      4.000000
  0.000000  0.476190  0.000000      2.000000
 -0.047619  0.476190  0.000000      2.000000
 
 Following cartesian coordinates:
            Coordinates               Weight
  0.000000  0.000000  0.000000      1.000000
  0.004836 -0.002794  0.000000      4.000000
  0.009673 -0.005588  0.000000      4.000000
  0.014509 -0.008382  0.000000      4.000000
  0.019346 -0.011176  0.000000      4.000000
  0.024182 -0.013970  0.000000      4.000000
  0.029018 -0.016764  0.000000      4.000000
  0.033855 -0.019559  0.000000      4.000000
  0.038691 -0.022353  0.000000      4.000000
  0.043527 -0.025147  0.000000      4.000000
  0.048364 -0.027941  0.000000      4.000000
  0.000000  0.005588  0.000000      2.000000
  0.009673  0.000000  0.000000      2.000000
  0.014509 -0.002794  0.000000      4.000000
  0.019346 -0.005588  0.000000      4.000000
  0.024182 -0.008382  0.000000      4.000000
  0.029018 -0.011176  0.000000      4.000000
  0.033855 -0.013970  0.000000      4.000000
  0.038691 -0.016764  0.000000      4.000000
  0.043527 -0.019559  0.000000      4.000000
  0.048364 -0.022353  0.000000      4.000000
 -0.048364  0.033529  0.000000      4.000000
 -0.043527  0.030735  0.000000      4.000000
 -0.038691  0.027941  0.000000      4.000000
 -0.033855  0.025147  0.000000      4.000000
 -0.029018  0.022353  0.000000      4.000000
 -0.024182  0.019559  0.000000      4.000000
 -0.019346  0.016764  0.000000      4.000000
 -0.014509  0.013970  0.000000      4.000000
 -0.009673  0.011176  0.000000      4.000000
 -0.004836  0.008382  0.000000      4.000000
  0.000000  0.011176  0.000000      2.000000
  0.019346 -0.000000  0.000000      2.000000
  0.024182 -0.002794  0.000000      4.000000
  0.029018 -0.005588  0.000000      4.000000
  0.033855 -0.008382  0.000000      4.000000
  0.038691 -0.011176  0.000000      4.000000
  0.043527 -0.013970  0.000000      4.000000
  0.048364 -0.016764  0.000000      4.000000
 -0.048364  0.039117  0.000000      4.000000
 -0.043527  0.036323  0.000000      4.000000
 -0.038691  0.033529  0.000000      4.000000
 -0.033855  0.030735  0.000000      4.000000
 -0.029018  0.027941  0.000000      4.000000
 -0.024182  0.025147  0.000000      4.000000
 -0.019346  0.022353  0.000000      4.000000
 -0.014509  0.019559  0.000000      4.000000
 -0.009673  0.016764  0.000000      4.000000
 -0.004836  0.013970  0.000000      4.000000
  0.000000  0.016764  0.000000      2.000000
  0.029018  0.000000  0.000000      2.000000
  0.033855 -0.002794  0.000000      4.000000
  0.038691 -0.005588  0.000000      4.000000
  0.043527 -0.008382  0.000000      4.000000
  0.048364 -0.011176  0.000000      4.000000
 -0.048364  0.044705  0.000000      4.000000
 -0.043527  0.041911  0.000000      4.000000
 -0.038691  0.039117  0.000000      4.000000
 -0.033855  0.036323  0.000000      4.000000
 -0.029018  0.033529  0.000000      4.000000
 -0.024182  0.030735  0.000000      4.000000
 -0.019346  0.027941  0.000000      4.000000
 -0.014509  0.025147  0.000000      4.000000
 -0.009673  0.022353  0.000000      4.000000
 -0.004836  0.019559  0.000000      4.000000
  0.000000  0.022353  0.000000      2.000000
  0.038691  0.000000  0.000000      2.000000
  0.043527 -0.002794  0.000000      4.000000
  0.048364 -0.005588  0.000000      4.000000
 -0.048364  0.050293  0.000000      4.000000
 -0.043527  0.047499  0.000000      4.000000
 -0.038691  0.044705  0.000000      4.000000
 -0.033855  0.041911  0.000000      4.000000
 -0.029018  0.039117  0.000000      4.000000
 -0.024182  0.036323  0.000000      4.000000
 -0.019346  0.033529  0.000000      4.000000
 -0.014509  0.030735  0.000000      4.000000
 -0.009673  0.027941  0.000000      4.000000
 -0.004836  0.025147  0.000000      4.000000
  0.000000  0.027941  0.000000      2.000000
  0.048364  0.000000  0.000000      2.000000
 -0.048364  0.055881  0.000000      4.000000
 -0.043527  0.053087  0.000000      4.000000
 -0.038691  0.050293  0.000000      4.000000
 -0.033855  0.047499  0.000000      4.000000
 -0.029018  0.044705  0.000000      4.000000
 -0.024182  0.041911  0.000000      4.000000
 -0.019346  0.039117  0.000000      4.000000
 -0.014509  0.036323  0.000000      4.000000
 -0.009673  0.033529  0.000000      4.000000
 -0.004836  0.030735  0.000000      4.000000
  0.000000  0.033529  0.000000      2.000000
 -0.043527  0.058676  0.000000      2.000000
 -0.038691  0.055881  0.000000      4.000000
 -0.033855  0.053087  0.000000      4.000000
 -0.029018  0.050293  0.000000      4.000000
 -0.024182  0.047499  0.000000      4.000000
 -0.019346  0.044705  0.000000      4.000000
 -0.014509  0.041911  0.000000      4.000000
 -0.009673  0.039117  0.000000      4.000000
 -0.004836  0.036323  0.000000      4.000000
  0.000000  0.039117  0.000000      2.000000
 -0.033855  0.058676  0.000000      2.000000
 -0.029018  0.055881  0.000000      4.000000
 -0.024182  0.053087  0.000000      4.000000
 -0.019346  0.050293  0.000000      4.000000
 -0.014509  0.047499  0.000000      4.000000
 -0.009673  0.044705  0.000000      4.000000
 -0.004836  0.041911  0.000000      4.000000
  0.000000  0.044705  0.000000      2.000000
 -0.024182  0.058676  0.000000      2.000000
 -0.019346  0.055881  0.000000      4.000000
 -0.014509  0.053087  0.000000      4.000000
 -0.009673  0.050293  0.000000      4.000000
 -0.004836  0.047499  0.000000      4.000000
  0.000000  0.050293  0.000000      2.000000
 -0.014509  0.058676  0.000000      2.000000
 -0.009673  0.055881  0.000000      4.000000
 -0.004836  0.053087  0.000000      4.000000
  0.000000  0.055881  0.000000      2.000000
 -0.004836  0.058676  0.000000      2.000000
 


--------------------------------------------------------------------------------------------------------




 Dimension of arrays:
   k-points           NKPTS =    121   k-points in BZ     NKDIM =    121   number of bands    NBANDS=    102
   number of dos      NEDOS =    301   number of ions     NIONS =     27
   non local maximal  LDIM  =      6   non local SUM 2l+1 LMDIM =     18
   total plane-waves  NPLWV = ******
   max r-space proj   IRMAX =      1   max aug-charges    IRDMAX= 481671
   dimension x,y,z NGX =    96 NGY =   96 NGZ =  192
   dimension x,y,z NGXF=   192 NGYF=  192 NGZF=  384
   support grid    NGXF=   384 NGYF=  384 NGZF=  768
   ions per type =               9  18
   NGX,Y,Z   is equivalent  to a cutoff of  16.21, 16.22, 15.96 a.u.
   NGXF,Y,Z  is equivalent  to a cutoff of  32.42, 32.43, 31.92 a.u.

 SYSTEM =  W-1, se-2                               
 POSCAR =  generated by phonopy                    

 Startparameter for this run:
   NWRITE =      2    write-flag & timer
   PREC   = accura    normal or accurate (medium, high low for compatibility)
   ISTART =      0    job   : 0-new  1-cont  2-samecut
   ICHARG =      2    charge: 1-file 2-atom 10-const
   ISPIN  =      1    spin polarized calculation?
   LNONCOLLINEAR =      F non collinear calculations
   LSORBIT =      F    spin-orbit coupling
   INIWAV =      1    electr: 0-lowe 1-rand  2-diag
   LASPH  =      F    aspherical Exc in radial PAW
   METAGGA=      F    non-selfconsistent MetaGGA calc.

 Electronic Relaxation 1
   ENCUT  =  800.0 eV  58.80 Ry    7.67 a.u.  22.71 22.70 46.12*2*pi/ulx,y,z
   ENINI  =  800.0     initial cutoff
   ENAUG  =  446.8 eV  augmentation charge cutoff
   NELM   =     60;   NELMIN=  5; NELMDL= -5     # of ELM steps 
   EDIFF  = 0.1E-07   stopping-criterion for ELM
   LREAL  =      F    real-space projection
   NLSPLINE    = F    spline interpolate recip. space projectors
   LCOMPAT=      F    compatible to vasp.4.4
   GGA_COMPAT  = T    GGA compatible to vasp.4.4-vasp.4.6
   LMAXPAW     = -100 max onsite density
   LMAXMIX     =    2 max onsite mixed and CHGCAR
   VOSKOWN=      0    Vosko Wilk Nusair interpolation
   ROPT   =    0.00000   0.00000
 Ionic relaxation
   EDIFFG = -.1E-07   stopping-criterion for IOM
   NSW    =      0    number of steps for IOM
   NBLOCK =      1;   KBLOCK =      1    inner block; outer block 
   IBRION =     -1    ionic relax: 0-MD 1-quasi-New 2-CG
   NFREE  =      0    steps in history (QN), initial steepest desc. (CG)
   ISIF   =      2    stress and relaxation
   IWAVPR =     10    prediction:  0-non 1-charg 2-wave 3-comb
   ISYM   =      2    0-nonsym 1-usesym 2-fastsym
   LCORR  =      T    Harris-Foulkes like correction to forces

   POTIM  = 0.5000    time-step for ionic-motion
   TEIN   =    0.0    initial temperature
   TEBEG  =    0.0;   TEEND  =   0.0 temperature during run
   SMASS  =  -3.00    Nose mass-parameter (am)
   estimated Nose-frequenzy (Omega)   =  0.10E-29 period in steps =****** mass=  -0.222E-26a.u.
   SCALEE = 1.0000    scale energy and forces
   NPACO  =    256;   APACO  = 16.0  distance and # of slots for P.C.
   PSTRESS=    0.0 pullay stress

  Mass of Ions in am
   POMASS = 183.85 78.96
  Ionic Valenz
   ZVAL   =   6.00  6.00
  Atomic Wigner-Seitz radii
   RWIGS  =  -1.00 -1.00
  virtual crystal weights 
   VCA    =   1.00  1.00
   NELECT =     162.0000    total number of electrons
   NUPDOWN=      -1.0000    fix difference up-down

 DOS related values:
   EMIN   =  10.00;   EMAX   =-10.00  energy-range for DOS
   EFERMI =   0.00
   ISMEAR =     0;   SIGMA  =   0.01  broadening in eV -4-tet -1-fermi 0-gaus

 Electronic relaxation 2 (details)
   IALGO  =     38    algorithm
   LDIAG  =      T    sub-space diagonalisation (order eigenvalues)
   LSUBROT=      F    optimize rotation matrix (better conditioning)
   TURBO    =      0    0=normal 1=particle mesh
   IRESTART =      0    0=no restart 2=restart with 2 vectors
   NREBOOT  =      0    no. of reboots
   NMIN     =      0    reboot dimension
   EREF     =   0.00    reference energy to select bands
   IMIX   =      4    mixing-type and parameters
     AMIX     =   0.40;   BMIX     =  1.00
     AMIX_MAG =   1.60;   BMIX_MAG =  1.00
     AMIN     =   0.01
     WC   =   100.;   INIMIX=   1;  MIXPRE=   1;  MAXMIX= -45

 Intra band minimization:
   WEIMIN = 0.0000     energy-eigenvalue tresh-hold
   EBREAK =  0.25E-11  absolut break condition
   DEPER  =   0.30     relativ break condition  

   TIME   =   0.40     timestep for ELM

  volume/ion in A,a.u.               =      62.15       419.41
  Fermi-wavevector in a.u.,A,eV,Ry     =   0.751010  1.419203  7.673898  0.564016
  Thomas-Fermi vector in A             =   1.847892
 
 Write flags
   LWAVE        =      F    write WAVECAR
   LDOWNSAMPLE  =      F    k-point downsampling of WAVECAR
   LCHARG       =      F    write CHGCAR
   LVTOT        =      F    write LOCPOT, total local potential
   LVHAR        =      F    write LOCPOT, Hartree potential only
   LELF         =      F    write electronic localiz. function (ELF)
   LORBIT       =      0    0 simple, 1 ext, 2 COOP (PROOUT), +10 PAW based schemes


 Dipole corrections
   LMONO  =      F    monopole corrections only (constant potential shift)
   LDIPOL =      F    correct potential (dipole corrections)
   IDIPOL =      0    1-x, 2-y, 3-z, 4-all directions 
   EPSILON=  1.0000000 bulk dielectric constant

 Exchange correlation treatment:
   GGA     =    --    GGA type
   LEXCH   =     8    internal setting for exchange type
   VOSKOWN=      0    Vosko Wilk Nusair interpolation
   LHFCALC =     F    Hartree Fock is set to
   LHFONE  =     F    Hartree Fock one center treatment
   AEXX    =    0.0000 exact exchange contribution

 Linear response parameters
   LEPSILON=     F    determine dielectric tensor
   LRPA    =     F    only Hartree local field effects (RPA)
   LNABLA  =     F    use nabla operator in PAW spheres
   LVEL    =     F    velocity operator in full k-point grid
   LINTERFAST=   F  fast interpolation
   KINTER  =     0    interpolate to denser k-point grid
   CSHIFT  =0.1000    complex shift for real part using Kramers Kronig
   OMEGAMAX=  -1.0    maximum frequency
   DEG_THRESHOLD= 0.2000000E-02 threshold for treating states as degnerate
   RTIME   =   -0.100 relaxation time in fs
  (WPLASMAI=    0.000 imaginary part of plasma frequency in eV, 0.658/RTIME)
   DFIELD  = 0.0000000 0.0000000 0.0000000 field for delta impulse in time
 
 Orbital magnetization related:
   ORBITALMAG=     F  switch on orbital magnetization
   LCHIMAG   =     F  perturbation theory with respect to B field
   DQ        =  0.001000  dq finite difference perturbation B field
   LLRAUG    =     F  two centre corrections for induced B field



--------------------------------------------------------------------------------------------------------


 Static calculation
 charge density and potential will be updated during run
 non-spin polarized calculation
 Variant of blocked Davidson
 Davidson routine will perform the subspace rotation
 perform sub-space diagonalisation
    after iterative eigenvector-optimisation
 modified Broyden-mixing scheme, WC =      100.0
 initial mixing is a Kerker type mixing with AMIX =  0.4000 and BMIX =      1.0000
 Hartree-type preconditioning will be used
 using additional bands           21
 reciprocal scheme for non local part
 use partial core corrections
 calculate Harris-corrections to forces 
   (improved forces if not selfconsistent)
 use gradient corrections 
 use of overlap-Matrix (Vanderbilt PP)
 Gauss-broadening in eV      SIGMA  =   0.01


--------------------------------------------------------------------------------------------------------


  energy-cutoff  :      800.00
  volume of cell :     1678.04
      direct lattice vectors                 reciprocal lattice vectors
     9.846000000  0.000000000  0.000000000     0.101564087 -0.058675529  0.000000000
     4.923000000  8.521440000  0.000000000     0.000000000  0.117351058  0.000000000
     0.000000000  0.000000000 20.000000000     0.000000000  0.000000000  0.050000000

  length of vectors
     9.846000000  9.841283894 20.000000000     0.117294848  0.117351058  0.050000000


 
 k-points in units of 2pi/SCALE and weight: W-1, Se-2                               
   0.00000000  0.00000000  0.00000000       0.002
   0.00483639 -0.00279407  0.00000000       0.009
   0.00967277 -0.00558815  0.00000000       0.009
   0.01450916 -0.00838222  0.00000000       0.009
   0.01934554 -0.01117629  0.00000000       0.009
   0.02418193 -0.01397036  0.00000000       0.009
   0.02901831 -0.01676444  0.00000000       0.009
   0.03385470 -0.01955851  0.00000000       0.009
   0.03869108 -0.02235258  0.00000000       0.009
   0.04352747 -0.02514666  0.00000000       0.009
   0.04836385 -0.02794073  0.00000000       0.009
   0.00000000  0.00558815  0.00000000       0.005
   0.00967277  0.00000000  0.00000000       0.005
   0.01450916 -0.00279407  0.00000000       0.009
   0.01934554 -0.00558815  0.00000000       0.009
   0.02418193 -0.00838222  0.00000000       0.009
   0.02901831 -0.01117629  0.00000000       0.009
   0.03385470 -0.01397036  0.00000000       0.009
   0.03869108 -0.01676444  0.00000000       0.009
   0.04352747 -0.01955851  0.00000000       0.009
   0.04836385 -0.02235258  0.00000000       0.009
  -0.04836385  0.03352887  0.00000000       0.009
  -0.04352747  0.03073480  0.00000000       0.009
  -0.03869108  0.02794073  0.00000000       0.009
  -0.03385470  0.02514666  0.00000000       0.009
  -0.02901831  0.02235258  0.00000000       0.009
  -0.02418193  0.01955851  0.00000000       0.009
  -0.01934554  0.01676444  0.00000000       0.009
  -0.01450916  0.01397036  0.00000000       0.009
  -0.00967277  0.01117629  0.00000000       0.009
  -0.00483639  0.00838222  0.00000000       0.009
   0.00000000  0.01117629  0.00000000       0.005
   0.01934554 -0.00000000  0.00000000       0.005
   0.02418193 -0.00279407  0.00000000       0.009
   0.02901831 -0.00558815  0.00000000       0.009
   0.03385470 -0.00838222  0.00000000       0.009
   0.03869108 -0.01117629  0.00000000       0.009
   0.04352747 -0.01397036  0.00000000       0.009
   0.04836385 -0.01676444  0.00000000       0.009
  -0.04836385  0.03911702  0.00000000       0.009
  -0.04352747  0.03632295  0.00000000       0.009
  -0.03869108  0.03352887  0.00000000       0.009
  -0.03385470  0.03073480  0.00000000       0.009
  -0.02901831  0.02794073  0.00000000       0.009
  -0.02418193  0.02514666  0.00000000       0.009
  -0.01934554  0.02235258  0.00000000       0.009
  -0.01450916  0.01955851  0.00000000       0.009
  -0.00967277  0.01676444  0.00000000       0.009
  -0.00483639  0.01397036  0.00000000       0.009
   0.00000000  0.01676444  0.00000000       0.005
   0.02901831  0.00000000  0.00000000       0.005
   0.03385470 -0.00279407  0.00000000       0.009
   0.03869108 -0.00558815  0.00000000       0.009
   0.04352747 -0.00838222  0.00000000       0.009
   0.04836385 -0.01117629  0.00000000       0.009
  -0.04836385  0.04470516  0.00000000       0.009
  -0.04352747  0.04191109  0.00000000       0.009
  -0.03869108  0.03911702  0.00000000       0.009
  -0.03385470  0.03632295  0.00000000       0.009
  -0.02901831  0.03352887  0.00000000       0.009
  -0.02418193  0.03073480  0.00000000       0.009
  -0.01934554  0.02794073  0.00000000       0.009
  -0.01450916  0.02514666  0.00000000       0.009
  -0.00967277  0.02235258  0.00000000       0.009
  -0.00483639  0.01955851  0.00000000       0.009
   0.00000000  0.02235258  0.00000000       0.005
   0.03869108  0.00000000  0.00000000       0.005
   0.04352747 -0.00279407  0.00000000       0.009
   0.04836385 -0.00558815  0.00000000       0.009
  -0.04836385  0.05029331  0.00000000       0.009
  -0.04352747  0.04749924  0.00000000       0.009
  -0.03869108  0.04470516  0.00000000       0.009
  -0.03385470  0.04191109  0.00000000       0.009
  -0.02901831  0.03911702  0.00000000       0.009
  -0.02418193  0.03632295  0.00000000       0.009
  -0.01934554  0.03352887  0.00000000       0.009
  -0.01450916  0.03073480  0.00000000       0.009
  -0.00967277  0.02794073  0.00000000       0.009
  -0.00483639  0.02514666  0.00000000       0.009
   0.00000000  0.02794073  0.00000000       0.005
   0.04836385  0.00000000  0.00000000       0.005
  -0.04836385  0.05588146  0.00000000       0.009
  -0.04352747  0.05308738  0.00000000       0.009
  -0.03869108  0.05029331  0.00000000       0.009
  -0.03385470  0.04749924  0.00000000       0.009
  -0.02901831  0.04470516  0.00000000       0.009
  -0.02418193  0.04191109  0.00000000       0.009
  -0.01934554  0.03911702  0.00000000       0.009
  -0.01450916  0.03632295  0.00000000       0.009
  -0.00967277  0.03352887  0.00000000       0.009
  -0.00483639  0.03073480  0.00000000       0.009
   0.00000000  0.03352887  0.00000000       0.005
  -0.04352747  0.05867553  0.00000000       0.005
  -0.03869108  0.05588146  0.00000000       0.009
  -0.03385470  0.05308738  0.00000000       0.009
  -0.02901831  0.05029331  0.00000000       0.009
  -0.02418193  0.04749924  0.00000000       0.009
  -0.01934554  0.04470516  0.00000000       0.009
  -0.01450916  0.04191109  0.00000000       0.009
  -0.00967277  0.03911702  0.00000000       0.009
  -0.00483639  0.03632295  0.00000000       0.009
   0.00000000  0.03911702  0.00000000       0.005
  -0.03385470  0.05867553  0.00000000       0.005
  -0.02901831  0.05588146  0.00000000       0.009
  -0.02418193  0.05308738  0.00000000       0.009
  -0.01934554  0.05029331  0.00000000       0.009
  -0.01450916  0.04749924  0.00000000       0.009
  -0.00967277  0.04470516  0.00000000       0.009
  -0.00483639  0.04191109  0.00000000       0.009
   0.00000000  0.04470516  0.00000000       0.005
  -0.02418193  0.05867553  0.00000000       0.005
  -0.01934554  0.05588146  0.00000000       0.009
  -0.01450916  0.05308738  0.00000000       0.009
  -0.00967277  0.05029331  0.00000000       0.009
  -0.00483639  0.04749924  0.00000000       0.009
   0.00000000  0.05029331  0.00000000       0.005
  -0.01450916  0.05867553  0.00000000       0.005
  -0.00967277  0.05588146  0.00000000       0.009
  -0.00483639  0.05308738  0.00000000       0.009
   0.00000000  0.05588146  0.00000000       0.005
  -0.00483639  0.05867553  0.00000000       0.005
 
 k-points in reciprocal lattice and weights: W-1, Se-2                               
   0.00000000  0.00000000  0.00000000       0.002
   0.04761905  0.00000000  0.00000000       0.009
   0.09523810  0.00000000  0.00000000       0.009
   0.14285714  0.00000000  0.00000000       0.009
   0.19047619  0.00000000  0.00000000       0.009
   0.23809524  0.00000000  0.00000000       0.009
   0.28571429  0.00000000  0.00000000       0.009
   0.33333333  0.00000000  0.00000000       0.009
   0.38095238  0.00000000  0.00000000       0.009
   0.42857143  0.00000000  0.00000000       0.009
   0.47619048  0.00000000  0.00000000       0.009
   0.00000000  0.04761905  0.00000000       0.005
   0.09523810  0.04761905  0.00000000       0.005
   0.14285714  0.04761905  0.00000000       0.009
   0.19047619  0.04761905  0.00000000       0.009
   0.23809524  0.04761905  0.00000000       0.009
   0.28571429  0.04761905  0.00000000       0.009
   0.33333333  0.04761905  0.00000000       0.009
   0.38095238  0.04761905  0.00000000       0.009
   0.42857143  0.04761905  0.00000000       0.009
   0.47619048  0.04761905  0.00000000       0.009
  -0.47619048  0.04761905  0.00000000       0.009
  -0.42857143  0.04761905  0.00000000       0.009
  -0.38095238  0.04761905  0.00000000       0.009
  -0.33333333  0.04761905  0.00000000       0.009
  -0.28571429  0.04761905  0.00000000       0.009
  -0.23809524  0.04761905  0.00000000       0.009
  -0.19047619  0.04761905  0.00000000       0.009
  -0.14285714  0.04761905  0.00000000       0.009
  -0.09523810  0.04761905  0.00000000       0.009
  -0.04761905  0.04761905  0.00000000       0.009
   0.00000000  0.09523810  0.00000000       0.005
   0.19047619  0.09523810  0.00000000       0.005
   0.23809524  0.09523810  0.00000000       0.009
   0.28571429  0.09523810  0.00000000       0.009
   0.33333333  0.09523810  0.00000000       0.009
   0.38095238  0.09523810  0.00000000       0.009
   0.42857143  0.09523810  0.00000000       0.009
   0.47619048  0.09523810  0.00000000       0.009
  -0.47619048  0.09523810  0.00000000       0.009
  -0.42857143  0.09523810  0.00000000       0.009
  -0.38095238  0.09523810  0.00000000       0.009
  -0.33333333  0.09523810  0.00000000       0.009
  -0.28571429  0.09523810  0.00000000       0.009
  -0.23809524  0.09523810  0.00000000       0.009
  -0.19047619  0.09523810  0.00000000       0.009
  -0.14285714  0.09523810  0.00000000       0.009
  -0.09523810  0.09523810  0.00000000       0.009
  -0.04761905  0.09523810  0.00000000       0.009
   0.00000000  0.14285714  0.00000000       0.005
   0.28571429  0.14285714  0.00000000       0.005
   0.33333333  0.14285714  0.00000000       0.009
   0.38095238  0.14285714  0.00000000       0.009
   0.42857143  0.14285714  0.00000000       0.009
   0.47619048  0.14285714  0.00000000       0.009
  -0.47619048  0.14285714  0.00000000       0.009
  -0.42857143  0.14285714  0.00000000       0.009
  -0.38095238  0.14285714  0.00000000       0.009
  -0.33333333  0.14285714  0.00000000       0.009
  -0.28571429  0.14285714  0.00000000       0.009
  -0.23809524  0.14285714  0.00000000       0.009
  -0.19047619  0.14285714  0.00000000       0.009
  -0.14285714  0.14285714  0.00000000       0.009
  -0.09523810  0.14285714  0.00000000       0.009
  -0.04761905  0.14285714  0.00000000       0.009
   0.00000000  0.19047619  0.00000000       0.005
   0.38095238  0.19047619  0.00000000       0.005
   0.42857143  0.19047619  0.00000000       0.009
   0.47619048  0.19047619  0.00000000       0.009
  -0.47619048  0.19047619  0.00000000       0.009
  -0.42857143  0.19047619  0.00000000       0.009
  -0.38095238  0.19047619  0.00000000       0.009
  -0.33333333  0.19047619  0.00000000       0.009
  -0.28571429  0.19047619  0.00000000       0.009
  -0.23809524  0.19047619  0.00000000       0.009
  -0.19047619  0.19047619  0.00000000       0.009
  -0.14285714  0.19047619  0.00000000       0.009
  -0.09523810  0.19047619  0.00000000       0.009
  -0.04761905  0.19047619  0.00000000       0.009
   0.00000000  0.23809524  0.00000000       0.005
   0.47619048  0.23809524  0.00000000       0.005
  -0.47619048  0.23809524  0.00000000       0.009
  -0.42857143  0.23809524  0.00000000       0.009
  -0.38095238  0.23809524  0.00000000       0.009
  -0.33333333  0.23809524  0.00000000       0.009
  -0.28571429  0.23809524  0.00000000       0.009
  -0.23809524  0.23809524  0.00000000       0.009
  -0.19047619  0.23809524  0.00000000       0.009
  -0.14285714  0.23809524  0.00000000       0.009
  -0.09523810  0.23809524  0.00000000       0.009
  -0.04761905  0.23809524  0.00000000       0.009
   0.00000000  0.28571429  0.00000000       0.005
  -0.42857143  0.28571429  0.00000000       0.005
  -0.38095238  0.28571429  0.00000000       0.009
  -0.33333333  0.28571429  0.00000000       0.009
  -0.28571429  0.28571429  0.00000000       0.009
  -0.23809524  0.28571429  0.00000000       0.009
  -0.19047619  0.28571429  0.00000000       0.009
  -0.14285714  0.28571429  0.00000000       0.009
  -0.09523810  0.28571429  0.00000000       0.009
  -0.04761905  0.28571429  0.00000000       0.009
   0.00000000  0.33333333  0.00000000       0.005
  -0.33333333  0.33333333  0.00000000       0.005
  -0.28571429  0.33333333  0.00000000       0.009
  -0.23809524  0.33333333  0.00000000       0.009
  -0.19047619  0.33333333  0.00000000       0.009
  -0.14285714  0.33333333  0.00000000       0.009
  -0.09523810  0.33333333  0.00000000       0.009
  -0.04761905  0.33333333  0.00000000       0.009
   0.00000000  0.38095238  0.00000000       0.005
  -0.23809524  0.38095238  0.00000000       0.005
  -0.19047619  0.38095238  0.00000000       0.009
  -0.14285714  0.38095238  0.00000000       0.009
  -0.09523810  0.38095238  0.00000000       0.009
  -0.04761905  0.38095238  0.00000000       0.009
   0.00000000  0.42857143  0.00000000       0.005
  -0.14285714  0.42857143  0.00000000       0.005
  -0.09523810  0.42857143  0.00000000       0.009
  -0.04761905  0.42857143  0.00000000       0.009
   0.00000000  0.47619048  0.00000000       0.005
  -0.04761905  0.47619048  0.00000000       0.005
 
 position of ions in fractional coordinates (direct lattice) 
   0.33330000  0.00006700  0.00000000
   0.66663300  0.00006700  0.00000000
   0.99996700  0.00006700  0.00000000
   0.33330000  0.33340000  0.00000000
   0.66663300  0.33340000  0.00000000
   0.99996700  0.33340000  0.00000000
   0.33330000  0.66673300  0.00000000
   0.66663300  0.66673300  0.00000000
   0.99996700  0.66673300  0.00000000
   0.11109200  0.11114900  0.91495900
   0.44442600  0.11114900  0.91545900
   0.77775900  0.11114900  0.91545900
   0.11109200  0.44448200  0.91545900
   0.44442600  0.44448200  0.91545900
   0.77775900  0.44448200  0.91545900
   0.11109200  0.77781500  0.91545900
   0.44442600  0.77781500  0.91545900
   0.77775900  0.77781500  0.91545900
   0.11109200  0.11114900  0.08454100
   0.44442600  0.11114900  0.08454100
   0.77775900  0.11114900  0.08454100
   0.11109200  0.44448200  0.08454100
   0.44442600  0.44448200  0.08454100
   0.77775900  0.44448200  0.08454100
   0.11109200  0.77781500  0.08454100
   0.44442600  0.77781500  0.08454100
   0.77775900  0.77781500  0.08454100
 
 position of ions in cartesian coordinates  (Angst):
   3.28200164  0.00057094  0.00000000
   6.56399836  0.00057094  0.00000000
   9.84600492  0.00057094  0.00000000
   4.92300000  2.84104810  0.00000000
   8.20499672  2.84104810  0.00000000
  11.48700328  2.84104810  0.00000000
   6.56399836  5.68152526  0.00000000
   9.84599508  5.68152526  0.00000000
  13.12800164  5.68152526  0.00000000
   1.64099836  0.94714953 18.29918000
   4.92300492  0.94714953 18.30918000
   8.20500164  0.94714953 18.30918000
   3.28199672  3.78762669 18.30918000
   6.56400328  3.78762669 18.30918000
   9.84600000  3.78762669 18.30918000
   4.92299508  6.62810385 18.30918000
   8.20500164  6.62810385 18.30918000
  11.48699836  6.62810385 18.30918000
   1.64099836  0.94714953  1.69082000
   4.92300492  0.94714953  1.69082000
   8.20500164  0.94714953  1.69082000
   3.28199672  3.78762669  1.69082000
   6.56400328  3.78762669  1.69082000
   9.84600000  3.78762669  1.69082000
   4.92299508  6.62810385  1.69082000
   8.20500164  6.62810385  1.69082000
  11.48699836  6.62810385  1.69082000
 


--------------------------------------------------------------------------------------------------------


 k-point  1 :   0.0000 0.0000 0.0000  plane waves:   86201
 k-point  2 :   0.0476 0.0000 0.0000  plane waves:   86227
 k-point  3 :   0.0952 0.0000 0.0000  plane waves:   86283
 k-point  4 :   0.1429 0.0000 0.0000  plane waves:   86284
 k-point  5 :   0.1905 0.0000 0.0000  plane waves:   86267
 k-point  6 :   0.2381 0.0000 0.0000  plane waves:   86227
 k-point  7 :   0.2857 0.0000 0.0000  plane waves:   86214
 k-point  8 :   0.3333 0.0000 0.0000  plane waves:   86217
 k-point  9 :   0.3810 0.0000 0.0000  plane waves:   86191
 k-point 10 :   0.4286 0.0000 0.0000  plane waves:   86216
 k-point 11 :   0.4762 0.0000 0.0000  plane waves:   86214
 k-point 12 :   0.0000 0.0476 0.0000  plane waves:   86227
 k-point 13 :   0.0952 0.0476 0.0000  plane waves:   86245
 k-point 14 :   0.1429 0.0476 0.0000  plane waves:   86285
 k-point 15 :   0.1905 0.0476 0.0000  plane waves:   86262
 k-point 16 :   0.2381 0.0476 0.0000  plane waves:   86205
 k-point 17 :   0.2857 0.0476 0.0000  plane waves:   86209
 k-point 18 :   0.3333 0.0476 0.0000  plane waves:   86197
 k-point 19 :   0.3810 0.0476 0.0000  plane waves:   86210
 k-point 20 :   0.4286 0.0476 0.0000  plane waves:   86200
 k-point 21 :   0.4762 0.0476 0.0000  plane waves:   86221
 k-point 22 :  -0.4762 0.0476 0.0000  plane waves:   86256
 k-point 23 :  -0.4286 0.0476 0.0000  plane waves:   86219
 k-point 24 :  -0.3810 0.0476 0.0000  plane waves:   86210
 k-point 25 :  -0.3333 0.0476 0.0000  plane waves:   86211
 k-point 26 :  -0.2857 0.0476 0.0000  plane waves:   86192
 k-point 27 :  -0.2381 0.0476 0.0000  plane waves:   86203
 k-point 28 :  -0.1905 0.0476 0.0000  plane waves:   86216
 k-point 29 :  -0.1429 0.0476 0.0000  plane waves:   86252
 k-point 30 :  -0.0952 0.0476 0.0000  plane waves:   86289
 k-point 31 :  -0.0476 0.0476 0.0000  plane waves:   86246
 k-point 32 :   0.0000 0.0952 0.0000  plane waves:   86271
 k-point 33 :   0.1905 0.0952 0.0000  plane waves:   86243
 k-point 34 :   0.2381 0.0952 0.0000  plane waves:   86249
 k-point 35 :   0.2857 0.0952 0.0000  plane waves:   86208
 k-point 36 :   0.3333 0.0952 0.0000  plane waves:   86173
 k-point 37 :   0.3810 0.0952 0.0000  plane waves:   86209
 k-point 38 :   0.4286 0.0952 0.0000  plane waves:   86200
 k-point 39 :   0.4762 0.0952 0.0000  plane waves:   86182
 k-point 40 :  -0.4762 0.0952 0.0000  plane waves:   86212
 k-point 41 :  -0.4286 0.0952 0.0000  plane waves:   86220
 k-point 42 :  -0.3810 0.0952 0.0000  plane waves:   86202
 k-point 43 :  -0.3333 0.0952 0.0000  plane waves:   86186
 k-point 44 :  -0.2857 0.0952 0.0000  plane waves:   86204
 k-point 45 :  -0.2381 0.0952 0.0000  plane waves:   86167
 k-point 46 :  -0.1905 0.0952 0.0000  plane waves:   86195
 k-point 47 :  -0.1429 0.0952 0.0000  plane waves:   86247
 k-point 48 :  -0.0952 0.0952 0.0000  plane waves:   86256
 k-point 49 :  -0.0476 0.0952 0.0000  plane waves:   86287
 k-point 50 :   0.0000 0.1429 0.0000  plane waves:   86267
 k-point 51 :   0.2857 0.1429 0.0000  plane waves:   86183
 k-point 52 :   0.3333 0.1429 0.0000  plane waves:   86209
 k-point 53 :   0.3810 0.1429 0.0000  plane waves:   86191
 k-point 54 :   0.4286 0.1429 0.0000  plane waves:   86194
 k-point 55 :   0.4762 0.1429 0.0000  plane waves:   86180
 k-point 56 :  -0.4762 0.1429 0.0000  plane waves:   86195
 k-point 57 :  -0.4286 0.1429 0.0000  plane waves:   86219
 k-point 58 :  -0.3810 0.1429 0.0000  plane waves:   86209
 k-point 59 :  -0.3333 0.1429 0.0000  plane waves:   86193
 k-point 60 :  -0.2857 0.1429 0.0000  plane waves:   86196
 k-point 61 :  -0.2381 0.1429 0.0000  plane waves:   86206
 k-point 62 :  -0.1905 0.1429 0.0000  plane waves:   86210
 k-point 63 :  -0.1429 0.1429 0.0000  plane waves:   86185
 k-point 64 :  -0.0952 0.1429 0.0000  plane waves:   86245
 k-point 65 :  -0.0476 0.1429 0.0000  plane waves:   86252
 k-point 66 :   0.0000 0.1905 0.0000  plane waves:   86253
 k-point 67 :   0.3810 0.1905 0.0000  plane waves:   86215
 k-point 68 :   0.4286 0.1905 0.0000  plane waves:   86180
 k-point 69 :   0.4762 0.1905 0.0000  plane waves:   86161
 k-point 70 :  -0.4762 0.1905 0.0000  plane waves:   86224
 k-point 71 :  -0.4286 0.1905 0.0000  plane waves:   86217
 k-point 72 :  -0.3810 0.1905 0.0000  plane waves:   86212
 k-point 73 :  -0.3333 0.1905 0.0000  plane waves:   86211
 k-point 74 :  -0.2857 0.1905 0.0000  plane waves:   86174
 k-point 75 :  -0.2381 0.1905 0.0000  plane waves:   86186
 k-point 76 :  -0.1905 0.1905 0.0000  plane waves:   86217
 k-point 77 :  -0.1429 0.1905 0.0000  plane waves:   86220
 k-point 78 :  -0.0952 0.1905 0.0000  plane waves:   86181
 k-point 79 :  -0.0476 0.1905 0.0000  plane waves:   86213
 k-point 80 :   0.0000 0.2381 0.0000  plane waves:   86227
 k-point 81 :   0.4762 0.2381 0.0000  plane waves:   86171
 k-point 82 :  -0.4762 0.2381 0.0000  plane waves:   86222
 k-point 83 :  -0.4286 0.2381 0.0000  plane waves:   86226
 k-point 84 :  -0.3810 0.2381 0.0000  plane waves:   86244
 k-point 85 :  -0.3333 0.2381 0.0000  plane waves:   86242
 k-point 86 :  -0.2857 0.2381 0.0000  plane waves:   86228
 k-point 87 :  -0.2381 0.2381 0.0000  plane waves:   86179
 k-point 88 :  -0.1905 0.2381 0.0000  plane waves:   86183
 k-point 89 :  -0.1429 0.2381 0.0000  plane waves:   86218
 k-point 90 :  -0.0952 0.2381 0.0000  plane waves:   86171
 k-point 91 :  -0.0476 0.2381 0.0000  plane waves:   86219
 k-point 92 :   0.0000 0.2857 0.0000  plane waves:   86219
 k-point 93 :  -0.4286 0.2857 0.0000  plane waves:   86239
 k-point 94 :  -0.3810 0.2857 0.0000  plane waves:   86218
 k-point 95 :  -0.3333 0.2857 0.0000  plane waves:   86226
 k-point 96 :  -0.2857 0.2857 0.0000  plane waves:   86243
 k-point 97 :  -0.2381 0.2857 0.0000  plane waves:   86236
 k-point 98 :  -0.1905 0.2857 0.0000  plane waves:   86165
 k-point 99 :  -0.1429 0.2857 0.0000  plane waves:   86197
 k-point ** :  -0.0952 0.2857 0.0000  plane waves:   86206
 k-point ** :  -0.0476 0.2857 0.0000  plane waves:   86201
 k-point ** :   0.0000 0.3333 0.0000  plane waves:   86205
 k-point ** :  -0.3333 0.3333 0.0000  plane waves:   86171
 k-point ** :  -0.2857 0.3333 0.0000  plane waves:   86218
 k-point ** :  -0.2381 0.3333 0.0000  plane waves:   86230
 k-point ** :  -0.1905 0.3333 0.0000  plane waves:   86230
 k-point ** :  -0.1429 0.3333 0.0000  plane waves:   86183
 k-point ** :  -0.0952 0.3333 0.0000  plane waves:   86197
 k-point ** :  -0.0476 0.3333 0.0000  plane waves:   86214
 k-point ** :   0.0000 0.3810 0.0000  plane waves:   86184
 k-point ** :  -0.2381 0.3810 0.0000  plane waves:   86228
 k-point ** :  -0.1905 0.3810 0.0000  plane waves:   86204
 k-point ** :  -0.1429 0.3810 0.0000  plane waves:   86197
 k-point ** :  -0.0952 0.3810 0.0000  plane waves:   86177
 k-point ** :  -0.0476 0.3810 0.0000  plane waves:   86198
 k-point ** :   0.0000 0.4286 0.0000  plane waves:   86208
 k-point ** :  -0.1429 0.4286 0.0000  plane waves:   86202
 k-point ** :  -0.0952 0.4286 0.0000  plane waves:   86219
 k-point ** :  -0.0476 0.4286 0.0000  plane waves:   86209
 k-point ** :   0.0000 0.4762 0.0000  plane waves:   86210
 k-point ** :  -0.0476 0.4762 0.0000  plane waves:   86236

 maximum and minimum number of plane-waves per node :     14415    14316

 maximum number of plane-waves:     86289
 maximum index in each direction: 
   IXMAX=   23   IYMAX=   22   IZMAX=   46
   IXMIN=  -23   IYMIN=  -23   IZMIN=  -46


 parallel 3D FFT for wavefunctions:
    minimum data exchange during FFTs selected (reduces bandwidth)
 parallel 3D FFT for charge:
    minimum data exchange during FFTs selected (reduces bandwidth)


 total amount of memory used by VASP MPI-rank0  1117972. kBytes
=======================================================================

   base      :      30000. kBytes
   nonl-proj :     507396. kBytes
   fftplans  :      67907. kBytes
   grid      :      36685. kBytes
   one-center:         77. kBytes
   wavefun   :     475907. kBytes
 
     INWAV:  cpu time    0.0001: real time    0.0024
 Broyden mixing: mesh for mixing (old mesh)
   NGX = 45   NGY = 45   NGZ = 93
  (NGX  =192   NGY  =192   NGZ  =384)
  gives a total of 188325 points

 initial charge density was supplied:
 charge density of overlapping atoms calculated
 number of electron     162.0000000 magnetization 
 keeping initial charge density in first step


--------------------------------------------------------------------------------------------------------


 Maximum index for augmentation-charges        15381 (set IRDMAX)


--------------------------------------------------------------------------------------------------------


 First call to EWALD:  gamma=   0.149
 Maximum number of real-space cells 4x 4x 2
 Maximum number of reciprocal cells 2x 2x 4

    FEWALD:  cpu time    0.0012: real time    0.0012


--------------------------------------- Iteration      1(   1)  ---------------------------------------


    POTLOK:  cpu time    0.2216: real time    0.2423
    SETDIJ:  cpu time    0.1976: real time    0.1980
     EDDAV:  cpu time  143.3282: real time  143.6767
       DOS:  cpu time    0.0043: real time    0.0043
    --------------------------------------------
      LOOP:  cpu time  143.7517: real time  144.1214

 eigenvalue-minimisations  : 24684
 total energy-change (2. order) : 0.1414555E+04  (-0.6845426E+04)
 number of electron     162.0000000 magnetization 
 augmentation part      162.0000000 magnetization 

 Free energy of the ion-electron system (eV)
  ---------------------------------------------------
  alpha Z        PSCENC =       206.49012646
  Ewald energy   TEWEN  =     19419.40912006
  -Hartree energ DENC   =    -25369.88581050
  -exchange      EXHF   =         0.00000000
  -V(xc)+E(xc)   XCENC  =      -439.18569508
  PAW double counting   =      3546.74135395    -2766.52518036
  entropy T*S    EENTRO =        -0.00053098
  eigenvalues    EBANDS =       350.66911094
  atomic energy  EATOM  =      6466.84281893
  Solvation  Ediel_sol  =         0.00000000
  ---------------------------------------------------
  free energy    TOTEN  =      1414.55531342 eV

  energy without entropy =     1414.55584440  energy(sigma->0) =     1414.55557891


--------------------------------------------------------------------------------------------------------




--------------------------------------- Iteration      1(   2)  ---------------------------------------


     EDDAV:  cpu time  210.3503: real time  210.8888
       DOS:  cpu time    0.0019: real time    0.0019
    --------------------------------------------
      LOOP:  cpu time  210.3521: real time  210.8907

 eigenvalue-minimisations  : 40764
 total energy-change (2. order) :-0.1394812E+04  (-0.1348121E+04)
 number of electron     162.0000000 magnetization 
 augmentation part      162.0000000 magnetization 

 Free energy of the ion-electron system (eV)
  ---------------------------------------------------
  alpha Z        PSCENC =       206.49012646
  Ewald energy   TEWEN  =     19419.40912006
  -Hartree energ DENC   =    -25369.88581050
  -exchange      EXHF   =         0.00000000
  -V(xc)+E(xc)   XCENC  =      -439.18569508
  PAW double counting   =      3546.74135395    -2766.52518036
  entropy T*S    EENTRO =        -0.00000000
  eigenvalues    EBANDS =     -1044.14347633
  atomic energy  EATOM  =      6466.84281893
  Solvation  Ediel_sol  =         0.00000000
  ---------------------------------------------------
  free energy    TOTEN  =        19.74325714 eV

  energy without entropy =       19.74325714  energy(sigma->0) =       19.74325714


--------------------------------------------------------------------------------------------------------




--------------------------------------- Iteration      1(   3)  ---------------------------------------


     EDDAV:  cpu time  162.4879: real time  162.9055
       DOS:  cpu time    0.0018: real time    0.0018
    --------------------------------------------
      LOOP:  cpu time  162.4897: real time  162.9073

 eigenvalue-minimisations  : 29232
 total energy-change (2. order) :-0.2147713E+03  (-0.2131221E+03)
 number of electron     162.0000000 magnetization 
 augmentation part      162.0000000 magnetization 

 Free energy of the ion-electron system (eV)
  ---------------------------------------------------
  alpha Z        PSCENC =       206.49012646
  Ewald energy   TEWEN  =     19419.40912006
  -Hartree energ DENC   =    -25369.88581050
  -exchange      EXHF   =         0.00000000
  -V(xc)+E(xc)   XCENC  =      -439.18569508
  PAW double counting   =      3546.74135395    -2766.52518036
  entropy T*S    EENTRO =        -0.00000000
  eigenvalues    EBANDS =     -1258.91479169
  atomic energy  EATOM  =      6466.84281893
  Solvation  Ediel_sol  =         0.00000000
  ---------------------------------------------------
  free energy    TOTEN  =      -195.02805822 eV

  energy without entropy =     -195.02805822  energy(sigma->0) =     -195.02805822


--------------------------------------------------------------------------------------------------------




--------------------------------------- Iteration      1(   4)  ---------------------------------------


     EDDAV:  cpu time  177.8189: real time  178.2733
       DOS:  cpu time    0.0022: real time    0.0022
    --------------------------------------------
      LOOP:  cpu time  177.8211: real time  178.2755

 eigenvalue-minimisations  : 32940
 total energy-change (2. order) :-0.8842037E+01  (-0.8790889E+01)
 number of electron     162.0000000 magnetization 
 augmentation part      162.0000000 magnetization 

 Free energy of the ion-electron system (eV)
  ---------------------------------------------------
  alpha Z        PSCENC =       206.49012646
  Ewald energy   TEWEN  =     19419.40912006
  -Hartree energ DENC   =    -25369.88581050
  -exchange      EXHF   =         0.00000000
  -V(xc)+E(xc)   XCENC  =      -439.18569508
  PAW double counting   =      3546.74135395    -2766.52518036
  entropy T*S    EENTRO =        -0.00000000
  eigenvalues    EBANDS =     -1267.75682869
  atomic energy  EATOM  =      6466.84281893
  Solvation  Ediel_sol  =         0.00000000
  ---------------------------------------------------
  free energy    TOTEN  =      -203.87009523 eV

  energy without entropy =     -203.87009523  energy(sigma->0) =     -203.87009523


--------------------------------------------------------------------------------------------------------




--------------------------------------- Iteration      1(   5)  ---------------------------------------


     EDDAV:  cpu time  198.3099: real time  198.8137
       DOS:  cpu time    0.0017: real time    0.0017
    CHARGE:  cpu time    7.9689: real time    7.9884
    MIXING:  cpu time    0.0212: real time    0.0213
    --------------------------------------------
      LOOP:  cpu time  206.3016: real time  206.8251

 eigenvalue-minimisations  : 37944
 total energy-change (2. order) :-0.3039070E+00  (-0.3034006E+00)
 number of electron     161.9999999 magnetization 
 augmentation part      -16.0954611 magnetization 

 Broyden mixing:
  rms(total) = 0.16092E+01    rms(broyden)= 0.16092E+01
  rms(prec ) = 0.18343E+01
  weight for this iteration     100.00

 Free energy of the ion-electron system (eV)
  ---------------------------------------------------
  alpha Z        PSCENC =       206.49012646
  Ewald energy   TEWEN  =     19419.40912006
  -Hartree energ DENC   =    -25369.88581050
  -exchange      EXHF   =         0.00000000
  -V(xc)+E(xc)   XCENC  =      -439.18569508
  PAW double counting   =      3546.74135395    -2766.52518036
  entropy T*S    EENTRO =        -0.00000000
  eigenvalues    EBANDS =     -1268.06073573
  atomic energy  EATOM  =      6466.84281893
  Solvation  Ediel_sol  =         0.00000000
  ---------------------------------------------------
  free energy    TOTEN  =      -204.17400227 eV

  energy without entropy =     -204.17400227  energy(sigma->0) =     -204.17400227


--------------------------------------------------------------------------------------------------------




--------------------------------------- Iteration      1(   6)  ---------------------------------------


    POTLOK:  cpu time    0.1984: real time    0.2204
    SETDIJ:  cpu time    0.1867: real time    0.1872
     EDDAV:  cpu time  190.6556: real time  191.1217
       DOS:  cpu time    0.0017: real time    0.0017
    CHARGE:  cpu time    7.9667: real time    7.9862
    MIXING:  cpu time    0.0233: real time    0.0234
    --------------------------------------------
      LOOP:  cpu time  199.0325: real time  199.5406

 eigenvalue-minimisations  : 35904
 total energy-change (2. order) : 0.7348173E+01  (-0.4146579E+01)
 number of electron     161.9999999 magnetization 
 augmentation part      -13.3269069 magnetization 

 Broyden mixing:
  rms(total) = 0.60627E+00    rms(broyden)= 0.60627E+00
  rms(prec ) = 0.77276E+00
  weight for this iteration     100.00

 eigenvalues of (default mixing * dielectric matrix)
  average eigenvalue GAMMA=   1.0118
  1.0118

 Free energy of the ion-electron system (eV)
  ---------------------------------------------------
  alpha Z        PSCENC =       206.49012646
  Ewald energy   TEWEN  =     19419.40912006
  -Hartree energ DENC   =    -25364.47214453
  -exchange      EXHF   =         0.00000000
  -V(xc)+E(xc)   XCENC  =      -433.59806596
  PAW double counting   =      3747.72020535    -2975.02404394
  entropy T*S    EENTRO =        -0.00000000
  eigenvalues    EBANDS =     -1264.19384577
  atomic energy  EATOM  =      6466.84281893
  Solvation  Ediel_sol  =         0.00000000
  ---------------------------------------------------
  free energy    TOTEN  =      -196.82582939 eV

  energy without entropy =     -196.82582939  energy(sigma->0) =     -196.82582939


--------------------------------------------------------------------------------------------------------




--------------------------------------- Iteration      1(   7)  ---------------------------------------


    POTLOK:  cpu time    0.1995: real time    0.2217
    SETDIJ:  cpu time    0.1826: real time    0.1831
     EDDAV:  cpu time  185.0168: real time  185.4689
       DOS:  cpu time    0.0017: real time    0.0017
    CHARGE:  cpu time    7.9523: real time    7.9713
    MIXING:  cpu time    0.0245: real time    0.0246
    --------------------------------------------
      LOOP:  cpu time  193.3774: real time  193.8713

 eigenvalue-minimisations  : 34464
 total energy-change (2. order) : 0.1603708E+01  (-0.8280554E+00)
 number of electron     161.9999999 magnetization 
 augmentation part      -13.9977402 magnetization 

 Broyden mixing:
  rms(total) = 0.38310E+00    rms(broyden)= 0.38310E+00
  rms(prec ) = 0.42431E+00
  weight for this iteration     100.00

 eigenvalues of (default mixing * dielectric matrix)
  average eigenvalue GAMMA=   1.4535
  0.7370  2.1700

 Free energy of the ion-electron system (eV)
  ---------------------------------------------------
  alpha Z        PSCENC =       206.49012646
  Ewald energy   TEWEN  =     19419.40912006
  -Hartree energ DENC   =    -25389.96649526
  -exchange      EXHF   =         0.00000000
  -V(xc)+E(xc)   XCENC  =      -433.24654151
  PAW double counting   =      3914.84678998    -3144.42441205
  entropy T*S    EENTRO =        -0.00000000
  eigenvalues    EBANDS =     -1235.17352839
  atomic energy  EATOM  =      6466.84281893
  Solvation  Ediel_sol  =         0.00000000
  ---------------------------------------------------
  free energy    TOTEN  =      -195.22212178 eV

  energy without entropy =     -195.22212178  energy(sigma->0) =     -195.22212178


--------------------------------------------------------------------------------------------------------




--------------------------------------- Iteration      1(   8)  ---------------------------------------


    POTLOK:  cpu time    0.2004: real time    0.2230
    SETDIJ:  cpu time    0.1863: real time    0.1867
     EDDAV:  cpu time  164.2379: real time  164.6400
       DOS:  cpu time    0.0023: real time    0.0023
    CHARGE:  cpu time    7.9460: real time    7.9651
    MIXING:  cpu time    0.0293: real time    0.0293
    --------------------------------------------
      LOOP:  cpu time  172.6023: real time  173.0465

 eigenvalue-minimisations  : 29460
 total energy-change (2. order) : 0.4753880E+00  (-0.1571521E+00)
 number of electron     161.9999999 magnetization 
 augmentation part      -13.8825617 magnetization 

 Broyden mixing:
  rms(total) = 0.79902E-01    rms(broyden)= 0.79902E-01
  rms(prec ) = 0.10008E+00
  weight for this iteration     100.00

 eigenvalues of (default mixing * dielectric matrix)
  average eigenvalue GAMMA=   1.4282
  2.2024  1.3234  0.7587

 Free energy of the ion-electron system (eV)
  ---------------------------------------------------
  alpha Z        PSCENC =       206.49012646
  Ewald energy   TEWEN  =     19419.40912006
  -Hartree energ DENC   =    -25410.38650851
  -exchange      EXHF   =         0.00000000
  -V(xc)+E(xc)   XCENC  =      -430.66590649
  PAW double counting   =      4144.53300247    -3378.10990562
  entropy T*S    EENTRO =        -0.00000000
  eigenvalues    EBANDS =     -1212.85948107
  atomic energy  EATOM  =      6466.84281893
  Solvation  Ediel_sol  =         0.00000000
  ---------------------------------------------------
  free energy    TOTEN  =      -194.74673376 eV

  energy without entropy =     -194.74673376  energy(sigma->0) =     -194.74673376


--------------------------------------------------------------------------------------------------------




--------------------------------------- Iteration      1(   9)  ---------------------------------------


    POTLOK:  cpu time    0.2000: real time    0.2223
    SETDIJ:  cpu time    0.1861: real time    0.1865
     EDDAV:  cpu time  191.7191: real time  192.1878
       DOS:  cpu time    0.0018: real time    0.0018
    CHARGE:  cpu time    7.9405: real time    7.9599
    MIXING:  cpu time    0.0246: real time    0.0247
    --------------------------------------------
      LOOP:  cpu time  200.0720: real time  200.5830

 eigenvalue-minimisations  : 36072
 total energy-change (2. order) : 0.1591625E-01  (-0.2619711E-01)
 number of electron     161.9999999 magnetization 
 augmentation part      -13.7471055 magnetization 

 Broyden mixing:
  rms(total) = 0.48070E-01    rms(broyden)= 0.48070E-01
  rms(prec ) = 0.74737E-01
  weight for this iteration     100.00

 eigenvalues of (default mixing * dielectric matrix)
  average eigenvalue GAMMA=   1.5421
  2.6105  0.8253  0.9136  1.8189

 Free energy of the ion-electron system (eV)
  ---------------------------------------------------
  alpha Z        PSCENC =       206.49012646
  Ewald energy   TEWEN  =     19419.40912006
  -Hartree energ DENC   =    -25417.38995582
  -exchange      EXHF   =         0.00000000
  -V(xc)+E(xc)   XCENC  =      -430.12177216
  PAW double counting   =      4179.43153049    -3413.42089633
  entropy T*S    EENTRO =        -0.00000000
  eigenvalues    EBANDS =     -1205.97178915
  atomic energy  EATOM  =      6466.84281893
  Solvation  Ediel_sol  =         0.00000000
  ---------------------------------------------------
  free energy    TOTEN  =      -194.73081752 eV

  energy without entropy =     -194.73081752  energy(sigma->0) =     -194.73081752


--------------------------------------------------------------------------------------------------------




--------------------------------------- Iteration      1(  10)  ---------------------------------------


    POTLOK:  cpu time    0.2008: real time    0.2235
    SETDIJ:  cpu time    0.1915: real time    0.1919
     EDDAV:  cpu time  187.9389: real time  188.3988
       DOS:  cpu time    0.0022: real time    0.0022
    CHARGE:  cpu time    7.9826: real time    8.0017
    MIXING:  cpu time    0.0238: real time    0.0239
    --------------------------------------------
      LOOP:  cpu time  196.3399: real time  196.8420

 eigenvalue-minimisations  : 35208
 total energy-change (2. order) : 0.2764324E-01  (-0.8910333E-02)
 number of electron     161.9999999 magnetization 
 augmentation part      -13.8259269 magnetization 

 Broyden mixing:
  rms(total) = 0.23350E-01    rms(broyden)= 0.23350E-01
  rms(prec ) = 0.41735E-01
  weight for this iteration     100.00

 eigenvalues of (default mixing * dielectric matrix)
  average eigenvalue GAMMA=   1.4155
  2.6593  1.9481  1.0118  0.7291  0.7291

 Free energy of the ion-electron system (eV)
  ---------------------------------------------------
  alpha Z        PSCENC =       206.49012646
  Ewald energy   TEWEN  =     19419.40912006
  -Hartree energ DENC   =    -25429.33018731
  -exchange      EXHF   =         0.00000000
  -V(xc)+E(xc)   XCENC  =      -429.92038336
  PAW double counting   =      4207.67815593    -3441.78473970
  entropy T*S    EENTRO =        -0.00000000
  eigenvalues    EBANDS =     -1194.08808529
  atomic energy  EATOM  =      6466.84281893
  Solvation  Ediel_sol  =         0.00000000
  ---------------------------------------------------
  free energy    TOTEN  =      -194.70317427 eV

  energy without entropy =     -194.70317427  energy(sigma->0) =     -194.70317427


--------------------------------------------------------------------------------------------------------




--------------------------------------- Iteration      1(  11)  ---------------------------------------


    POTLOK:  cpu time    0.2006: real time    0.2231
    SETDIJ:  cpu time    0.1852: real time    0.1857
     EDDAV:  cpu time  188.2122: real time  188.6699
       DOS:  cpu time    0.0022: real time    0.0022
    CHARGE:  cpu time    7.9378: real time    7.9573
    MIXING:  cpu time    0.0261: real time    0.0262
    --------------------------------------------
      LOOP:  cpu time  196.5641: real time  197.0644

 eigenvalue-minimisations  : 35280
 total energy-change (2. order) : 0.6191661E-02  (-0.8138875E-03)
 number of electron     161.9999999 magnetization 
 augmentation part      -13.8281722 magnetization 

 Broyden mixing:
  rms(total) = 0.19640E-01    rms(broyden)= 0.19640E-01
  rms(prec ) = 0.36066E-01
  weight for this iteration     100.00

 eigenvalues of (default mixing * dielectric matrix)
  average eigenvalue GAMMA=   1.3308
  2.4510  2.0329  1.1542  0.9348  0.8560  0.5559

 Free energy of the ion-electron system (eV)
  ---------------------------------------------------
  alpha Z        PSCENC =       206.49012646
  Ewald energy   TEWEN  =     19419.40912006
  -Hartree energ DENC   =    -25433.45116107
  -exchange      EXHF   =         0.00000000
  -V(xc)+E(xc)   XCENC  =      -429.85078376
  PAW double counting   =      4207.99045316    -3442.06779252
  entropy T*S    EENTRO =        -0.00000000
  eigenvalues    EBANDS =     -1190.05976387
  atomic energy  EATOM  =      6466.84281893
  Solvation  Ediel_sol  =         0.00000000
  ---------------------------------------------------
  free energy    TOTEN  =      -194.69698261 eV

  energy without entropy =     -194.69698261  energy(sigma->0) =     -194.69698261


--------------------------------------------------------------------------------------------------------




--------------------------------------- Iteration      1(  12)  ---------------------------------------


    POTLOK:  cpu time    0.1932: real time    0.2153
    SETDIJ:  cpu time    0.1825: real time    0.1830
     EDDAV:  cpu time  192.8789: real time  193.3461
       DOS:  cpu time    0.0026: real time    0.0026
    CHARGE:  cpu time    7.8705: real time    7.8894
    MIXING:  cpu time    0.0241: real time    0.0241
    --------------------------------------------
      LOOP:  cpu time  201.1518: real time  201.6606

 eigenvalue-minimisations  : 36384
 total energy-change (2. order) : 0.4634901E-02  (-0.8847205E-03)
 number of electron     161.9999999 magnetization 
 augmentation part      -13.7877856 magnetization 

 Broyden mixing:
  rms(total) = 0.95163E-02    rms(broyden)= 0.95163E-02
  rms(prec ) = 0.29378E-01
  weight for this iteration     100.00

 eigenvalues of (default mixing * dielectric matrix)
  average eigenvalue GAMMA=   1.5687
  3.1750  2.6267  1.6166  1.3876  0.8162  0.8162  0.5426

 Free energy of the ion-electron system (eV)
  ---------------------------------------------------
  alpha Z        PSCENC =       206.49012646
  Ewald energy   TEWEN  =     19419.40912006
  -Hartree energ DENC   =    -25437.33024008
  -exchange      EXHF   =         0.00000000
  -V(xc)+E(xc)   XCENC  =      -429.78588835
  PAW double counting   =      4200.08423127    -3434.09712504
  entropy T*S    EENTRO =        -0.00000000
  eigenvalues    EBANDS =     -1186.30539097
  atomic energy  EATOM  =      6466.84281893
  Solvation  Ediel_sol  =         0.00000000
  ---------------------------------------------------
  free energy    TOTEN  =      -194.69234771 eV

  energy without entropy =     -194.69234771  energy(sigma->0) =     -194.69234771


--------------------------------------------------------------------------------------------------------




--------------------------------------- Iteration      1(  13)  ---------------------------------------


    POTLOK:  cpu time    0.1978: real time    0.2198
    SETDIJ:  cpu time    0.1855: real time    0.1860
     EDDAV:  cpu time  168.2402: real time  168.6489
       DOS:  cpu time    0.0022: real time    0.0022
    CHARGE:  cpu time    7.9296: real time    7.9487
    MIXING:  cpu time    0.0249: real time    0.0249
    --------------------------------------------
      LOOP:  cpu time  176.5803: real time  177.0304

 eigenvalue-minimisations  : 30432
 total energy-change (2. order) : 0.1112471E-01  (-0.1202900E-02)
 number of electron     161.9999999 magnetization 
 augmentation part      -13.7865284 magnetization 

 Broyden mixing:
  rms(total) = 0.72458E-02    rms(broyden)= 0.72458E-02
  rms(prec ) = 0.19293E-01
  weight for this iteration     100.00

 eigenvalues of (default mixing * dielectric matrix)
  average eigenvalue GAMMA=   1.6184
  3.8248  2.5735  1.7177  1.7177  0.8906  0.8391  0.8391  0.5447

 Free energy of the ion-electron system (eV)
  ---------------------------------------------------
  alpha Z        PSCENC =       206.49012646
  Ewald energy   TEWEN  =     19419.40912006
  -Hartree energ DENC   =    -25453.83992048
  -exchange      EXHF   =         0.00000000
  -V(xc)+E(xc)   XCENC  =      -429.61921512
  PAW double counting   =      4193.27893491    -3427.18510668
  entropy T*S    EENTRO =        -0.00000000
  eigenvalues    EBANDS =     -1170.05798108
  atomic energy  EATOM  =      6466.84281893
  Solvation  Ediel_sol  =         0.00000000
  ---------------------------------------------------
  free energy    TOTEN  =      -194.68122300 eV

  energy without entropy =     -194.68122300  energy(sigma->0) =     -194.68122300


--------------------------------------------------------------------------------------------------------




--------------------------------------- Iteration      1(  14)  ---------------------------------------


    POTLOK:  cpu time    0.1975: real time    0.2192
    SETDIJ:  cpu time    0.1845: real time    0.1850
     EDDAV:  cpu time  174.8919: real time  175.3178
       DOS:  cpu time    0.0020: real time    0.0020
    CHARGE:  cpu time    7.9450: real time    7.9642
    MIXING:  cpu time    0.0248: real time    0.0248
    --------------------------------------------
      LOOP:  cpu time  183.2458: real time  183.7131

 eigenvalue-minimisations  : 32064
 total energy-change (2. order) : 0.2511035E-02  (-0.1524417E-03)
 number of electron     161.9999999 magnetization 
 augmentation part      -13.7897369 magnetization 

 Broyden mixing:
  rms(total) = 0.59956E-02    rms(broyden)= 0.59956E-02
  rms(prec ) = 0.16305E-01
  weight for this iteration     100.00

 eigenvalues of (default mixing * dielectric matrix)
  average eigenvalue GAMMA=   1.6711
  4.5294  2.5686  2.1839  1.8079  1.0781  0.8359  0.8359  0.5451  0.6555

 Free energy of the ion-electron system (eV)
  ---------------------------------------------------
  alpha Z        PSCENC =       206.49012646
  Ewald energy   TEWEN  =     19419.40912006
  -Hartree energ DENC   =    -25459.44062228
  -exchange      EXHF   =         0.00000000
  -V(xc)+E(xc)   XCENC  =      -429.58317138
  PAW double counting   =      4193.08412770    -3427.02085521
  entropy T*S    EENTRO =        -0.00000000
  eigenvalues    EBANDS =     -1164.46025625
  atomic energy  EATOM  =      6466.84281893
  Solvation  Ediel_sol  =         0.00000000
[...]
     49      -4.9400      2.00000
     50      -4.8072      2.00000
     51      -4.7110      2.00000
     52      -4.6948      2.00000
     53      -4.5311      2.00000
     54      -4.5304      2.00000
     55      -4.3465      2.00000
     56      -4.3457      2.00000
     57      -3.9904      2.00000
     58      -3.8349      2.00000
     59      -3.8336      2.00000
     60      -3.7987      2.00000
     61      -3.7977      2.00000
     62      -3.7420      2.00000
     63      -3.7396      2.00000
     64      -3.6883      2.00000
     65      -3.6206      2.00000
     66      -3.5570      2.00000
     67      -3.4673      2.00000
     68      -3.1331      2.00000
     69      -3.1109      2.00000
     70      -3.1095      2.00000
     71      -3.0683      2.00000
     72      -2.7940      2.00000
     73      -2.6090      2.00000
     74      -2.5684      2.00000
     75      -2.5679      2.00000
     76      -2.4306      2.00000
     77      -2.3805      2.00000
     78      -2.3053      2.00000
     79      -2.3043      2.00000
     80      -2.2591      2.00000
     81      -2.2584      2.00000
     82      -0.1485      0.00000
     83      -0.1471      0.00000
     84       0.2486      0.00000
     85       0.3334      0.00000
     86       0.3789      0.00000
     87       0.3815      0.00000
     88       0.3881      0.00000
     89       0.3904      0.00000
     90       0.6823      0.00000
     91       0.6844      0.00000
     92       0.6860      0.00000
     93       0.7739      0.00000
     94       0.7779      0.00000
     95       0.8102      0.00000
     96       0.8112      0.00000
     97       0.8906      0.00000
     98       0.9530      0.00000
     99       1.0005      0.00000
    100       1.0336      0.00000
    101       1.0344      0.00000
    102       1.0888      0.00000

 k-point   121 :      -0.0476    0.4762    0.0000
  band No.  band energies     occupation 
      1     -16.1437      2.00000
      2     -16.1403      2.00000
      3     -15.5384      2.00000
      4     -15.3616      2.00000
      5     -15.1429      2.00000
      6     -15.1423      2.00000
      7     -14.8138      2.00000
      8     -14.7188      2.00000
      9     -14.6031      2.00000
     10     -14.6002      2.00000
     11     -14.5407      2.00000
     12     -14.5384      2.00000
     13     -14.5317      2.00000
     14     -14.3203      2.00000
     15     -14.3188      2.00000
     16     -14.3036      2.00000
     17     -14.2910      2.00000
     18     -14.2890      2.00000
     19      -8.1368      2.00000
     20      -7.6384      2.00000
     21      -7.6372      2.00000
     22      -7.4880      2.00000
     23      -7.4866      2.00000
     24      -7.4828      2.00000
     25      -7.4814      2.00000
     26      -6.9477      2.00000
     27      -6.8359      2.00000
     28      -6.8332      2.00000
     29      -6.8056      2.00000
     30      -6.7334      2.00000
     31      -6.7305      2.00000
     32      -6.7242      2.00000
     33      -6.3025      2.00000
     34      -6.1672      2.00000
     35      -5.9616      2.00000
     36      -5.8634      2.00000
     37      -5.8624      2.00000
     38      -5.8622      2.00000
     39      -5.8582      2.00000
     40      -5.5856      2.00000
     41      -5.3543      2.00000
     42      -5.1299      2.00000
     43      -5.1292      2.00000
     44      -5.1258      2.00000
     45      -5.1215      2.00000
     46      -5.0649      2.00000
     47      -5.0644      2.00000
     48      -5.0256      2.00000
     49      -4.8485      2.00000
     50      -4.7515      2.00000
     51      -4.7507      2.00000
     52      -4.7172      2.00000
     53      -4.5075      2.00000
     54      -4.5057      2.00000
     55      -4.3591      2.00000
     56      -4.3571      2.00000
     57      -3.9895      2.00000
     58      -3.8565      2.00000
     59      -3.8549      2.00000
     60      -3.8316      2.00000
     61      -3.7721      2.00000
     62      -3.7705      2.00000
     63      -3.6692      2.00000
     64      -3.6569      2.00000
     65      -3.6520      2.00000
     66      -3.5375      2.00000
     67      -3.5335      2.00000
     68      -3.1540      2.00000
     69      -3.0852      2.00000
     70      -3.0808      2.00000
     71      -3.0648      2.00000
     72      -2.8472      2.00000
     73      -2.5810      2.00000
     74      -2.5688      2.00000
     75      -2.5484      2.00000
     76      -2.4066      2.00000
     77      -2.4040      2.00000
     78      -2.3020      2.00000
     79      -2.3003      2.00000
     80      -2.2659      2.00000
     81      -2.2641      2.00000
     82      -0.1564      0.00000
     83      -0.1296      0.00000
     84       0.2850      0.00000
     85       0.2872      0.00000
     86       0.3420      0.00000
     87       0.3429      0.00000
     88       0.4282      0.00000
     89       0.4288      0.00000
     90       0.6592      0.00000
     91       0.6854      0.00000
     92       0.7159      0.00000
     93       0.7669      0.00000
     94       0.7691      0.00000
     95       0.7700      0.00000
     96       0.8485      0.00000
     97       0.9146      0.00000
     98       0.9175      0.00000
     99       1.0071      0.00000
    100       1.0414      0.00000
    101       1.0709      0.00000
    102       1.0805      0.00000


--------------------------------------------------------------------------------------------------------


 soft charge-density along one line, spin component           1
         0         1         2         3         4         5         6         7         8         9
 total charge-density along one line
 
 pseudopotential strength for first ion, spin component:           1
 -8.650  -0.000   0.000   0.000   0.000  -0.032  -0.000   0.000
 -0.000  -8.648   0.000  -0.000  -0.000  -0.000  -0.032   0.000
  0.000   0.000  -8.634  -0.000   0.000   0.000   0.000  -0.031
  0.000  -0.000  -0.000  -8.648  -0.000   0.000  -0.000  -0.000
  0.000  -0.000   0.000  -0.000  -8.650   0.000  -0.000   0.000
 -0.032  -0.000   0.000   0.000   0.000   0.071  -0.000   0.000
 -0.000  -0.032   0.000  -0.000  -0.000  -0.000   0.071   0.000
  0.000   0.000  -0.031  -0.000   0.000   0.000   0.000   0.071
  0.000  -0.000  -0.000  -0.032  -0.000   0.000   0.000  -0.000
  0.000  -0.000   0.000  -0.000  -0.032   0.000  -0.000   0.000
  0.000  -0.000  -0.002   0.000   0.000  -0.000  -0.000  -0.000
 -0.000   0.000   0.000  -0.000  -0.000   0.000   0.000   0.000
  0.000   0.000   0.000  -0.000   0.007   0.000   0.000   0.000
 -0.000  -0.000   0.000   0.000   0.000   0.000  -0.000   0.000
  0.007  -0.000  -0.000   0.000   0.000  -0.000   0.000  -0.000
 -0.000  -0.000  -0.000   0.000  -0.003   0.000   0.000   0.000
  0.000   0.000  -0.000  -0.000  -0.000  -0.000  -0.000  -0.000
 -0.003   0.000   0.000  -0.000  -0.000   0.000  -0.000  -0.000
 total augmentation occupancy for first ion, spin component:           1
  0.919  -0.000   0.001   0.001   0.001  -0.525   0.001   0.000  -0.001  -0.000   0.001  -0.000   0.000  -0.001   0.050   0.000
 -0.000   0.881   0.001   0.001   0.000   0.001  -0.726  -0.000  -0.001  -0.000   0.001  -0.000   0.000  -0.001  -0.000   0.000
  0.001   0.001   0.963  -0.001   0.000   0.000  -0.000  -0.482   0.000  -0.000   0.087  -0.021  -0.000   0.000   0.000   0.000
  0.001   0.001  -0.001   0.880  -0.000  -0.001  -0.001   0.000  -0.725   0.001  -0.001   0.001  -0.000   0.001   0.001  -0.000
  0.001   0.000   0.000  -0.000   0.920  -0.000  -0.000  -0.000   0.001  -0.525  -0.001   0.000   0.050   0.000   0.000   0.000
 -0.525   0.001   0.000  -0.001  -0.000   0.526  -0.002  -0.000   0.002   0.001  -0.001   0.001  -0.001   0.001  -0.107   0.000
  0.001  -0.726  -0.000  -0.001  -0.000  -0.002   0.848   0.000   0.002   0.000  -0.001   0.001  -0.001   0.001   0.001  -0.000
  0.000  -0.000  -0.482   0.000  -0.000  -0.000   0.000   0.423  -0.000   0.000  -0.079   0.037  -0.000  -0.000   0.000   0.000
 -0.001  -0.001   0.000  -0.725   0.001   0.002   0.002  -0.000   0.846  -0.002   0.002  -0.001   0.001  -0.001  -0.001  -0.000
 -0.000  -0.000  -0.000   0.001  -0.525   0.001   0.000   0.000  -0.002   0.527   0.001  -0.000  -0.108  -0.000  -0.001   0.009
  0.001   0.001   0.087  -0.001  -0.001  -0.001  -0.001  -0.079   0.002   0.001   1.101  -0.279  -0.001   0.001   0.001   0.000
 -0.000  -0.000  -0.021   0.001   0.000   0.001   0.001   0.037  -0.001  -0.000  -0.279   0.116   0.000  -0.000  -0.000  -0.000
  0.000   0.000  -0.000  -0.000   0.050  -0.001  -0.001  -0.000   0.001  -0.108  -0.001   0.000   0.226   0.000   0.000  -0.018
 -0.001  -0.001   0.000   0.001   0.000   0.001   0.001  -0.000  -0.001  -0.000   0.001  -0.000   0.000   0.275  -0.000  -0.000
  0.050  -0.000   0.000   0.001   0.000  -0.107   0.001   0.000  -0.001  -0.001   0.001  -0.000   0.000  -0.000   0.226  -0.000
  0.000   0.000   0.000  -0.000   0.000   0.000  -0.000   0.000  -0.000   0.009   0.000  -0.000  -0.018  -0.000  -0.000   0.002
 -0.000  -0.000   0.000   0.000   0.000  -0.000  -0.000  -0.000   0.000   0.000  -0.000   0.000  -0.000  -0.021   0.000   0.000
  0.000  -0.000  -0.000   0.000   0.000   0.009  -0.000  -0.000   0.000   0.000   0.000   0.000  -0.000   0.000  -0.018   0.000


------------------------ aborting loop because EDIFF is reached ----------------------------------------


    CHARGE:  cpu time    7.3477: real time    7.3653
    FORLOC:  cpu time    0.0587: real time    0.0588
    FORNL :  cpu time   54.8861: real time   55.0181
    STRESS:  cpu time  116.3965: real time  116.6778
    FORCOR:  cpu time    0.2247: real time    0.2252
    FORHAR:  cpu time    0.0839: real time    0.0841
    MIXING:  cpu time    0.0109: real time    0.0109
    OFIELD:  cpu time    0.0000: real time    0.0000

  FORCE on cell =-STRESS in cart. coord.  units (eV):
  Direction    XX          YY          ZZ          XY          YZ          ZX
  --------------------------------------------------------------------------------------
  Alpha Z   206.49013   206.49013   206.49013
  Ewald   24327.28425 24328.07896-29235.97100    -0.00000    -0.00044     0.00000
  Hartree 25247.45841 25247.74704-25014.44799     0.00019    -0.00004     0.00000
  E(xc)    -642.42481  -642.44530  -650.04641    -0.00001     0.00001    -0.00000
  Local  -51722.20918-51723.34620 52084.49628    -0.00043     0.00044     0.00000
  n-local   625.24325   625.23136   673.96579    -0.03194    -0.00009     0.00261
  augment   -25.08898   -25.08124   -31.55452     0.00002     0.00001     0.00000
  Kinetic  1991.43445  1991.86813  1966.76629     3.47791    -0.00006    -0.00145
  Fock        0.00000     0.00000     0.00000     0.00000     0.00000     0.00000
  -------------------------------------------------------------------------------------
  Total       8.18751     8.54288    -0.30143     0.00000    -0.00016     0.00000
  in kB       7.81735     8.15665    -0.28780     0.00000    -0.00015     0.00000
  external pressure =        5.23 kB  Pullay stress =        0.00 kB


 VOLUME and BASIS-vectors are now :
 -----------------------------------------------------------------------------
  energy-cutoff  :      800.00
  volume of cell :     1678.04
      direct lattice vectors                 reciprocal lattice vectors
     9.846000000  0.000000000  0.000000000     0.101564087 -0.058675529  0.000000000
     4.923000000  8.521440000  0.000000000     0.000000000  0.117351058  0.000000000
     0.000000000  0.000000000 20.000000000     0.000000000  0.000000000  0.050000000

  length of vectors
     9.846000000  9.841283894 20.000000000     0.117294848  0.117351058  0.050000000


 FORCES acting on ions
    electron-ion (+dipol)            ewald-force                    non-local-force                 convergence-correction
 -----------------------------------------------------------------------------------------------
   0.389E+00 -.274E+00 0.759E-01   -.403E+00 0.283E+00 -.868E-01   -.177E-01 0.975E-02 -.329E-01   0.224E-06 0.101E-05 0.965E-05
   -.107E-04 -.569E-01 -.610E-01   0.544E-03 0.579E-01 0.595E-01   0.812E-17 -.139E-02 0.451E-03   0.345E-07 0.102E-05 0.996E-05
   -.389E+00 -.275E+00 0.759E-01   0.402E+00 0.283E+00 -.868E-01   0.177E-01 0.975E-02 -.329E-01   -.259E-06 0.107E-05 0.965E-05
   0.577E-01 -.180E-01 -.634E-01   -.593E-01 0.177E-01 0.621E-01   0.307E-03 -.200E-03 -.114E-02   0.284E-06 -.253E-06 0.990E-05
   -.578E-01 -.180E-01 -.634E-01   0.595E-01 0.172E-01 0.621E-01   -.307E-03 -.200E-03 -.114E-02   -.212E-06 -.251E-06 0.990E-05
   0.556E-04 0.398E+00 0.761E-01   -.318E-03 -.414E+00 -.870E-01   -.783E-17 -.209E-01 -.329E-01   -.727E-07 -.121E-06 0.964E-05
   -.500E-04 -.119E+00 -.634E-01   -.227E-03 0.121E+00 0.621E-01   0.960E-17 -.772E-03 -.114E-02   0.381E-07 -.107E-05 0.992E-05
   0.554E-02 -.484E-01 -.610E-01   -.600E-02 0.485E-01 0.595E-01   0.878E-03 0.644E-04 0.460E-03   0.112E-06 -.738E-06 0.999E-05
   -.552E-02 -.485E-01 -.610E-01   0.620E-02 0.486E-01 0.595E-01   -.878E-03 0.644E-04 0.460E-03   -.150E-06 -.676E-06 0.999E-05
   0.832E-04 0.272E-01 0.499E+03   0.385E-03 -.262E-01 -.501E+03   0.127E-16 -.919E-03 0.267E+01   -.497E-07 0.159E-05 0.909E-05
   0.214E-03 0.271E-01 0.498E+03   -.114E-02 -.263E-01 -.500E+03   0.310E-04 -.704E-03 0.260E+01   0.450E-06 0.787E-06 0.953E-05
   -.395E-02 0.271E-01 0.498E+03   0.727E-03 -.267E-01 -.500E+03   -.310E-04 -.704E-03 0.260E+01   -.400E-06 0.831E-06 0.955E-05
   0.509E-03 0.285E-01 0.498E+03   0.972E-04 -.264E-01 -.500E+03   0.294E-03 -.109E-02 0.260E+01   -.508E-06 -.133E-05 0.101E-04
   -.189E-02 0.265E-01 0.498E+03   -.488E-03 -.255E-01 -.500E+03   0.715E-18 -.976E-03 0.260E+01   0.630E-07 -.684E-06 0.101E-04
   -.435E-03 0.286E-01 0.498E+03   0.439E-03 -.264E-01 -.500E+03   -.294E-03 -.109E-02 0.260E+01   0.445E-06 -.135E-05 0.101E-04
   -.160E-02 0.245E-01 0.498E+03   0.703E-03 -.246E-01 -.500E+03   0.257E-03 -.113E-02 0.260E+01   0.346E-06 -.134E-06 0.876E-05
   0.163E-02 0.246E-01 0.498E+03   -.826E-03 -.243E-01 -.500E+03   -.257E-03 -.113E-02 0.260E+01   -.332E-06 -.199E-06 0.877E-05
   -.393E-05 0.262E-01 0.498E+03   0.101E-03 -.252E-01 -.500E+03   -.559E-17 -.955E-03 0.260E+01   -.132E-07 0.490E-06 0.917E-05
   0.831E-04 0.276E-01 -.498E+03   0.387E-03 -.266E-01 0.500E+03   0.467E-17 -.989E-03 -.261E+01   -.497E-07 0.157E-05 0.103E-04
   0.556E-01 0.271E-01 -.498E+03   -.590E-01 -.263E-01 0.500E+03   -.323E-03 -.205E-02 -.260E+01   0.766E-06 0.664E-06 0.104E-04
   -.593E-01 0.270E-01 -.498E+03   0.585E-01 -.267E-01 0.500E+03   0.323E-03 -.205E-02 -.260E+01   -.716E-06 0.708E-06 0.103E-04
   0.282E-01 0.765E-01 -.498E+03   -.288E-01 -.765E-01 0.500E+03   -.106E-02 -.719E-03 -.260E+01   -.411E-06 -.973E-06 0.981E-05
   -.189E-02 0.265E-01 -.498E+03   -.488E-03 -.255E-01 0.500E+03   0.134E-16 -.978E-03 -.260E+01   0.630E-07 -.662E-06 0.981E-05
   -.281E-01 0.766E-01 -.498E+03   0.294E-01 -.765E-01 0.500E+03   0.106E-02 -.719E-03 -.260E+01   0.349E-06 -.994E-06 0.979E-05
   -.294E-01 -.234E-01 -.498E+03   0.296E-01 0.255E-01 0.500E+03   -.728E-03 -.154E-03 -.260E+01   0.818E-07 -.371E-06 0.112E-04
   0.294E-01 -.233E-01 -.498E+03   -.298E-01 0.258E-01 0.500E+03   0.728E-03 -.154E-03 -.260E+01   -.686E-07 -.436E-06 0.111E-04
   -.393E-05 0.262E-01 -.498E+03   0.101E-03 -.252E-01 0.500E+03   0.344E-17 -.953E-03 -.260E+01   -.132E-07 0.497E-06 0.110E-04
 -----------------------------------------------------------------------------------------------
   -.109E-01 0.213E-01 0.382E-01   0.547E-15 -.369E-13 -.568E-12   0.234E-16 -.213E-01 -.385E-01   -.101E-10 -.114E-07 0.267E-03
 
 
 POSITION                                       TOTAL-FORCE (eV/Angst)
 -----------------------------------------------------------------------------------
      3.28200      0.00057      0.00000        -0.031686      0.018236     -0.043744
      6.56400      0.00057      0.00000         0.000000     -0.000345     -0.001072
      9.84600      0.00057      0.00000         0.031686      0.018236     -0.043744
      4.92300      2.84105      0.00000        -0.001326     -0.000729     -0.002418
      8.20500      2.84105      0.00000         0.001326     -0.000729     -0.002418
     11.48700      2.84105      0.00000         0.000000     -0.036743     -0.043811
      6.56400      5.68153      0.00000         0.000000      0.001527     -0.002418
      9.84600      5.68153      0.00000         0.000315      0.000133     -0.001066
     13.12800      5.68153      0.00000        -0.000315      0.000133     -0.001066
      1.64100      0.94715     18.29918         0.000000      0.000065      0.138073
      4.92300      0.94715     18.30918         0.001178     -0.000062      0.003287
      8.20500      0.94715     18.30918        -0.001178     -0.000062      0.003287
      3.28200      3.78763     18.30918         0.000594      0.001067      0.003287
      6.56400      3.78763     18.30918         0.000000      0.000008     -0.000193
      9.84600      3.78763     18.30918        -0.000594      0.001067      0.003287
      4.92300      6.62810     18.30918        -0.000590     -0.000968      0.003300
      8.20500      6.62810     18.30918         0.000590     -0.000968      0.003300
     11.48700      6.62810     18.30918         0.000000      0.000041     -0.000114
      1.64100      0.94715      1.69082         0.000000     -0.000017     -0.014196
      4.92300      0.94715      1.69082        -0.001638     -0.001482     -0.000588
      8.20500      0.94715      1.69082         0.001638     -0.001482     -0.000588
      3.28200      3.78763      1.69082        -0.002047     -0.000665     -0.000581
      6.56400      3.78763      1.69082         0.000000      0.000008      0.001023
      9.84600      3.78763      1.69082         0.002047     -0.000665     -0.000581
      4.92300      6.62810      1.69082        -0.000407      0.002178     -0.000594
      8.20500      6.62810      1.69082         0.000407      0.002178     -0.000594
     11.48700      6.62810      1.69082         0.000000      0.000041      0.000943
 -----------------------------------------------------------------------------------
    total drift:                               -0.010905      0.000050     -0.000002


--------------------------------------------------------------------------------------------------------



  FREE ENERGIE OF THE ION-ELECTRON SYSTEM (eV)
  ---------------------------------------------------
  free  energy   TOTEN  =      -194.69109443 eV

  energy  without entropy=     -194.69109443  energy(sigma->0) =     -194.69109443
 


--------------------------------------------------------------------------------------------------------


    POTLOK:  cpu time    0.3752: real time    0.3760


--------------------------------------------------------------------------------------------------------


     LOOP+:  cpu time 5868.1836: real time 5883.2802
    4ORBIT:  cpu time    0.0000: real time    0.0000

 total amount of memory used by VASP MPI-rank0  1117972. kBytes
=======================================================================

   base      :      30000. kBytes
   nonl-proj :     507396. kBytes
   fftplans  :      67907. kBytes
   grid      :      36685. kBytes
   one-center:         77. kBytes
   wavefun   :     475907. kBytes
 
  
  
 General timing and accounting informations for this job:
 ========================================================
  
                  Total CPU time used (sec):     5945.672
                            User time (sec):     5927.347
                          System time (sec):       18.326
                         Elapsed time (sec):     5961.492
  
                   Maximum memory used (kb):     1323780.
                   Average memory used (kb):           0.
  
                          Minor page faults:       359298
                          Major page faults:            0
                 Voluntary context switches:         6162
