<?xml version="1.0" encoding="ISO-8859-1"?>
<modeling>
 <generator>
  <i name="program" type="string">vasp </i>
  <i name="version" type="string">5.4.4.18Apr17-6-g9f103f2a35  </i>
  <i name="subversion" type="string">(build May 31 2018 21:15:54) complex            parallel </i>
  <i name="platform" type="string">c7_intel_O1 </i>
  <i name="date" type="string">2020 08 13 </i>
  <i name="time" type="string">02:02:51 </i>
 </generator>
 <incar>
  <i type="string" name="SYSTEM"> W-1, se-2</i>
  <i type="int" name="ISTART">     0</i>
  <i type="string" name="PREC">accurate</i>
  <i type="string" name="ALGO"> N</i>
  <i type="logical" name="ADDGRID"> T  </i>
  <i name="AMIN">      0.01000000</i>
  <i type="int" name="ICHARG">     2</i>
  <i type="int" name="NELMIN">     5</i>
  <i type="int" name="IBRION">    -1</i>
  <i name="EDIFF">      0.00000001</i>
  <i name="EDIFFG">     -0.00000001</i>
  <i type="int" name="NSW">     0</i>
  <i name="SYMPREC">      0.00010000</i>
  <i name="ENCUT">    800.00000000</i>
  <i type="logical" name="LREAL"> F  </i>
  <i type="int" name="ISMEAR">     0</i>
  <i name="SIGMA">      0.01000000</i>
  <i type="logical" name="LWAVE"> F  </i>
  <i type="logical" name="LCHARG"> F  </i>
  <v type="int" name="KPOINT_BSE">    -1     0     0     0</v>
 </incar>
 <structure name="primitive_cell" >
  <crystal>
   <varray name="basis" >
    <v>       9.84600000       0.00000000       0.00000000 </v>
    <v>       4.92300000       8.52144000       0.00000000 </v>
    <v>       0.00000000       0.00000000      20.00000000 </v>
   </varray>
   <i name="volume">   1678.04196480 </i>
   <varray name="rec_basis" >
    <v>       0.10156409      -0.05867553       0.00000000 </v>
    <v>       0.00000000       0.11735106       0.00000000 </v>
    <v>       0.00000000       0.00000000       0.05000000 </v>
   </varray>
  </crystal>
  <varray name="positions" >
   <v>       0.33330000       0.00006700       0.00000000 </v>
   <v>       0.44442600      -0.22218500      -0.08454100 </v>
   <v>       0.44442600      -0.22218500       0.08454100 </v>
   <v>       0.44442600       0.11114900      -0.08454100 </v>
   <v>       0.44442600       0.11114900       0.08454100 </v>
   <v>       0.11109200       0.11114900       0.08454100 </v>
   <v>       0.11109200       0.11114900      -0.08504100 </v>
   <v>       0.33330000       0.33340000       0.00000000 </v>
   <v>      -0.00003300       0.33340000       0.00000000 </v>
   <v>      -0.33336700      -0.33326700       0.00000000 </v>
   <v>       0.33330000      -0.33326700       0.00000000 </v>
   <v>      -0.33336700       0.00006700       0.00000000 </v>
   <v>      -0.00003300       0.00006700       0.00000000 </v>
   <v>       0.11109200       0.44448200      -0.08454100 </v>
   <v>       0.11109200       0.44448200       0.08454100 </v>
   <v>      -0.22224100      -0.22218500      -0.08454100 </v>
   <v>      -0.22224100      -0.22218500       0.08454100 </v>
   <v>       0.11109200      -0.22218500      -0.08454100 </v>
   <v>       0.11109200      -0.22218500       0.08454100 </v>
   <v>       0.44442600       0.44448200      -0.08454100 </v>
   <v>      -0.22224100       0.44448200      -0.08454100 </v>
   <v>       0.44442600       0.44448200       0.08454100 </v>
   <v>      -0.22224100       0.44448200       0.08454100 </v>
   <v>      -0.22224100       0.11114900      -0.08454100 </v>
   <v>      -0.22224100       0.11114900       0.08454100 </v>
   <v>      -0.00003300      -0.33326700       0.00000000 </v>
   <v>      -0.33336700       0.33340000       0.00000000 </v>
  </varray>
 </structure>
 <varray name="primitive_index" >
  <v type="int" >        1 </v>
  <v type="int" >       17 </v>
  <v type="int" >       26 </v>
  <v type="int" >       11 </v>
  <v type="int" >       20 </v>
  <v type="int" >       19 </v>
  <v type="int" >       10 </v>
  <v type="int" >        4 </v>
  <v type="int" >        6 </v>
  <v type="int" >        8 </v>
  <v type="int" >        7 </v>
  <v type="int" >        2 </v>
  <v type="int" >        3 </v>
  <v type="int" >       13 </v>
  <v type="int" >       22 </v>
  <v type="int" >       18 </v>
  <v type="int" >       27 </v>
  <v type="int" >       16 </v>
  <v type="int" >       25 </v>
  <v type="int" >       14 </v>
  <v type="int" >       15 </v>
  <v type="int" >       23 </v>
  <v type="int" >       24 </v>
  <v type="int" >       12 </v>
  <v type="int" >       21 </v>
  <v type="int" >        9 </v>
  <v type="int" >        5 </v>
 </varray>
 <kpoints>
  <generation param="Gamma">
   <v type="int" name="divisions">      21       21        1 </v>
   <v name="usershift">      0.00000000       0.00000000       0.00000000 </v>
   <v name="genvec1">      0.04761905      -0.00000000       0.00000000 </v>
   <v name="genvec2">      0.00000000       0.04761905       0.00000000 </v>
   <v name="genvec3">      0.00000000       0.00000000       1.00000000 </v>
   <v name="shift">      0.00000000       0.00000000       0.00000000 </v>
  </generation>
  <varray name="kpointlist" >
   <v>       0.00000000       0.00000000       0.00000000 </v>
   <v>       0.04761905       0.00000000       0.00000000 </v>
   <v>       0.09523810       0.00000000       0.00000000 </v>
   <v>       0.14285714       0.00000000       0.00000000 </v>
   <v>       0.19047619       0.00000000       0.00000000 </v>
   <v>       0.23809524       0.00000000       0.00000000 </v>
   <v>       0.28571429       0.00000000       0.00000000 </v>
   <v>       0.33333333       0.00000000       0.00000000 </v>
   <v>       0.38095238       0.00000000       0.00000000 </v>
   <v>       0.42857143       0.00000000       0.00000000 </v>
   <v>       0.47619048       0.00000000       0.00000000 </v>
   <v>       0.00000000       0.04761905       0.00000000 </v>
   <v>       0.09523810       0.04761905       0.00000000 </v>
   <v>       0.14285714       0.04761905       0.00000000 </v>
   <v>       0.19047619       0.04761905       0.00000000 </v>
   <v>       0.23809524       0.04761905       0.00000000 </v>
   <v>       0.28571429       0.04761905       0.00000000 </v>
   <v>       0.33333333       0.04761905       0.00000000 </v>
   <v>       0.38095238       0.04761905       0.00000000 </v>
   <v>       0.42857143       0.04761905       0.00000000 </v>
   <v>       0.47619048       0.04761905       0.00000000 </v>
   <v>      -0.47619048       0.04761905       0.00000000 </v>
   <v>      -0.42857143       0.04761905       0.00000000 </v>
   <v>      -0.38095238       0.04761905       0.00000000 </v>
   <v>      -0.33333333       0.04761905       0.00000000 </v>
   <v>      -0.28571429       0.04761905       0.00000000 </v>
   <v>      -0.23809524       0.04761905       0.00000000 </v>
   <v>      -0.19047619       0.04761905       0.00000000 </v>
   <v>      -0.14285714       0.04761905       0.00000000 </v>
   <v>      -0.09523810       0.04761905       0.00000000 </v>
   <v>      -0.04761905       0.04761905       0.00000000 </v>
   <v>       0.00000000       0.09523810       0.00000000 </v>
   <v>       0.19047619       0.09523810       0.00000000 </v>
   <v>       0.23809524       0.09523810       0.00000000 </v>
   <v>       0.28571429       0.09523810       0.00000000 </v>
   <v>       0.33333333       0.09523810       0.00000000 </v>
   <v>       0.38095238       0.09523810       0.00000000 </v>
   <v>       0.42857143       0.09523810       0.00000000 </v>
   <v>       0.47619048       0.09523810       0.00000000 </v>
   <v>      -0.47619048       0.09523810       0.00000000 </v>
   <v>      -0.42857143       0.09523810       0.00000000 </v>
   <v>      -0.38095238       0.09523810       0.00000000 </v>
   <v>      -0.33333333       0.09523810       0.00000000 </v>
   <v>      -0.28571429       0.09523810       0.00000000 </v>
   <v>      -0.23809524       0.09523810       0.00000000 </v>
   <v>      -0.19047619       0.09523810       0.00000000 </v>
   <v>      -0.14285714       0.09523810       0.00000000 </v>
   <v>      -0.09523810       0.09523810       0.00000000 </v>
   <v>      -0.04761905       0.09523810       0.00000000 </v>
   <v>       0.00000000       0.14285714       0.00000000 </v>
   <v>       0.28571429       0.14285714       0.00000000 </v>
   <v>       0.33333333       0.14285714       0.00000000 </v>
   <v>       0.38095238       0.14285714       0.00000000 </v>
   <v>       0.42857143       0.14285714       0.00000000 </v>
   <v>       0.47619048       0.14285714       0.00000000 </v>
   <v>      -0.47619048       0.14285714       0.00000000 </v>
   <v>      -0.42857143       0.14285714       0.00000000 </v>
   <v>      -0.38095238       0.14285714       0.00000000 </v>
   <v>      -0.33333333       0.14285714       0.00000000 </v>
   <v>      -0.28571429       0.14285714       0.00000000 </v>
   <v>      -0.23809524       0.14285714       0.00000000 </v>
   <v>      -0.19047619       0.14285714       0.00000000 </v>
   <v>      -0.14285714       0.14285714       0.00000000 </v>
   <v>      -0.09523810       0.14285714       0.00000000 </v>
   <v>      -0.04761905       0.14285714       0.00000000 </v>
   <v>       0.00000000       0.19047619       0.00000000 </v>
   <v>       0.38095238       0.19047619       0.00000000 </v>
   <v>       0.42857143       0.19047619       0.00000000 </v>
   <v>       0.47619048       0.19047619       0.00000000 </v>
   <v>      -0.47619048       0.19047619       0.00000000 </v>
   <v>      -0.42857143       0.19047619       0.00000000 </v>
   <v>      -0.38095238       0.19047619       0.00000000 </v>
   <v>      -0.33333333       0.19047619       0.00000000 </v>
   <v>      -0.28571429       0.19047619       0.00000000 </v>
   <v>      -0.23809524       0.19047619       0.00000000 </v>
   <v>      -0.19047619       0.19047619       0.00000000 </v>
   <v>      -0.14285714       0.19047619       0.00000000 </v>
   <v>      -0.09523810       0.19047619       0.00000000 </v>
   <v>      -0.04761905       0.19047619       0.00000000 </v>
   <v>       0.00000000       0.23809524       0.00000000 </v>
   <v>       0.47619048       0.23809524       0.00000000 </v>
   <v>      -0.47619048       0.23809524       0.00000000 </v>
   <v>      -0.42857143       0.23809524       0.00000000 </v>
   <v>      -0.38095238       0.23809524       0.00000000 </v>
   <v>      -0.33333333       0.23809524       0.00000000 </v>
   <v>      -0.28571429       0.23809524       0.00000000 </v>
   <v>      -0.23809524       0.23809524       0.00000000 </v>
   <v>      -0.19047619       0.23809524       0.00000000 </v>
   <v>      -0.14285714       0.23809524       0.00000000 </v>
   <v>      -0.09523810       0.23809524       0.00000000 </v>
   <v>      -0.04761905       0.23809524       0.00000000 </v>
   <v>       0.00000000       0.28571429       0.00000000 </v>
   <v>      -0.42857143       0.28571429       0.00000000 </v>
   <v>      -0.38095238       0.28571429       0.00000000 </v>
   <v>      -0.33333333       0.28571429       0.00000000 </v>
   <v>      -0.28571429       0.28571429       0.00000000 </v>
   <v>      -0.23809524       0.28571429       0.00000000 </v>
   <v>      -0.19047619       0.28571429       0.00000000 </v>
   <v>      -0.14285714       0.28571429       0.00000000 </v>
   <v>      -0.09523810       0.28571429       0.00000000 </v>
   <v>      -0.04761905       0.28571429       0.00000000 </v>
   <v>       0.00000000       0.33333333       0.00000000 </v>
   <v>      -0.33333333       0.33333333       0.00000000 </v>
   <v>      -0.28571429       0.33333333       0.00000000 </v>
   <v>      -0.23809524       0.33333333       0.00000000 </v>
   <v>      -0.19047619       0.33333333       0.00000000 </v>
   <v>      -0.14285714       0.33333333       0.00000000 </v>
   <v>      -0.09523810       0.33333333       0.00000000 </v>
   <v>      -0.04761905       0.33333333       0.00000000 </v>
   <v>       0.00000000       0.38095238       0.00000000 </v>
   <v>      -0.23809524       0.38095238       0.00000000 </v>
   <v>      -0.19047619       0.38095238       0.00000000 </v>
   <v>      -0.14285714       0.38095238       0.00000000 </v>
   <v>      -0.09523810       0.38095238       0.00000000 </v>
   <v>      -0.04761905       0.38095238       0.00000000 </v>
   <v>       0.00000000       0.42857143       0.00000000 </v>
   <v>      -0.14285714       0.42857143       0.00000000 </v>
   <v>      -0.09523810       0.42857143       0.00000000 </v>
   <v>      -0.04761905       0.42857143       0.00000000 </v>
   <v>       0.00000000       0.47619048       0.00000000 </v>
   <v>      -0.04761905       0.47619048       0.00000000 </v>
  </varray>
  <varray name="weights" >
   <v>       0.00226757 </v>
   <v>       0.00907029 </v>
   <v>       0.00907029 </v>
   <v>       0.00907029 </v>
   <v>       0.00907029 </v>
   <v>       0.00907029 </v>
   <v>       0.00907029 </v>
   <v>       0.00907029 </v>
   <v>       0.00907029 </v>
   <v>       0.00907029 </v>
   <v>       0.00907029 </v>
   <v>       0.00453515 </v>
   <v>       0.00453515 </v>
   <v>       0.00907029 </v>
   <v>       0.00907029 </v>
   <v>       0.00907029 </v>
   <v>       0.00907029 </v>
   <v>       0.00907029 </v>
   <v>       0.00907029 </v>
   <v>       0.00907029 </v>
   <v>       0.00907029 </v>
   <v>       0.00907029 </v>
   <v>       0.00907029 </v>
   <v>       0.00907029 </v>
   <v>       0.00907029 </v>
   <v>       0.00907029 </v>
   <v>       0.00907029 </v>
   <v>       0.00907029 </v>
   <v>       0.00907029 </v>
   <v>       0.00907029 </v>
   <v>       0.00907029 </v>
   <v>       0.00453515 </v>
   <v>       0.00453515 </v>
   <v>       0.00907029 </v>
   <v>       0.00907029 </v>
   <v>       0.00907029 </v>
   <v>       0.00907029 </v>
   <v>       0.00907029 </v>
   <v>       0.00907029 </v>
   <v>       0.00907029 </v>
   <v>       0.00907029 </v>
   <v>       0.00907029 </v>
   <v>       0.00907029 </v>
   <v>       0.00907029 </v>
   <v>       0.00907029 </v>
   <v>       0.00907029 </v>
   <v>       0.00907029 </v>
   <v>       0.00907029 </v>
   <v>       0.00907029 </v>
   <v>       0.00453515 </v>
   <v>       0.00453515 </v>
   <v>       0.00907029 </v>
   <v>       0.00907029 </v>
   <v>       0.00907029 </v>
   <v>       0.00907029 </v>
   <v>       0.00907029 </v>
   <v>       0.00907029 </v>
   <v>       0.00907029 </v>
   <v>       0.00907029 </v>
   <v>       0.00907029 </v>
   <v>       0.00907029 </v>
   <v>       0.00907029 </v>
   <v>       0.00907029 </v>
   <v>       0.00907029 </v>
   <v>       0.00907029 </v>
   <v>       0.00453515 </v>
   <v>       0.00453515 </v>
   <v>       0.00907029 </v>
   <v>       0.00907029 </v>
   <v>       0.00907029 </v>
   <v>       0.00907029 </v>
   <v>       0.00907029 </v>
   <v>       0.00907029 </v>
   <v>       0.00907029 </v>
   <v>       0.00907029 </v>
   <v>       0.00907029 </v>
   <v>       0.00907029 </v>
   <v>       0.00907029 </v>
   <v>       0.00907029 </v>
   <v>       0.00453515 </v>
   <v>       0.00453515 </v>
   <v>       0.00907029 </v>
   <v>       0.00907029 </v>
   <v>       0.00907029 </v>
   <v>       0.00907029 </v>
   <v>       0.00907029 </v>
   <v>       0.00907029 </v>
   <v>       0.00907029 </v>
   <v>       0.00907029 </v>
   <v>       0.00907029 </v>
   <v>       0.00907029 </v>
   <v>       0.00453515 </v>
   <v>       0.00453515 </v>
   <v>       0.00907029 </v>
   <v>       0.00907029 </v>
   <v>       0.00907029 </v>
   <v>       0.00907029 </v>
   <v>       0.00907029 </v>
   <v>       0.00907029 </v>
   <v>       0.00907029 </v>
   <v>       0.00907029 </v>
   <v>       0.00453515 </v>
   <v>       0.00453515 </v>
   <v>       0.00907029 </v>
   <v>       0.00907029 </v>
   <v>       0.00907029 </v>
   <v>       0.00907029 </v>
   <v>       0.00907029 </v>
   <v>       0.00907029 </v>
   <v>       0.00453515 </v>
   <v>       0.00453515 </v>
   <v>       0.00907029 </v>
   <v>       0.00907029 </v>
   <v>       0.00907029 </v>
   <v>       0.00907029 </v>
   <v>       0.00453515 </v>
   <v>       0.00453515 </v>
   <v>       0.00907029 </v>
   <v>       0.00907029 </v>
   <v>       0.00453515 </v>
   <v>       0.00453515 </v>
  </varray>
 </kpoints>
 <parameters>
  <separator name="general" >
   <i type="string" name="SYSTEM">W-1, se-2</i>
   <i type="logical" name="LCOMPAT"> F  </i>
  </separator>
  <separator name="electronic" >
   <i type="string" name="PREC">accura</i>
   <i name="ENMAX">    800.00000000</i>
   <i name="ENAUG">    446.84200000</i>
   <i name="EDIFF">      0.00000001</i>
   <i type="int" name="IALGO">    38</i>
   <i type="int" name="IWAVPR">    10</i>
   <i type="int" name="NBANDS">   102</i>
   <i name="NELECT">    162.00000000</i>
   <i type="int" name="TURBO">     0</i>
   <i type="int" name="IRESTART">     0</i>
   <i type="int" name="NREBOOT">     0</i>
   <i type="int" name="NMIN">     0</i>
   <i name="EREF">      0.00000000</i>
   <separator name="electronic smearing" >
    <i type="int" name="ISMEAR">     0</i>
    <i name="SIGMA">      0.01000000</i>
    <i name="KSPACING">      0.50000000</i>
    <i type="logical" name="KGAMMA"> T  </i>
   </separator>
   <separator name="electronic projectors" >
    <i type="logical" name="LREAL"> F  </i>
    <v name="ROPT">      0.00000000      0.00000000</v>
    <i type="int" name="LMAXPAW">  -100</i>
    <i type="int" name="LMAXMIX">     2</i>
    <i type="logical" name="NLSPLINE"> F  </i>
   </separator>
   <separator name="electronic startup" >
    <i type="int" name="ISTART">     0</i>
    <i type="int" name="ICHARG">     2</i>
    <i type="int" name="INIWAV">     1</i>
   </separator>
   <separator name="electronic spin" >
    <i type="int" name="ISPIN">     1</i>
    <i type="logical" name="LNONCOLLINEAR"> F  </i>
    <v name="MAGMOM">      1.00000000      1.00000000      1.00000000      1.00000000      1.00000000      1.00000000      1.00000000      1.00000000      1.00000000      1.00000000      1.00000000      1.00000000      1.00000000      1.00000000      1.00000000      1.00000000      1.00000000      1.00000000      1.00000000      1.00000000
      1.00000000      1.00000000      1.00000000      1.00000000      1.00000000      1.00000000      1.00000000</v>
    <i name="NUPDOWN">     -1.00000000</i>
    <i type="logical" name="LSORBIT"> F  </i>
    <v name="SAXIS">      0.00000000      0.00000000      1.00000000</v>
    <i type="logical" name="LSPIRAL"> F  </i>
    <v name="QSPIRAL">      0.00000000      0.00000000      0.00000000</v>
    <i type="logical" name="LZEROZ"> F  </i>
   </separator>
   <separator name="electronic exchange-correlation" >
    <i type="logical" name="LASPH"> F  </i>
    <i type="logical" name="LMETAGGA"> F  </i>
   </separator>
   <separator name="electronic convergence" >
    <i type="int" name="NELM">    60</i>
    <i type="int" name="NELMDL">    -5</i>
    <i type="int" name="NELMIN">     5</i>
    <i name="ENINI">    800.00000000</i>
    <separator name="electronic convergence detail" >
     <i type="logical" name="LDIAG"> T  </i>
     <i type="logical" name="LSUBROT"> F  </i>
     <i name="WEIMIN">      0.00000000</i>
     <i name="EBREAK">      0.00000000</i>
     <i name="DEPER">      0.30000000</i>
     <i type="int" name="NRMM">     4</i>
     <i name="TIME">      0.40000000</i>
    </separator>
   </separator>
   <separator name="electronic mixer" >
    <i name="AMIX">      0.40000000</i>
    <i name="BMIX">      1.00000000</i>
    <i name="AMIN">      0.01000000</i>
    <i name="AMIX_MAG">      1.60000000</i>
    <i name="BMIX_MAG">      1.00000000</i>
    <separator name="electronic mixer details" >
     <i type="int" name="IMIX">     4</i>
     <i type="logical" name="MIXFIRST"> F  </i>
     <i type="int" name="MAXMIX">   -45</i>
     <i name="WC">    100.00000000</i>
     <i type="int" name="INIMIX">     1</i>
     <i type="int" name="MIXPRE">     1</i>
     <i type="int" name="MREMOVE">     5</i>
    </separator>
   </separator>
   <separator name="electronic dipolcorrection" >
    <i type="logical" name="LDIPOL"> F  </i>
    <i type="logical" name="LMONO"> F  </i>
    <i type="int" name="IDIPOL">     0</i>
    <i name="EPSILON">      1.00000000</i>
    <v name="DIPOL">   -100.00000000   -100.00000000   -100.00000000</v>
    <i name="EFIELD">      0.00000000</i>
   </separator>
  </separator>
  <separator name="grids" >
   <i type="int" name="NGX">    96</i>
   <i type="int" name="NGY">    96</i>
   <i type="int" name="NGZ">   192</i>
   <i type="int" name="NGXF">   192</i>
   <i type="int" name="NGYF">   192</i>
   <i type="int" name="NGZF">   384</i>
   <i type="logical" name="ADDGRID"> T  </i>
  </separator>
  <separator name="ionic" >
   <i type="int" name="NSW">     0</i>
   <i type="int" name="IBRION">    -1</i>
   <i type="int" name="MDALGO">     0</i>
   <i type="int" name="ISIF">     2</i>
   <i name="PSTRESS">      0.00000000</i>
   <i name="EDIFFG">     -0.00000001</i>
   <i type="int" name="NFREE">     0</i>
   <i name="POTIM">      0.50000000</i>
   <i name="SMASS">     -3.00000000</i>
   <i name="SCALEE">      1.00000000</i>
  </separator>
  <separator name="ionic md" >
   <i name="TEBEG">      0.00010000</i>
   <i name="TEEND">      0.00010000</i>
   <i type="int" name="NBLOCK">     1</i>
   <i type="int" name="KBLOCK">     1</i>
   <i type="int" name="NPACO">   256</i>
   <i name="APACO">     16.00000000</i>
  </separator>
  <separator name="symmetry" >
   <i type="int" name="ISYM">     2</i>
   <i name="SYMPREC">      0.00010000</i>
  </separator>
  <separator name="dos" >
   <i type="int" name="LORBIT">     0</i>
   <v name="RWIGS">     -1.00000000     -1.00000000</v>
   <i type="int" name="NEDOS">   301</i>
   <i name="EMIN">     10.00000000</i>
   <i name="EMAX">    -10.00000000</i>
   <i name="EFERMI">      0.00000000</i>
  </separator>
  <separator name="writing" >
   <i type="int" name="NWRITE">     2</i>
   <i type="logical" name="LWAVE"> F  </i>
   <i type="logical" name="LDOWNSAMPLE"> F  </i>
   <i type="logical" name="LCHARG"> F  </i>
   <i type="logical" name="LPARD"> F  </i>
   <i type="logical" name="LVTOT"> F  </i>
   <i type="logical" name="LVHAR"> F  </i>
   <i type="logical" name="LELF"> F  </i>
   <i type="logical" name="LOPTICS"> F  </i>
   <v name="STM">      0.00000000      0.00000000      0.00000000      0.00000000      0.00000000      0.00000000      0.00000000</v>
  </separator>
  <separator name="performance" >
   <i type="int" name="NPAR">     6</i>
   <i type="int" name="NSIM">     4</i>
   <i type="int" name="NBLK">    -1</i>
   <i type="logical" name="LPLANE"> T  </i>
   <i type="logical" name="LSCALAPACK"> T  </i>
   <i type="logical" name="LSCAAWARE"> F  </i>
   <i type="logical" name="LSCALU"> F  </i>
   <i type="logical" name="LASYNC"> F  </i>
   <i type="logical" name="LORBITALREAL"> F  </i>
  </separator>
  <separator name="miscellaneous" >
   <i type="int" name="IDIOT">     3</i>
   <i type="int" name="ISPECIAL">     0</i>
   <i type="logical" name="LMUSIC"> F  </i>
   <v name="POMASS">    183.85000000     78.96000000</v>
   <v name="DARWINR">      0.00000000      0.00000000</v>
   <v name="DARWINV">      1.00000000      1.00000000</v>
   <i type="logical" name="LCORR"> T  </i>
  </separator>
  <i type="logical" name="GGA_COMPAT"> T  </i>
  <i type="logical" name="LBERRY"> F  </i>
  <i type="int" name="ICORELEVEL">     0</i>
  <i type="logical" name="LDAU"> F  </i>
  <i type="int" name="I_CONSTRAINED_M">     0</i>
  <separator name="electronic exchange-correlation" >
   <i type="string" name="GGA">--</i>
   <i type="int" name="VOSKOWN">     0</i>
   <i type="logical" name="LHFCALC"> F  </i>
   <i type="string" name="PRECFOCK"></i>
   <i type="logical" name="LSYMGRAD"> F  </i>
   <i type="logical" name="LHFONE"> F  </i>
   <i type="logical" name="LRHFCALC"> F  </i>
   <i type="logical" name="LTHOMAS"> F  </i>
   <i type="logical" name="LMODELHF"> F  </i>
   <i name="ENCUT4O">     -1.00000000</i>
   <i type="int" name="EXXOEP">     0</i>
   <i type="int" name="FOURORBIT">     0</i>
   <i name="AEXX">      0.00000000</i>
   <i name="HFALPHA">      0.00000000</i>
   <i name="MCALPHA">      0.00000000</i>
   <i name="ALDAX">      1.00000000</i>
   <i name="AGGAX">      1.00000000</i>
   <i name="ALDAC">      1.00000000</i>
   <i name="AGGAC">      1.00000000</i>
   <i type="int" name="NKREDX">     1</i>
   <i type="int" name="NKREDY">     1</i>
   <i type="int" name="NKREDZ">     1</i>
   <i type="logical" name="SHIFTRED"> F  </i>
   <i type="logical" name="ODDONLY"> F  </i>
   <i type="logical" name="EVENONLY"> F  </i>
   <i type="int" name="LMAXFOCK">     0</i>
   <i type="int" name="NMAXFOCKAE">     0</i>
   <i type="logical" name="LFOCKAEDFT"> F  </i>
   <i name="HFSCREEN">      0.00000000</i>
   <i name="HFSCREENC">      0.00000000</i>
   <i type="int" name="NBANDSGWLOW">     0</i>
  </separator>
  <separator name="vdW DFT" >
   <i type="logical" name="LUSE_VDW"> F  </i>
   <i name="Zab_VDW">     -0.84910000</i>
   <i name="PARAM1">      0.12340000</i>
   <i name="PARAM2">      1.00000000</i>
   <i name="PARAM3">      0.00000000</i>
  </separator>
  <separator name="model GW" >
   <i type="int" name="MODEL_GW">     0</i>
   <i name="MODEL_EPS0">     37.28982144</i>
   <i name="MODEL_ALPHA">      1.00000000</i>
  </separator>
  <separator name="linear response parameters" >
   <i type="logical" name="LEPSILON"> F  </i>
   <i type="logical" name="LRPA"> F  </i>
   <i type="logical" name="LNABLA"> F  </i>
   <i type="logical" name="LVEL"> F  </i>
   <i type="int" name="KINTER">     0</i>
   <i name="CSHIFT">      0.10000000</i>
   <i name="OMEGAMAX">     -1.00000000</i>
   <i name="DEG_THRESHOLD">      0.00200000</i>
   <i name="RTIME">     -0.10000000</i>
   <i name="WPLASMAI">      0.00000000</i>
   <v name="DFIELD">      0.00000000      0.00000000      0.00000000</v>
   <v name="WPLASMA">      0.00000000      0.00000000      0.00000000      0.00000000      0.00000000      0.00000000      0.00000000      0.00000000      0.00000000</v>
  </separator>
  <separator name="orbital magnetization" >
   <i type="logical" name="NUCIND"> F  </i>
   <v name="MAGPOS">      0.00000000      0.00000000      0.00000000</v>
   <i type="logical" name="LNICSALL"> T  </i>
   <i type="logical" name="ORBITALMAG"> F  </i>
   <i type="logical" name="LMAGBLOCH"> F  </i>
   <i type="logical" name="LCHIMAG"> F  </i>
   <i type="logical" name="LGAUGE"> T  </i>
   <i type="int" name="MAGATOM">     0</i>
   <v name="MAGDIPOL">      0.00000000      0.00000000      0.00000000</v>
   <v name="AVECCONST">      0.00000000      0.00000000      0.00000000</v>
  </separator>
  <separator name="response functions" >
   <i type="logical" name="LADDER"> F  </i>
   <i type="logical" name="LRPAFORCE"> F  </i>
   <i type="logical" name="LFXC"> F  </i>
   <i type="logical" name="LHARTREE"> T  </i>
   <i type="int" name="IBSE">     0</i>
   <v type="int" name="KPOINT">    -1     0     0     0</v>
   <i type="logical" name="LTCTE"> F  </i>
   <i type="logical" name="LTETE"> F  </i>
   <i type="logical" name="LTRIPLET"> F  </i>
   <i type="logical" name="LFXCEPS"> F  </i>
   <i type="logical" name="LFXHEG"> F  </i>
   <i type="int" name="NATURALO">     2</i>
   <i type="logical" name="L2ORDER"> F  </i>
   <i type="logical" name="LMP2LT"> F  </i>
   <i type="logical" name="LUSEW"> F  </i>
   <i name="ENCUTGW">     -2.00000000</i>
   <i name="ENCUTGWSOFT">     -2.00000000</i>
   <i name="ENCUTLF">     -1.00000000</i>
   <i type="int" name="LMAXMP2">    -1</i>
   <i name="SCISSOR">      0.00000000</i>
   <i type="int" name="NOMEGA">     0</i>
   <i type="int" name="NOMEGAR">     0</i>
   <i type="int" name="NBANDSGW">    -1</i>
   <i type="int" name="NBANDSO">    -1</i>
   <i type="int" name="NBANDSV">    -1</i>
   <i type="int" name="NELM">     1</i>
   <i type="int" name="NELMHF">     1</i>
   <i type="int" name="DIM">     3</i>
   <i type="int" name="ANTIRES">     0</i>
   <i name="OMEGAMAX">    -30.00000000</i>
   <i name="OMEGAMIN">    -30.00000000</i>
   <i name="OMEGATL">   -200.00000000</i>
   <i type="int" name="OMEGAGRID">   140</i>
   <i name="CSHIFT">     -0.10000000</i>
   <i type="logical" name="SELFENERGY"> F  </i>
   <i type="logical" name="LSPECTRAL"> F  </i>
   <i type="logical" name="LSPECTRALGW"> F  </i>
   <i type="logical" name="LSINGLES"> F  </i>
   <i type="logical" name="LFERMIGW"> F  </i>
   <i type="logical" name="ODDONLYGW"> F  </i>
   <i type="logical" name="EVENONLYGW"> F  </i>
   <i type="int" name="NKREDLFX">     1</i>
   <i type="int" name="NKREDLFY">     1</i>
   <i type="int" name="NKREDLFZ">     1</i>
   <i type="int" name="MAXMEM">  2800</i>
   <i type="int" name="TELESCOPE">     0</i>
   <i type="int" name="TAUPAR">     1</i>
   <i type="int" name="OMEGAPAR">    -1</i>
   <i name="LAMBDA">      1.00000000</i>
  </separator>
  <separator name="External order field" >
   <i name="OFIELD_KAPPA">      0.00000000</i>
   <v name="OFIELD_K">      0.00000000      0.00000000      0.00000000</v>
   <i name="OFIELD_Q6_NEAR">      0.00000000</i>
   <i name="OFIELD_Q6_FAR">      0.00000000</i>
   <i name="OFIELD_A">      0.00000000</i>
  </separator>
 </parameters>
 <atominfo>
  <atoms>      27 </atoms>
  <types>       2 </types>
  <array name="atoms" >
   <dimension dim="1">ion</dimension>
   <field type="string">element</field>
   <field type="int">atomtype</field>
   <set>
    <rc><c>W </c><c>   1</c></rc>
    <rc><c>W </c><c>   1</c></rc>
    <rc><c>W </c><c>   1</c></rc>
    <rc><c>W </c><c>   1</c></rc>
    <rc><c>W </c><c>   1</c></rc>
    <rc><c>W </c><c>   1</c></rc>
    <rc><c>W </c><c>   1</c></rc>
    <rc><c>W </c><c>   1</c></rc>
    <rc><c>W </c><c>   1</c></rc>
    <rc><c>Se</c><c>   2</c></rc>
    <rc><c>Se</c><c>   2</c></rc>
    <rc><c>Se</c><c>   2</c></rc>
    <rc><c>Se</c><c>   2</c></rc>
    <rc><c>Se</c><c>   2</c></rc>
    <rc><c>Se</c><c>   2</c></rc>
    <rc><c>Se</c><c>   2</c></rc>
    <rc><c>Se</c><c>   2</c></rc>
    <rc><c>Se</c><c>   2</c></rc>
    <rc><c>Se</c><c>   2</c></rc>
    <rc><c>Se</c><c>   2</c></rc>
    <rc><c>Se</c><c>   2</c></rc>
    <rc><c>Se</c><c>   2</c></rc>
    <rc><c>Se</c><c>   2</c></rc>
    <rc><c>Se</c><c>   2</c></rc>
    <rc><c>Se</c><c>   2</c></rc>
    <rc><c>Se</c><c>   2</c></rc>
    <rc><c>Se</c><c>   2</c></rc>
   </set>
  </array>
  <array name="atomtypes" >
   <dimension dim="1">type</dimension>
   <field type="int">atomspertype</field>
   <field type="string">element</field>
   <field>mass</field>
   <field>valence</field>
   <field type="string">pseudopotential</field>
   <set>
    <rc><c>   9</c><c>W </c><c>    183.85000000</c><c>      6.00000000</c><c> PAW_PBE W 08Apr2002                    </c></rc>
    <rc><c>  18</c><c>Se</c><c>     78.96000000</c><c>      6.00000000</c><c> PAW_PBE Se 06Sep2000                   </c></rc>
   </set>
  </array>
 </atominfo>
 <structure name="initialpos" >
  <crystal>
   <varray name="basis" >
    <v>       9.84600000       0.00000000       0.00000000 </v>
    <v>       4.92300000       8.52144000       0.00000000 </v>
    <v>       0.00000000       0.00000000      20.00000000 </v>
   </varray>
   <i name="volume">   1678.04196480 </i>
   <varray name="rec_basis" >
    <v>       0.10156409      -0.05867553       0.00000000 </v>
    <v>       0.00000000       0.11735106       0.00000000 </v>
    <v>       0.00000000       0.00000000       0.05000000 </v>
   </varray>
  </crystal>
  <varray name="positions" >
   <v>       0.33330000       0.00006700       0.00000000 </v>
   <v>       0.66663300       0.00006700       0.00000000 </v>
   <v>       0.99996700       0.00006700       0.00000000 </v>
   <v>       0.33330000       0.33340000       0.00000000 </v>
   <v>       0.66663300       0.33340000       0.00000000 </v>
   <v>       0.99996700       0.33340000       0.00000000 </v>
   <v>       0.33330000       0.66673300       0.00000000 </v>
   <v>       0.66663300       0.66673300       0.00000000 </v>
   <v>       0.99996700       0.66673300       0.00000000 </v>
   <v>       0.11109200       0.11114900       0.91495900 </v>
   <v>       0.44442600       0.11114900       0.91545900 </v>
   <v>       0.77775900       0.11114900       0.91545900 </v>
   <v>       0.11109200       0.44448200       0.91545900 </v>
   <v>       0.44442600       0.44448200       0.91545900 </v>
   <v>       0.77775900       0.44448200       0.91545900 </v>
   <v>       0.11109200       0.77781500       0.91545900 </v>
   <v>       0.44442600       0.77781500       0.91545900 </v>
   <v>       0.77775900       0.77781500       0.91545900 </v>
   <v>       0.11109200       0.11114900       0.08454100 </v>
   <v>       0.44442600       0.11114900       0.08454100 </v>
   <v>       0.77775900       0.11114900       0.08454100 </v>
   <v>       0.11109200       0.44448200       0.08454100 </v>
   <v>       0.44442600       0.44448200       0.08454100 </v>
   <v>       0.77775900       0.44448200       0.08454100 </v>
   <v>       0.11109200       0.77781500       0.08454100 </v>
   <v>       0.44442600       0.77781500       0.08454100 </v>
   <v>       0.77775900       0.77781500       0.08454100 </v>
  </varray>
 </structure>
 <calculation>
  <scstep>
   <time name="dav">  143.33  143.68</time>
   <time name="total">  143.75  144.12</time>
   <energy>
    <i name="alphaZ">    206.49012646 </i>
    <i name="ewald">  19419.40912006 </i>
    <i name="hartreedc"> -25369.88581050 </i>
    <i name="XCdc">   -439.18569508 </i>
    <i name="pawpsdc">   3546.74135395 </i>
    <i name="pawaedc">  -2766.52518036 </i>
    <i name="eentropy">     -0.00053098 </i>
    <i name="bandstr">    350.66911094 </i>
    <i name="atom">   6466.84281893 </i>
    <i name="e_fr_energy">   1414.55531342 </i>
    <i name="e_wo_entrp">   1414.55584440 </i>
    <i name="e_0_energy">   1414.55557891 </i>
   </energy>
  </scstep>
  <scstep>
   <time name="dav">  210.35  210.89</time>
   <time name="total">  210.35  210.89</time>
   <energy>
    <i name="e_fr_energy">     19.74325714 </i>
    <i name="e_wo_entrp">     19.74325714 </i>
    <i name="e_0_energy">     19.74325714 </i>
   </energy>
  </scstep>
  <scstep>
   <time name="dav">  162.49  162.91</time>
   <time name="total">  162.49  162.91</time>
   <energy>
    <i name="e_fr_energy">   -195.02805822 </i>
    <i name="e_wo_entrp">   -195.02805822 </i>
    <i name="e_0_energy">   -195.02805822 </i>
   </energy>
  </scstep>
  <scstep>
   <time name="dav">  177.82  178.27</time>
   <time name="total">  177.82  178.28</time>
   <energy>
    <i name="e_fr_energy">   -203.87009523 </i>
    <i name="e_wo_entrp">   -203.87009523 </i>
    <i name="e_0_energy">   -203.87009523 </i>
   </energy>
  </scstep>
  <scstep>
   <time name="dav">  198.31  198.81</time>
   <time name="total">  206.30  206.83</time>
   <energy>
    <i name="e_fr_energy">   -204.17400227 </i>
    <i name="e_wo_entrp">   -204.17400227 </i>
    <i name="e_0_energy">   -204.17400227 </i>
   </energy>
  </scstep>
  <scstep>
   <time name="dav">  190.66  191.12</time>
   <time name="total">  199.03  199.54</time>
   <energy>
    <i name="e_fr_energy">   -196.82582939 </i>
    <i name="e_wo_entrp">   -196.82582939 </i>
    <i name="e_0_energy">   -196.82582939 </i>
   </energy>
  </scstep>
  <scstep>
   <time name="dav">  185.02  185.47</time>
   <time name="total">  193.38  193.87</time>
   <energy>
    <i name="e_fr_energy">   -195.22212178 </i>
    <i name="e_wo_entrp">   -195.22212178 </i>
    <i name="e_0_energy">   -195.22212178 </i>
   </energy>
  </scstep>
  <scstep>
   <time name="dav">  164.24  164.64</time>
   <time name="total">  172.60  173.05</time>
   <energy>
    <i name="e_fr_energy">   -194.74673376 </i>
    <i name="e_wo_entrp">   -194.74673376 </i>
    <i name="e_0_energy">   -194.74673376 </i>
   </energy>
  </scstep>
  <scstep>
   <time name="dav">  191.72  192.19</time>
   <time name="total">  200.07  200.58</time>
   <energy>
    <i name="e_fr_energy">   -194.73081752 </i>
    <i name="e_wo_entrp">   -194.73081752 </i>
    <i name="e_0_energy">   -194.73081752 </i>
   </energy>
  </scstep>
  <scstep>
   <time name="dav">  187.94  188.40</time>
   <time name="total">  196.34  196.84</time>
   <energy>
    <i name="e_fr_energy">   -194.70317427 </i>
    <i name="e_wo_entrp">   -194.70317427 </i>
    <i name="e_0_energy">   -194.70317427 </i>
   </energy>
  </scstep>
  <scstep>
   <time name="dav">  188.21  188.67</time>
   <time name="total">  196.56  197.06</time>
   <energy>
    <i name="e_fr_energy">   -194.69698261 </i>
    <i name="e_wo_entrp">   -194.69698261 </i>
    <i name="e_0_energy">   -194.69698261 </i>
   </energy>
  </scstep>
  <scstep>
   <time name="dav">  192.88  193.35</time>
   <time name="total">  201.15  201.66</time>
   <energy>
    <i name="e_fr_energy">   -194.69234771 </i>
    <i name="e_wo_entrp">   -194.69234771 </i>
    <i name="e_0_energy">   -194.69234771 </i>
   </energy>
  </scstep>
  <scstep>
   <time name="dav">  168.24  168.65</time>
   <time name="total">  176.58  177.03</time>
   <energy>
    <i name="e_fr_energy">   -194.68122300 </i>
    <i name="e_wo_entrp">   -194.68122300 </i>
    <i name="e_0_energy">   -194.68122300 </i>
   </energy>
  </scstep>
  <scstep>
   <time name="dav">  174.89  175.32</time>
   <time name="total">  183.25  183.71</time>
   <energy>
    <i name="e_fr_energy">   -194.67871196 </i>
    <i name="e_wo_entrp">   -194.67871196 </i>
    <i name="e_0_energy">   -194.67871196 </i>
   </energy>
  </scstep>
  <scstep>
   <time name="dav">  168.41  168.82</time>
   <time name="total">  176.68  177.13</time>
   <energy>
    <i name="e_fr_energy">   -194.67478666 </i>
    <i name="e_wo_entrp">   -194.67478666 </i>
    <i name="e_0_energy">   -194.67478666 </i>
   </energy>
  </scstep>
  <scstep>
   <time name="dav">  169.73  170.15</time>
   <time name="total">  177.29  177.75</time>
   <energy>
    <i name="e_fr_energy">   -194.67522546 </i>
    <i name="e_wo_entrp">   -194.67522546 </i>
    <i name="e_0_energy">   -194.67522546 </i>
   </energy>
  </scstep>
  <scstep>
   <time name="dav">  175.43  175.86</time>
   <time name="total">  183.00  183.47</time>
   <energy>
    <i name="e_fr_energy">   -194.68146634 </i>
    <i name="e_wo_entrp">   -194.68146634 </i>
    <i name="e_0_energy">   -194.68146634 </i>
   </energy>
  </scstep>
  <scstep>
   <time name="dav">  174.28  174.70</time>
   <time name="total">  182.65  183.12</time>
   <energy>
    <i name="e_fr_energy">   -194.68659683 </i>
    <i name="e_wo_entrp">   -194.68659683 </i>
    <i name="e_0_energy">   -194.68659683 </i>
   </energy>
  </scstep>
  <scstep>
   <time name="dav">  179.32  179.76</time>
   <time name="total">  187.70  188.18</time>
   <energy>
    <i name="e_fr_energy">   -194.68876972 </i>
    <i name="e_wo_entrp">   -194.68876972 </i>
    <i name="e_0_energy">   -194.68876972 </i>
   </energy>
  </scstep>
  <scstep>
   <time name="dav">  174.66  175.09</time>
   <time name="total">  183.05  183.52</time>
   <energy>
    <i name="e_fr_energy">   -194.69019749 </i>
    <i name="e_wo_entrp">   -194.69019749 </i>
    <i name="e_0_energy">   -194.69019749 </i>
   </energy>
  </scstep>
  <scstep>
   <time name="dav">  173.40  173.82</time>
   <time name="total">  181.21  181.68</time>
   <energy>
    <i name="e_fr_energy">   -194.69082149 </i>
    <i name="e_wo_entrp">   -194.69082149 </i>
    <i name="e_0_energy">   -194.69082149 </i>
   </energy>
  </scstep>
  <scstep>
   <time name="dav">  174.28  174.71</time>
   <time name="total">  182.02  182.49</time>
   <energy>
    <i name="e_fr_energy">   -194.69100779 </i>
    <i name="e_wo_entrp">   -194.69100779 </i>
    <i name="e_0_energy">   -194.69100779 </i>
   </energy>
  </scstep>
  <scstep>
   <time name="dav">  171.96  172.38</time>
   <time name="total">  179.71  180.17</time>
   <energy>
    <i name="e_fr_energy">   -194.69105833 </i>
    <i name="e_wo_entrp">   -194.69105833 </i>
    <i name="e_0_energy">   -194.69105833 </i>
   </energy>
  </scstep>
  <scstep>
   <time name="dav">  175.17  175.60</time>
   <time name="total">  182.99  183.46</time>
   <energy>
    <i name="e_fr_energy">   -194.69108481 </i>
    <i name="e_wo_entrp">   -194.69108481 </i>
    <i name="e_0_energy">   -194.69108481 </i>
   </energy>
  </scstep>
  <scstep>
   <time name="dav">  173.67  174.10</time>
   <time name="total">  181.49  181.96</time>
   <energy>
    <i name="e_fr_energy">   -194.69108947 </i>
    <i name="e_wo_entrp">   -194.69108947 </i>
    <i name="e_0_energy">   -194.69108947 </i>
   </energy>
  </scstep>
  <scstep>
   <time name="dav">  167.48  167.88</time>
   <time name="total">  175.24  175.69</time>
   <energy>
    <i name="e_fr_energy">   -194.69109300 </i>
    <i name="e_wo_entrp">   -194.69109300 </i>
    <i name="e_0_energy">   -194.69109300 </i>
   </energy>
  </scstep>
  <scstep>
   <time name="dav">  164.34  164.74</time>
   <time name="total">  172.03  172.47</time>
   <energy>
    <i name="e_fr_energy">   -194.69109375 </i>
    <i name="e_wo_entrp">   -194.69109375 </i>
    <i name="e_0_energy">   -194.69109375 </i>
   </energy>
  </scstep>
  <scstep>
   <time name="dav">  148.20  148.56</time>
   <time name="total">  155.99  156.39</time>
   <energy>
    <i name="e_fr_energy">   -194.69109425 </i>
    <i name="e_wo_entrp">   -194.69109425 </i>
    <i name="e_0_energy">   -194.69109425 </i>
   </energy>
  </scstep>
  <scstep>
   <time name="dav">  147.96  148.32</time>
   <time name="total">  155.74  156.14</time>
   <energy>
    <i name="e_fr_energy">   -194.69109436 </i>
    <i name="e_wo_entrp">   -194.69109436 </i>
    <i name="e_0_energy">   -194.69109436 </i>
   </energy>
  </scstep>
  <scstep>
   <time name="dav">  132.59  132.91</time>
   <time name="total">  140.43  140.79</time>
   <energy>
    <i name="e_fr_energy">   -194.69109441 </i>
    <i name="e_wo_entrp">   -194.69109441 </i>
    <i name="e_0_energy">   -194.69109441 </i>
   </energy>
  </scstep>
  <scstep>
   <time name="dav">  131.73  132.05</time>
   <time name="total">  139.60  139.96</time>
   <energy>
    <i name="e_fr_energy">   -194.69109443 </i>
    <i name="e_wo_entrp">   -194.69109443 </i>
    <i name="e_0_energy">   -194.69109443 </i>
   </energy>
  </scstep>
  <scstep>
   <time name="dav">  131.66  131.98</time>
   <time name="total">  132.04  132.39</time>
   <energy>
    <i name="alphaZ">    206.49012646 </i>
    <i name="ewald">  19419.40912006 </i>
    <i name="hartreedc"> -25480.75743089 </i>
    <i name="XCdc">   -429.55149731 </i>
    <i name="pawpsdc">   4193.72581574 </i>
    <i name="pawaedc">  -3427.69278453 </i>
    <i name="eentropy">     -0.00000000 </i>
    <i name="bandstr">  -1143.15726290 </i>
    <i name="atom">   6466.84281893 </i>
    <i name="e_fr_energy">   -194.69109443 </i>
    <i name="e_wo_entrp">   -194.69109443 </i>
    <i name="e_0_energy">   -194.69109443 </i>
   </energy>
  </scstep>
  <structure>
   <crystal>
    <varray name="basis" >
     <v>       9.84600000       0.00000000       0.00000000 </v>
     <v>       4.92300000       8.52144000       0.00000000 </v>
     <v>       0.00000000       0.00000000      20.00000000 </v>
    </varray>
    <i name="volume">   1678.04196480 </i>
    <varray name="rec_basis" >
     <v>       0.10156409      -0.05867553       0.00000000 </v>
     <v>       0.00000000       0.11735106       0.00000000 </v>
     <v>       0.00000000       0.00000000       0.05000000 </v>
    </varray>
   </crystal>
   <varray name="positions" >
    <v>       0.33330000       0.00006700       0.00000000 </v>
    <v>       0.66663300       0.00006700       0.00000000 </v>
    <v>       0.99996700       0.00006700       0.00000000 </v>
    <v>       0.33330000       0.33340000       0.00000000 </v>
    <v>       0.66663300       0.33340000       0.00000000 </v>
    <v>       0.99996700       0.33340000       0.00000000 </v>
    <v>       0.33330000       0.66673300       0.00000000 </v>
    <v>       0.66663300       0.66673300       0.00000000 </v>
    <v>       0.99996700       0.66673300       0.00000000 </v>
    <v>       0.11109200       0.11114900       0.91495900 </v>
    <v>       0.44442600       0.11114900       0.91545900 </v>
    <v>       0.77775900       0.11114900       0.91545900 </v>
    <v>       0.11109200       0.44448200       0.91545900 </v>
    <v>       0.44442600       0.44448200       0.91545900 </v>
    <v>       0.77775900       0.44448200       0.91545900 </v>
    <v>       0.11109200       0.77781500       0.91545900 </v>
    <v>       0.44442600       0.77781500       0.91545900 </v>
    <v>       0.77775900       0.77781500       0.91545900 </v>
    <v>       0.11109200       0.11114900       0.08454100 </v>
    <v>       0.44442600       0.11114900       0.08454100 </v>
    <v>       0.77775900       0.11114900       0.08454100 </v>
    <v>       0.11109200       0.44448200       0.08454100 </v>
    <v>       0.44442600       0.44448200       0.08454100 </v>
    <v>       0.77775900       0.44448200       0.08454100 </v>
    <v>       0.11109200       0.77781500       0.08454100 </v>
    <v>       0.44442600       0.77781500       0.08454100 </v>
    <v>       0.77775900       0.77781500       0.08454100 </v>
   </varray>
  </structure>
  <varray name="forces" >
   <v>      -0.03168598       0.01823638      -0.04374417 </v>
   <v>       0.00000000      -0.00034453      -0.00107209 </v>
   <v>       0.03168598       0.01823638      -0.04374417 </v>
   <v>      -0.00132566      -0.00072925      -0.00241826 </v>
   <v>       0.00132566      -0.00072925      -0.00241826 </v>
   <v>       0.00000000      -0.03674305      -0.04381116 </v>
   <v>       0.00000000       0.00152715      -0.00241827 </v>
   <v>       0.00031492       0.00013283      -0.00106563 </v>
   <v>      -0.00031492       0.00013283      -0.00106563 </v>
   <v>       0.00000000       0.00006502       0.13807300 </v>
   <v>       0.00117772      -0.00006235       0.00328676 </v>
   <v>      -0.00117772      -0.00006235       0.00328676 </v>
   <v>       0.00059389       0.00106707       0.00328728 </v>
   <v>       0.00000000       0.00000780      -0.00019277 </v>
   <v>      -0.00059389       0.00106707       0.00328728 </v>
   <v>      -0.00059004      -0.00096823       0.00330013 </v>
   <v>       0.00059004      -0.00096823       0.00330013 </v>
   <v>       0.00000000       0.00004057      -0.00011447 </v>
   <v>       0.00000000      -0.00001681      -0.01419591 </v>
   <v>      -0.00163818      -0.00148238      -0.00058813 </v>
   <v>       0.00163818      -0.00148238      -0.00058813 </v>
   <v>      -0.00204685      -0.00066488      -0.00058115 </v>
   <v>       0.00000000       0.00000801       0.00102326 </v>
   <v>       0.00204685      -0.00066488      -0.00058115 </v>
   <v>      -0.00040653       0.00217802      -0.00059403 </v>
   <v>       0.00040653       0.00217802      -0.00059403 </v>
   <v>       0.00000000       0.00004142       0.00094280 </v>
  </varray>
  <varray name="stress" >
   <v>       7.81734979       0.00000000       0.00000000 </v>
   <v>       0.00000000       8.15664992      -0.00014911 </v>
   <v>       0.00000000      -0.00014912      -0.28780127 </v>
  </varray>
  <energy>
   <i name="e_fr_energy">   -194.69109443 </i>
   <i name="e_wo_entrp">   -194.69109443 </i>
   <i name="e_0_energy">     -0.00000000 </i>
  </energy>
  <time name="totalsc"> 5868.18 5883.28</time>
  <eigenvalues>
   <array>
    <dimension dim="1">band</dimension>
    <dimension dim="2">kpoint</dimension>
    <dimension dim="3">spin</dimension>
    <field>eigene</field>
    <field>occ</field>
    <set>
     <set comment="spin 1">
      <set comment="kpoint 1">
       <r>  -16.5454    1.0000 </r>
       <r>  -15.3657    1.0000 </r>
       <r>  -15.1759    1.0000 </r>
       <r>  -15.1758    1.0000 </r>
       <r>  -15.1758    1.0000 </r>
       <r>  -15.1749    1.0000 </r>
       <r>  -15.1741    1.0000 </r>
       <r>  -15.1656    1.0000 </r>
       <r>  -14.6254    1.0000 </r>
       <r>  -14.6253    1.0000 </r>
       <r>  -14.6252    1.0000 </r>
       <r>  -14.6243    1.0000 </r>
       <r>  -14.6234    1.0000 </r>
       <r>  -14.6205    1.0000 </r>
       <r>  -14.2397    1.0000 </r>
       <r>  -14.2363    1.0000 </r>
       <r>  -14.1196    1.0000 </r>
       <r>  -14.1175    1.0000 </r>
       <r>   -8.0034    1.0000 </r>
       <r>   -7.2247    1.0000 </r>
       <r>   -7.2237    1.0000 </r>
       <r>   -7.2228    1.0000 </r>
       <r>   -7.2198    1.0000 </r>
       <r>   -7.2191    1.0000 </r>
       <r>   -7.2182    1.0000 </r>
       <r>   -7.1635    1.0000 </r>
       <r>   -7.1635    1.0000 </r>
       <r>   -7.0453    1.0000 </r>
       <r>   -7.0453    1.0000 </r>
       <r>   -6.2057    1.0000 </r>
       <r>   -6.2051    1.0000 </r>
       <r>   -6.2036    1.0000 </r>
       <r>   -6.2034    1.0000 </r>
       <r>   -6.2023    1.0000 </r>
       <r>   -6.1988    1.0000 </r>
       <r>   -6.1608    1.0000 </r>
       <r>   -6.1608    1.0000 </r>
       <r>   -6.1575    1.0000 </r>
       <r>   -6.1569    1.0000 </r>
       <r>   -6.1564    1.0000 </r>
       <r>   -6.1549    1.0000 </r>
       <r>   -6.1543    1.0000 </r>
       <r>   -6.1536    1.0000 </r>
       <r>   -5.5011    1.0000 </r>
       <r>   -5.4989    1.0000 </r>
       <r>   -5.1225    1.0000 </r>
       <r>   -5.1225    1.0000 </r>
       <r>   -4.3728    1.0000 </r>
       <r>   -4.3700    1.0000 </r>
       <r>   -4.3662    1.0000 </r>
       <r>   -4.3660    1.0000 </r>
       <r>   -4.3626    1.0000 </r>
       <r>   -4.3599    1.0000 </r>
       <r>   -4.1781    1.0000 </r>
       <r>   -4.1765    1.0000 </r>
       <r>   -4.0511    1.0000 </r>
       <r>   -4.0429    1.0000 </r>
       <r>   -4.0357    1.0000 </r>
       <r>   -3.7969    1.0000 </r>
       <r>   -3.7914    1.0000 </r>
       <r>   -3.7902    1.0000 </r>
       <r>   -3.7902    1.0000 </r>
       <r>   -3.7901    1.0000 </r>
       <r>   -3.7885    1.0000 </r>
       <r>   -3.0445    1.0000 </r>
       <r>   -3.0420    1.0000 </r>
       <r>   -3.0416    1.0000 </r>
       <r>   -3.0407    1.0000 </r>
       <r>   -3.0401    1.0000 </r>
       <r>   -3.0389    1.0000 </r>
       <r>   -2.9133    1.0000 </r>
       <r>   -2.9084    1.0000 </r>
       <r>   -2.9047    1.0000 </r>
       <r>   -2.9021    1.0000 </r>
       <r>   -2.8988    1.0000 </r>
       <r>   -2.8988    1.0000 </r>
       <r>   -2.8948    1.0000 </r>
       <r>   -2.8921    1.0000 </r>
       <r>   -2.2372    1.0000 </r>
       <r>   -1.7741    1.0000 </r>
       <r>   -1.7741    1.0000 </r>
       <r>   -0.0847    0.0000 </r>
       <r>   -0.0847    0.0000 </r>
       <r>    0.3215    0.0000 </r>
       <r>    0.3217    0.0000 </r>
       <r>    0.3221    0.0000 </r>
       <r>    0.3252    0.0000 </r>
       <r>    0.3255    0.0000 </r>
       <r>    0.3259    0.0000 </r>
       <r>    0.5356    0.0000 </r>
       <r>    0.5380    0.0000 </r>
       <r>    0.5380    0.0000 </r>
       <r>    0.5398    0.0000 </r>
       <r>    0.5408    0.0000 </r>
       <r>    0.5410    0.0000 </r>
       <r>    0.9488    0.0000 </r>
       <r>    0.9488    0.0000 </r>
       <r>    1.2287    0.0000 </r>
       <r>    1.2323    0.0000 </r>
       <r>    1.3708    0.0000 </r>
       <r>    1.3937    0.0000 </r>
       <r>    1.4519    0.0000 </r>
      </set>
      <set comment="kpoint 2">
       <r>  -16.5416    1.0000 </r>
       <r>  -15.3636    1.0000 </r>
       <r>  -15.2736    1.0000 </r>
       <r>  -15.2226    1.0000 </r>
       <r>  -15.2190    1.0000 </r>
       <r>  -15.1245    1.0000 </r>
       <r>  -15.1208    1.0000 </r>
       <r>  -15.0772    1.0000 </r>
       <r>  -14.6762    1.0000 </r>
       <r>  -14.6493    1.0000 </r>
       <r>  -14.6471    1.0000 </r>
       <r>  -14.5987    1.0000 </r>
       <r>  -14.5962    1.0000 </r>
       <r>  -14.5748    1.0000 </r>
       <r>  -14.2431    1.0000 </r>
       <r>  -14.2397    1.0000 </r>
       <r>  -14.1216    1.0000 </r>
       <r>  -14.1194    1.0000 </r>
       <r>   -7.9984    1.0000 </r>
       <r>   -7.3552    1.0000 </r>
       <r>   -7.2855    1.0000 </r>
       <r>   -7.2842    1.0000 </r>
       <r>   -7.1601    1.0000 </r>
       <r>   -7.1596    1.0000 </r>
       <r>   -7.1553    1.0000 </r>
       <r>   -7.1539    1.0000 </r>
       <r>   -7.0982    1.0000 </r>
       <r>   -7.0635    1.0000 </r>
       <r>   -7.0632    1.0000 </r>
       <r>   -6.2849    1.0000 </r>
       <r>   -6.2443    1.0000 </r>
       <r>   -6.2253    1.0000 </r>
       <r>   -6.2233    1.0000 </r>
       <r>   -6.2204    1.0000 </r>
       <r>   -6.2196    1.0000 </r>
       <r>   -6.1793    1.0000 </r>
       <r>   -6.1770    1.0000 </r>
       <r>   -6.1562    1.0000 </r>
       <r>   -6.1362    1.0000 </r>
       <r>   -6.1360    1.0000 </r>
       <r>   -6.0889    1.0000 </r>
       <r>   -6.0876    1.0000 </r>
       <r>   -6.0213    1.0000 </r>
       <r>   -5.4986    1.0000 </r>
       <r>   -5.4964    1.0000 </r>
       <r>   -5.1246    1.0000 </r>
       <r>   -5.1243    1.0000 </r>
       <r>   -4.4244    1.0000 </r>
       <r>   -4.4194    1.0000 </r>
       <r>   -4.4126    1.0000 </r>
       <r>   -4.3591    1.0000 </r>
       <r>   -4.3524    1.0000 </r>
       <r>   -4.2988    1.0000 </r>
       <r>   -4.1725    1.0000 </r>
       <r>   -4.1709    1.0000 </r>
       <r>   -4.0595    1.0000 </r>
       <r>   -4.0538    1.0000 </r>
       <r>   -4.0333    1.0000 </r>
       <r>   -3.8323    1.0000 </r>
       <r>   -3.7999    1.0000 </r>
       <r>   -3.7973    1.0000 </r>
       <r>   -3.7542    1.0000 </r>
       <r>   -3.7518    1.0000 </r>
       <r>   -3.7454    1.0000 </r>
       <r>   -3.0927    1.0000 </r>
       <r>   -3.0909    1.0000 </r>
       <r>   -3.0850    1.0000 </r>
       <r>   -3.0833    1.0000 </r>
       <r>   -3.0522    1.0000 </r>
       <r>   -3.0159    1.0000 </r>
       <r>   -2.9581    1.0000 </r>
       <r>   -2.9167    1.0000 </r>
       <r>   -2.9096    1.0000 </r>
       <r>   -2.8846    1.0000 </r>
       <r>   -2.8812    1.0000 </r>
       <r>   -2.8418    1.0000 </r>
       <r>   -2.8385    1.0000 </r>
       <r>   -2.8333    1.0000 </r>
       <r>   -2.2377    1.0000 </r>
       <r>   -1.7844    1.0000 </r>
       <r>   -1.7841    1.0000 </r>
       <r>   -0.0722    0.0000 </r>
       <r>   -0.0716    0.0000 </r>
       <r>    0.2604    0.0000 </r>
       <r>    0.2766    0.0000 </r>
       <r>    0.2777    0.0000 </r>
       <r>    0.3392    0.0000 </r>
       <r>    0.3404    0.0000 </r>
       <r>    0.3925    0.0000 </r>
       <r>    0.5421    0.0000 </r>
       <r>    0.5446    0.0000 </r>
       <r>    0.5488    0.0000 </r>
       <r>    0.5526    0.0000 </r>
       <r>    0.5550    0.0000 </r>
       <r>    0.5563    0.0000 </r>
       <r>    0.9538    0.0000 </r>
       <r>    0.9538    0.0000 </r>
       <r>    1.2176    0.0000 </r>
       <r>    1.2385    0.0000 </r>
       <r>    1.3461    0.0000 </r>
       <r>    1.3703    0.0000 </r>
       <r>    1.3927    0.0000 </r>
      </set>
      <set comment="kpoint 3">
       <r>  -16.5302    1.0000 </r>
       <r>  -15.3739    1.0000 </r>
       <r>  -15.3572    1.0000 </r>
       <r>  -15.2662    1.0000 </r>
       <r>  -15.2627    1.0000 </r>
       <r>  -15.0709    1.0000 </r>
       <r>  -15.0671    1.0000 </r>
       <r>  -14.9841    1.0000 </r>
       <r>  -14.7287    1.0000 </r>
       <r>  -14.6717    1.0000 </r>
       <r>  -14.6696    1.0000 </r>
       <r>  -14.5708    1.0000 </r>
       <r>  -14.5683    1.0000 </r>
       <r>  -14.5273    1.0000 </r>
       <r>  -14.2531    1.0000 </r>
       <r>  -14.2497    1.0000 </r>
       <r>  -14.1274    1.0000 </r>
       <r>  -14.1252    1.0000 </r>
       <r>   -7.9834    1.0000 </r>
       <r>   -7.4891    1.0000 </r>
       <r>   -7.3454    1.0000 </r>
       <r>   -7.3442    1.0000 </r>
       <r>   -7.1474    1.0000 </r>
       <r>   -7.1468    1.0000 </r>
       <r>   -7.1116    1.0000 </r>
       <r>   -7.1111    1.0000 </r>
       <r>   -7.0888    1.0000 </r>
       <r>   -7.0874    1.0000 </r>
       <r>   -7.0002    1.0000 </r>
       <r>   -6.4061    1.0000 </r>
       <r>   -6.2835    1.0000 </r>
       <r>   -6.2828    1.0000 </r>
       <r>   -6.2620    1.0000 </r>
       <r>   -6.2422    1.0000 </r>
       <r>   -6.2400    1.0000 </r>
       <r>   -6.1516    1.0000 </r>
       <r>   -6.1492    1.0000 </r>
       <r>   -6.1104    1.0000 </r>
       <r>   -6.0712    1.0000 </r>
       <r>   -6.0709    1.0000 </r>
       <r>   -6.0189    1.0000 </r>
       <r>   -6.0175    1.0000 </r>
       <r>   -5.8823    1.0000 </r>
       <r>   -5.4896    1.0000 </r>
       <r>   -5.4874    1.0000 </r>
       <r>   -5.1303    1.0000 </r>
       <r>   -5.1295    1.0000 </r>
       <r>   -4.4940    1.0000 </r>
       <r>   -4.4874    1.0000 </r>
       <r>   -4.4787    1.0000 </r>
       <r>   -4.3845    1.0000 </r>
       <r>   -4.3786    1.0000 </r>
       <r>   -4.2289    1.0000 </r>
       <r>   -4.1562    1.0000 </r>
       <r>   -4.1545    1.0000 </r>
       <r>   -4.0896    1.0000 </r>
       <r>   -4.0841    1.0000 </r>
       <r>   -4.0222    1.0000 </r>
       <r>   -3.8672    1.0000 </r>
       <r>   -3.7876    1.0000 </r>
       <r>   -3.7853    1.0000 </r>
       <r>   -3.6942    1.0000 </r>
       <r>   -3.6859    1.0000 </r>
       <r>   -3.6843    1.0000 </r>
       <r>   -3.1796    1.0000 </r>
       <r>   -3.1789    1.0000 </r>
       <r>   -3.1762    1.0000 </r>
       <r>   -3.1740    1.0000 </r>
       <r>   -3.0468    1.0000 </r>
       <r>   -3.0240    1.0000 </r>
       <r>   -2.9747    1.0000 </r>
       <r>   -2.9368    1.0000 </r>
       <r>   -2.9065    1.0000 </r>
       <r>   -2.8297    1.0000 </r>
       <r>   -2.8276    1.0000 </r>
       <r>   -2.7911    1.0000 </r>
       <r>   -2.7563    1.0000 </r>
       <r>   -2.7514    1.0000 </r>
       <r>   -2.2392    1.0000 </r>
       <r>   -1.8135    1.0000 </r>
       <r>   -1.8131    1.0000 </r>
       <r>   -0.0358    0.0000 </r>
       <r>   -0.0348    0.0000 </r>
       <r>    0.2051    0.0000 </r>
       <r>    0.2148    0.0000 </r>
       <r>    0.2160    0.0000 </r>
       <r>    0.3271    0.0000 </r>
       <r>    0.3292    0.0000 </r>
       <r>    0.4663    0.0000 </r>
       <r>    0.5530    0.0000 </r>
       <r>    0.5552    0.0000 </r>
       <r>    0.5740    0.0000 </r>
       <r>    0.5779    0.0000 </r>
       <r>    0.6009    0.0000 </r>
       <r>    0.6018    0.0000 </r>
       <r>    0.9687    0.0000 </r>
       <r>    0.9689    0.0000 </r>
       <r>    1.1837    0.0000 </r>
       <r>    1.2607    0.0000 </r>
       <r>    1.2822    0.0000 </r>
       <r>    1.2896    0.0000 </r>
       <r>    1.3405    0.0000 </r>
      </set>
      <set comment="kpoint 4">
       <r>  -16.5114    1.0000 </r>
       <r>  -15.4742    1.0000 </r>
       <r>  -15.3468    1.0000 </r>
       <r>  -15.3058    1.0000 </r>
       <r>  -15.3023    1.0000 </r>
       <r>  -15.0148    1.0000 </r>
       <r>  -15.0110    1.0000 </r>
       <r>  -14.8959    1.0000 </r>
       <r>  -14.7817    1.0000 </r>
       <r>  -14.6920    1.0000 </r>
       <r>  -14.6901    1.0000 </r>
       <r>  -14.5416    1.0000 </r>
       <r>  -14.5390    1.0000 </r>
       <r>  -14.4829    1.0000 </r>
       <r>  -14.2698    1.0000 </r>
       <r>  -14.2663    1.0000 </r>
       <r>  -14.1370    1.0000 </r>
       <r>  -14.1347    1.0000 </r>
       <r>   -7.9586    1.0000 </r>
       <r>   -7.6180    1.0000 </r>
       <r>   -7.4002    1.0000 </r>
       <r>   -7.3991    1.0000 </r>
       <r>   -7.1769    1.0000 </r>
       <r>   -7.1762    1.0000 </r>
       <r>   -7.1271    1.0000 </r>
       <r>   -7.1262    1.0000 </r>
       <r>   -7.0231    1.0000 </r>
       <r>   -7.0218    1.0000 </r>
       <r>   -6.9486    1.0000 </r>
       <r>   -6.5182    1.0000 </r>
       <r>   -6.3443    1.0000 </r>
       <r>   -6.3437    1.0000 </r>
       <r>   -6.2555    1.0000 </r>
       <r>   -6.2533    1.0000 </r>
       <r>   -6.2360    1.0000 </r>
       <r>   -6.1211    1.0000 </r>
       <r>   -6.1187    1.0000 </r>
       <r>   -6.0702    1.0000 </r>
       <r>   -5.9842    1.0000 </r>
       <r>   -5.9837    1.0000 </r>
       <r>   -5.9463    1.0000 </r>
       <r>   -5.9447    1.0000 </r>
       <r>   -5.7409    1.0000 </r>
       <r>   -5.4683    1.0000 </r>
       <r>   -5.4663    1.0000 </r>
       <r>   -5.1383    1.0000 </r>
       <r>   -5.1371    1.0000 </r>
       <r>   -4.5810    1.0000 </r>
       <r>   -4.5748    1.0000 </r>
       <r>   -4.5280    1.0000 </r>
       <r>   -4.4376    1.0000 </r>
       <r>   -4.4324    1.0000 </r>
       <r>   -4.1545    1.0000 </r>
       <r>   -4.1487    1.0000 </r>
       <r>   -4.1305    1.0000 </r>
       <r>   -4.1286    1.0000 </r>
       <r>   -4.1236    1.0000 </r>
       <r>   -4.0034    1.0000 </r>
       <r>   -3.8972    1.0000 </r>
       <r>   -3.7680    1.0000 </r>
       <r>   -3.7659    1.0000 </r>
       <r>   -3.6363    1.0000 </r>
       <r>   -3.5989    1.0000 </r>
       <r>   -3.5973    1.0000 </r>
       <r>   -3.2826    1.0000 </r>
       <r>   -3.2819    1.0000 </r>
       <r>   -3.2764    1.0000 </r>
       <r>   -3.2732    1.0000 </r>
       <r>   -3.0939    1.0000 </r>
       <r>   -3.0271    1.0000 </r>
       <r>   -2.9704    1.0000 </r>
       <r>   -2.9205    1.0000 </r>
       <r>   -2.9027    1.0000 </r>
       <r>   -2.7748    1.0000 </r>
       <r>   -2.7732    1.0000 </r>
       <r>   -2.7471    1.0000 </r>
       <r>   -2.6767    1.0000 </r>
       <r>   -2.6722    1.0000 </r>
       <r>   -2.2422    1.0000 </r>
       <r>   -1.8579    1.0000 </r>
       <r>   -1.8572    1.0000 </r>
       <r>    0.0196    0.0000 </r>
       <r>    0.0210    0.0000 </r>
       <r>    0.1488    0.0000 </r>
       <r>    0.1497    0.0000 </r>
       <r>    0.1594    0.0000 </r>
       <r>    0.3062    0.0000 </r>
       <r>    0.3088    0.0000 </r>
       <r>    0.5436    0.0000 </r>
       <r>    0.5694    0.0000 </r>
       <r>    0.5735    0.0000 </r>
       <r>    0.6008    0.0000 </r>
       <r>    0.6045    0.0000 </r>
       <r>    0.6593    0.0000 </r>
       <r>    0.6613    0.0000 </r>
       <r>    0.9933    0.0000 </r>
       <r>    0.9936    0.0000 </r>
       <r>    1.1316    0.0000 </r>
       <r>    1.1822    0.0000 </r>
       <r>    1.1989    0.0000 </r>
       <r>    1.2678    0.0000 </r>
       <r>    1.2788    0.0000 </r>
      </set>
      <set comment="kpoint 5">
       <r>  -16.4852    1.0000 </r>
       <r>  -15.5737    1.0000 </r>
       <r>  -15.3411    1.0000 </r>
       <r>  -15.3378    1.0000 </r>
       <r>  -15.3321    1.0000 </r>
       <r>  -14.9567    1.0000 </r>
       <r>  -14.9528    1.0000 </r>
       <r>  -14.8347    1.0000 </r>
       <r>  -14.8141    1.0000 </r>
       <r>  -14.7100    1.0000 </r>
       <r>  -14.7082    1.0000 </r>
       <r>  -14.5112    1.0000 </r>
       <r>  -14.5085    1.0000 </r>
       <r>  -14.4421    1.0000 </r>
       <r>  -14.2928    1.0000 </r>
       <r>  -14.2893    1.0000 </r>
       <r>  -14.1501    1.0000 </r>
       <r>  -14.1478    1.0000 </r>
       <r>   -7.9242    1.0000 </r>
       <r>   -7.7380    1.0000 </r>
       <r>   -7.4489    1.0000 </r>
       <r>   -7.4480    1.0000 </r>
       <r>   -7.2482    1.0000 </r>
       <r>   -7.2474    1.0000 </r>
       <r>   -7.0993    1.0000 </r>
       <r>   -7.0982    1.0000 </r>
       <r>   -6.9606    1.0000 </r>
       <r>   -6.9594    1.0000 </r>
       <r>   -6.9525    1.0000 </r>
       <r>   -6.6198    1.0000 </r>
       <r>   -6.4039    1.0000 </r>
       <r>   -6.4033    1.0000 </r>
       <r>   -6.2647    1.0000 </r>
       <r>   -6.2622    1.0000 </r>
       <r>   -6.1557    1.0000 </r>
       <r>   -6.0883    1.0000 </r>
       <r>   -6.0859    1.0000 </r>
       <r>   -6.0373    1.0000 </r>
       <r>   -5.8977    1.0000 </r>
       <r>   -5.8969    1.0000 </r>
       <r>   -5.8711    1.0000 </r>
       <r>   -5.8694    1.0000 </r>
       <r>   -5.5987    1.0000 </r>
       <r>   -5.4239    1.0000 </r>
       <r>   -5.4221    1.0000 </r>
       <r>   -5.1470    1.0000 </r>
       <r>   -5.1456    1.0000 </r>
       <r>   -4.6717    1.0000 </r>
       <r>   -4.6659    1.0000 </r>
       <r>   -4.5714    1.0000 </r>
       <r>   -4.5082    1.0000 </r>
       <r>   -4.5036    1.0000 </r>
       <r>   -4.2291    1.0000 </r>
       <r>   -4.1770    1.0000 </r>
       <r>   -4.0965    1.0000 </r>
       <r>   -4.0946    1.0000 </r>
       <r>   -4.0761    1.0000 </r>
       <r>   -3.9772    1.0000 </r>
       <r>   -3.9226    1.0000 </r>
       <r>   -3.7493    1.0000 </r>
       <r>   -3.7474    1.0000 </r>
       <r>   -3.5730    1.0000 </r>
       <r>   -3.5034    1.0000 </r>
       <r>   -3.5018    1.0000 </r>
       <r>   -3.3996    1.0000 </r>
       <r>   -3.3986    1.0000 </r>
       <r>   -3.3749    1.0000 </r>
       <r>   -3.3714    1.0000 </r>
       <r>   -3.1670    1.0000 </r>
       <r>   -3.0162    1.0000 </r>
       <r>   -2.9960    1.0000 </r>
       <r>   -2.9013    1.0000 </r>
       <r>   -2.8558    1.0000 </r>
       <r>   -2.7252    1.0000 </r>
       <r>   -2.7239    1.0000 </r>
       <r>   -2.7092    1.0000 </r>
       <r>   -2.6046    1.0000 </r>
       <r>   -2.6006    1.0000 </r>
       <r>   -2.2473    1.0000 </r>
       <r>   -1.9126    1.0000 </r>
       <r>   -1.9117    1.0000 </r>
       <r>    0.0838    0.0000 </r>
       <r>    0.0848    0.0000 </r>
       <r>    0.0878    0.0000 </r>
       <r>    0.0895    0.0000 </r>
       <r>    0.1243    0.0000 </r>
       <r>    0.2894    0.0000 </r>
       <r>    0.2921    0.0000 </r>
       <r>    0.5885    0.0000 </r>
       <r>    0.6003    0.0000 </r>
       <r>    0.6226    0.0000 </r>
       <r>    0.6254    0.0000 </r>
       <r>    0.6283    0.0000 </r>
       <r>    0.7204    0.0000 </r>
       <r>    0.7234    0.0000 </r>
       <r>    1.0268    0.0000 </r>
       <r>    1.0274    0.0000 </r>
       <r>    1.0632    0.0000 </r>
       <r>    1.0679    0.0000 </r>
       <r>    1.1037    0.0000 </r>
       <r>    1.1816    0.0000 </r>
       <r>    1.1823    0.0000 </r>
      </set>
      <set comment="kpoint 6">
       <r>  -16.4516    1.0000 </r>
       <r>  -15.6714    1.0000 </r>
       <r>  -15.3717    1.0000 </r>
       <r>  -15.3684    1.0000 </r>
       <r>  -15.3136    1.0000 </r>
       <r>  -14.8971    1.0000 </r>
       <r>  -14.8935    1.0000 </r>
       <r>  -14.8868    1.0000 </r>
       <r>  -14.7404    1.0000 </r>
       <r>  -14.7257    1.0000 </r>
       <r>  -14.7239    1.0000 </r>
       <r>  -14.4799    1.0000 </r>
       <r>  -14.4772    1.0000 </r>
       <r>  -14.4057    1.0000 </r>
       <r>  -14.3219    1.0000 </r>
       <r>  -14.3182    1.0000 </r>
       <r>  -14.1667    1.0000 </r>
       <r>  -14.1642    1.0000 </r>
       <r>   -7.8802    1.0000 </r>
       <r>   -7.8462    1.0000 </r>
       <r>   -7.4905    1.0000 </r>
       <r>   -7.4898    1.0000 </r>
       <r>   -7.3185    1.0000 </r>
       <r>   -7.3177    1.0000 </r>
       <r>   -7.0646    1.0000 </r>
       <r>   -7.0632    1.0000 </r>
       <r>   -7.0019    1.0000 </r>
       <r>   -6.9029    1.0000 </r>
       <r>   -6.9013    1.0000 </r>
       <r>   -6.7094    1.0000 </r>
       <r>   -6.4629    1.0000 </r>
       <r>   -6.4621    1.0000 </r>
       <r>   -6.2697    1.0000 </r>
       <r>   -6.2669    1.0000 </r>
       <r>   -6.0537    1.0000 </r>
       <r>   -6.0514    1.0000 </r>
       <r>   -6.0321    1.0000 </r>
       <r>   -6.0117    1.0000 </r>
       <r>   -5.8336    1.0000 </r>
       <r>   -5.8323    1.0000 </r>
       <r>   -5.7940    1.0000 </r>
       <r>   -5.7922    1.0000 </r>
       <r>   -5.4574    1.0000 </r>
       <r>   -5.3426    1.0000 </r>
       <r>   -5.3413    1.0000 </r>
       <r>   -5.1547    1.0000 </r>
       <r>   -5.1529    1.0000 </r>
       <r>   -4.7603    1.0000 </r>
       <r>   -4.7549    1.0000 </r>
       <r>   -4.6089    1.0000 </r>
       <r>   -4.5889    1.0000 </r>
       <r>   -4.5848    1.0000 </r>
       <r>   -4.3290    1.0000 </r>
       <r>   -4.2417    1.0000 </r>
       <r>   -4.0566    1.0000 </r>
       <r>   -4.0547    1.0000 </r>
       <r>   -3.9942    1.0000 </r>
       <r>   -3.9438    1.0000 </r>
       <r>   -3.9436    1.0000 </r>
       <r>   -3.7363    1.0000 </r>
       <r>   -3.7345    1.0000 </r>
       <r>   -3.5299    1.0000 </r>
       <r>   -3.5289    1.0000 </r>
       <r>   -3.5046    1.0000 </r>
       <r>   -3.4677    1.0000 </r>
       <r>   -3.4641    1.0000 </r>
       <r>   -3.4077    1.0000 </r>
       <r>   -3.4061    1.0000 </r>
       <r>   -3.2422    1.0000 </r>
       <r>   -3.0726    1.0000 </r>
       <r>   -2.9570    1.0000 </r>
       <r>   -2.9051    1.0000 </r>
       <r>   -2.7838    1.0000 </r>
       <r>   -2.6821    1.0000 </r>
       <r>   -2.6808    1.0000 </r>
       <r>   -2.6774    1.0000 </r>
       <r>   -2.5410    1.0000 </r>
       <r>   -2.5374    1.0000 </r>
       <r>   -2.2554    1.0000 </r>
       <r>   -1.9730    1.0000 </r>
       <r>   -1.9720    1.0000 </r>
       <r>    0.0232    0.0000 </r>
       <r>    0.0244    0.0000 </r>
       <r>    0.1022    0.0000 </r>
       <r>    0.1613    0.0000 </r>
       <r>    0.1632    0.0000 </r>
       <r>    0.2826    0.0000 </r>
       <r>    0.2854    0.0000 </r>
       <r>    0.6097    0.0000 </r>
       <r>    0.6349    0.0000 </r>
       <r>    0.6441    0.0000 </r>
       <r>    0.6475    0.0000 </r>
       <r>    0.7039    0.0000 </r>
       <r>    0.7798    0.0000 </r>
       <r>    0.7836    0.0000 </r>
       <r>    0.9347    0.0000 </r>
       <r>    0.9977    0.0000 </r>
       <r>    1.0235    0.0000 </r>
       <r>    1.0692    0.0000 </r>
       <r>    1.0697    0.0000 </r>
       <r>    1.0952    0.0000 </r>
       <r>    1.0956    0.0000 </r>
      </set>
      <set comment="kpoint 7">
       <r>  -16.4109    1.0000 </r>
       <r>  -15.7665    1.0000 </r>
       <r>  -15.3976    1.0000 </r>
       <r>  -15.3943    1.0000 </r>
       <r>  -15.2911    1.0000 </r>
       <r>  -14.9382    1.0000 </r>
       <r>  -14.8367    1.0000 </r>
       <r>  -14.8328    1.0000 </r>
       <r>  -14.7388    1.0000 </r>
       <r>  -14.7373    1.0000 </r>
       <r>  -14.6759    1.0000 </r>
       <r>  -14.4480    1.0000 </r>
       <r>  -14.4452    1.0000 </r>
       <r>  -14.3744    1.0000 </r>
       <r>  -14.3566    1.0000 </r>
       <r>  -14.3528    1.0000 </r>
       <r>  -14.1863    1.0000 </r>
       <r>  -14.1838    1.0000 </r>
       <r>   -7.9402    1.0000 </r>
       <r>   -7.8272    1.0000 </r>
       <r>   -7.5241    1.0000 </r>
       <r>   -7.5236    1.0000 </r>
       <r>   -7.3833    1.0000 </r>
       <r>   -7.3825    1.0000 </r>
       <r>   -7.0766    1.0000 </r>
       <r>   -7.0236    1.0000 </r>
       <r>   -7.0221    1.0000 </r>
       <r>   -6.8527    1.0000 </r>
       <r>   -6.8507    1.0000 </r>
       <r>   -6.7861    1.0000 </r>
       <r>   -6.5215    1.0000 </r>
       <r>   -6.5206    1.0000 </r>
       <r>   -6.2709    1.0000 </r>
       <r>   -6.2677    1.0000 </r>
       <r>   -6.0178    1.0000 </r>
       <r>   -6.0155    1.0000 </r>
       <r>   -5.9930    1.0000 </r>
       <r>   -5.8826    1.0000 </r>
       <r>   -5.8007    1.0000 </r>
       <r>   -5.7990    1.0000 </r>
       <r>   -5.7161    1.0000 </r>
       <r>   -5.7142    1.0000 </r>
       <r>   -5.3185    1.0000 </r>
       <r>   -5.2211    1.0000 </r>
       <r>   -5.2200    1.0000 </r>
       <r>   -5.1593    1.0000 </r>
       <r>   -5.1573    1.0000 </r>
       <r>   -4.8431    1.0000 </r>
       <r>   -4.8381    1.0000 </r>
       <r>   -4.6744    1.0000 </r>
       <r>   -4.6706    1.0000 </r>
       <r>   -4.6403    1.0000 </r>
       <r>   -4.4461    1.0000 </r>
       <r>   -4.3165    1.0000 </r>
       <r>   -4.0128    1.0000 </r>
       <r>   -4.0107    1.0000 </r>
       <r>   -3.9605    1.0000 </r>
       <r>   -3.9098    1.0000 </r>
       <r>   -3.9031    1.0000 </r>
       <r>   -3.7314    1.0000 </r>
       <r>   -3.7295    1.0000 </r>
       <r>   -3.6730    1.0000 </r>
       <r>   -3.6719    1.0000 </r>
       <r>   -3.5516    1.0000 </r>
       <r>   -3.5482    1.0000 </r>
       <r>   -3.4321    1.0000 </r>
       <r>   -3.3190    1.0000 </r>
       <r>   -3.3182    1.0000 </r>
       <r>   -3.3163    1.0000 </r>
       <r>   -3.1382    1.0000 </r>
       <r>   -2.9170    1.0000 </r>
       <r>   -2.9142    1.0000 </r>
       <r>   -2.7080    1.0000 </r>
       <r>   -2.6516    1.0000 </r>
       <r>   -2.6456    1.0000 </r>
       <r>   -2.6445    1.0000 </r>
       <r>   -2.4854    1.0000 </r>
       <r>   -2.4821    1.0000 </r>
       <r>   -2.2674    1.0000 </r>
       <r>   -2.0352    1.0000 </r>
       <r>   -2.0341    1.0000 </r>
       <r>   -0.0309    0.0000 </r>
       <r>   -0.0297    0.0000 </r>
       <r>    0.0951    0.0000 </r>
       <r>    0.2335    0.0000 </r>
       <r>    0.2354    0.0000 </r>
       <r>    0.2882    0.0000 </r>
       <r>    0.2910    0.0000 </r>
       <r>    0.6310    0.0000 </r>
       <r>    0.6592    0.0000 </r>
       <r>    0.6623    0.0000 </r>
       <r>    0.6766    0.0000 </r>
       <r>    0.7828    0.0000 </r>
       <r>    0.8020    0.0000 </r>
       <r>    0.8353    0.0000 </r>
       <r>    0.8398    0.0000 </r>
       <r>    0.9298    0.0000 </r>
       <r>    0.9507    0.0000 </r>
       <r>    1.0116    0.0000 </r>
       <r>    1.0121    0.0000 </r>
       <r>    1.1192    0.0000 </r>
       <r>    1.1220    0.0000 </r>
      </set>
      <set comment="kpoint 8">
       <r>  -16.3633    1.0000 </r>
       <r>  -15.8583    1.0000 </r>
       <r>  -15.4185    1.0000 </r>
       <r>  -15.4152    1.0000 </r>
       <r>  -15.2648    1.0000 </r>
       <r>  -14.9879    1.0000 </r>
       <r>  -14.7759    1.0000 </r>
       <r>  -14.7721    1.0000 </r>
       <r>  -14.7495    1.0000 </r>
       <r>  -14.7480    1.0000 </r>
       <r>  -14.6224    1.0000 </r>
       <r>  -14.4158    1.0000 </r>
       <r>  -14.4130    1.0000 </r>
       <r>  -14.3966    1.0000 </r>
       <r>  -14.3927    1.0000 </r>
       <r>  -14.3483    1.0000 </r>
       <r>  -14.2088    1.0000 </r>
       <r>  -14.2062    1.0000 </r>
       <r>   -8.0181    1.0000 </r>
       <r>   -7.7656    1.0000 </r>
       <r>   -7.5491    1.0000 </r>
       <r>   -7.5486    1.0000 </r>
       <r>   -7.4400    1.0000 </r>
       <r>   -7.4393    1.0000 </r>
       <r>   -7.1645    1.0000 </r>
       <r>   -6.9772    1.0000 </r>
       <r>   -6.9756    1.0000 </r>
       <r>   -6.8487    1.0000 </r>
       <r>   -6.8114    1.0000 </r>
       <r>   -6.8088    1.0000 </r>
       <r>   -6.5803    1.0000 </r>
       <r>   -6.5792    1.0000 </r>
       <r>   -6.2691    1.0000 </r>
       <r>   -6.2653    1.0000 </r>
       <r>   -5.9817    1.0000 </r>
       <r>   -5.9808    1.0000 </r>
       <r>   -5.9779    1.0000 </r>
       <r>   -5.7932    1.0000 </r>
       <r>   -5.7913    1.0000 </r>
       <r>   -5.7194    1.0000 </r>
       <r>   -5.6394    1.0000 </r>
       <r>   -5.6374    1.0000 </r>
       <r>   -5.1833    1.0000 </r>
       <r>   -5.1593    1.0000 </r>
       <r>   -5.1569    1.0000 </r>
       <r>   -5.0692    1.0000 </r>
       <r>   -5.0682    1.0000 </r>
       <r>   -4.9179    1.0000 </r>
       <r>   -4.9132    1.0000 </r>
       <r>   -4.7595    1.0000 </r>
       <r>   -4.7562    1.0000 </r>
       <r>   -4.6656    1.0000 </r>
       <r>   -4.5780    1.0000 </r>
       <r>   -4.4002    1.0000 </r>
       <r>   -3.9740    1.0000 </r>
       <r>   -3.9667    1.0000 </r>
       <r>   -3.9648    1.0000 </r>
       <r>   -3.8572    1.0000 </r>
       <r>   -3.8282    1.0000 </r>
       <r>   -3.8270    1.0000 </r>
       <r>   -3.8215    1.0000 </r>
       <r>   -3.7354    1.0000 </r>
       <r>   -3.7335    1.0000 </r>
       <r>   -3.6233    1.0000 </r>
       <r>   -3.6202    1.0000 </r>
       <r>   -3.3951    1.0000 </r>
       <r>   -3.3568    1.0000 </r>
       <r>   -3.2399    1.0000 </r>
       <r>   -3.2384    1.0000 </r>
       <r>   -3.2115    1.0000 </r>
       <r>   -2.9384    1.0000 </r>
       <r>   -2.8730    1.0000 </r>
       <r>   -2.6319    1.0000 </r>
       <r>   -2.6312    1.0000 </r>
       <r>   -2.6161    1.0000 </r>
       <r>   -2.6151    1.0000 </r>
       <r>   -2.4362    1.0000 </r>
       <r>   -2.4332    1.0000 </r>
       <r>   -2.2848    1.0000 </r>
       <r>   -2.0962    1.0000 </r>
       <r>   -2.0950    1.0000 </r>
       <r>   -0.0766    0.0000 </r>
       <r>   -0.0753    0.0000 </r>
       <r>    0.1046    0.0000 </r>
       <r>    0.2975    0.0000 </r>
       <r>    0.2995    0.0000 </r>
       <r>    0.3053    0.0000 </r>
       <r>    0.3081    0.0000 </r>
       <r>    0.6506    0.0000 </r>
       <r>    0.6690    0.0000 </r>
       <r>    0.6718    0.0000 </r>
       <r>    0.6732    0.0000 </r>
       <r>    0.7245    0.0000 </r>
       <r>    0.8572    0.0000 </r>
       <r>    0.8695    0.0000 </r>
       <r>    0.8862    0.0000 </r>
       <r>    0.8874    0.0000 </r>
       <r>    0.8914    0.0000 </r>
       <r>    0.9357    0.0000 </r>
       <r>    0.9364    0.0000 </r>
       <r>    1.1599    0.0000 </r>
       <r>    1.1738    0.0000 </r>
      </set>
      <set comment="kpoint 9">
       <r>  -16.3089    1.0000 </r>
       <r>  -15.9462    1.0000 </r>
       <r>  -15.4343    1.0000 </r>
       <r>  -15.4311    1.0000 </r>
       <r>  -15.2347    1.0000 </r>
       <r>  -15.0357    1.0000 </r>
       <r>  -14.7575    1.0000 </r>
       <r>  -14.7563    1.0000 </r>
       <r>  -14.7155    1.0000 </r>
       <r>  -14.7116    1.0000 </r>
       <r>  -14.5810    1.0000 </r>
       <r>  -14.4414    1.0000 </r>
       <r>  -14.4376    1.0000 </r>
       <r>  -14.3834    1.0000 </r>
       <r>  -14.3805    1.0000 </r>
       <r>  -14.3284    1.0000 </r>
       <r>  -14.2338    1.0000 </r>
       <r>  -14.2311    1.0000 </r>
       <r>   -8.0780    1.0000 </r>
       <r>   -7.6958    1.0000 </r>
       <r>   -7.5646    1.0000 </r>
       <r>   -7.5643    1.0000 </r>
       <r>   -7.4872    1.0000 </r>
       <r>   -7.4865    1.0000 </r>
       <r>   -7.2582    1.0000 </r>
       <r>   -6.9265    1.0000 </r>
       <r>   -6.9248    1.0000 </r>
       <r>   -6.8963    1.0000 </r>
       <r>   -6.7799    1.0000 </r>
       <r>   -6.7769    1.0000 </r>
       <r>   -6.6392    1.0000 </r>
       <r>   -6.6379    1.0000 </r>
       <r>   -6.2655    1.0000 </r>
       <r>   -6.2612    1.0000 </r>
       <r>   -5.9715    1.0000 </r>
       <r>   -5.9451    1.0000 </r>
       <r>   -5.9427    1.0000 </r>
       <r>   -5.8018    1.0000 </r>
       <r>   -5.7997    1.0000 </r>
       <r>   -5.5676    1.0000 </r>
       <r>   -5.5658    1.0000 </r>
       <r>   -5.5495    1.0000 </r>
       <r>   -5.1528    1.0000 </r>
       <r>   -5.1502    1.0000 </r>
       <r>   -5.0528    1.0000 </r>
       <r>   -4.9831    1.0000 </r>
       <r>   -4.9787    1.0000 </r>
       <r>   -4.8988    1.0000 </r>
       <r>   -4.8978    1.0000 </r>
       <r>   -4.8388    1.0000 </r>
       <r>   -4.8359    1.0000 </r>
       <r>   -4.7222    1.0000 </r>
       <r>   -4.6846    1.0000 </r>
       <r>   -4.4917    1.0000 </r>
       <r>   -3.9941    1.0000 </r>
       <r>   -3.9929    1.0000 </r>
       <r>   -3.9835    1.0000 </r>
       <r>   -3.9208    1.0000 </r>
       <r>   -3.9188    1.0000 </r>
       <r>   -3.8045    1.0000 </r>
       <r>   -3.7486    1.0000 </r>
       <r>   -3.7467    1.0000 </r>
       <r>   -3.7323    1.0000 </r>
       <r>   -3.6802    1.0000 </r>
       <r>   -3.6773    1.0000 </r>
       <r>   -3.4707    1.0000 </r>
       <r>   -3.2910    1.0000 </r>
[...]
       <r>   -5.8622    1.0000 </r>
       <r>   -5.8582    1.0000 </r>
       <r>   -5.5856    1.0000 </r>
       <r>   -5.3543    1.0000 </r>
       <r>   -5.1299    1.0000 </r>
       <r>   -5.1292    1.0000 </r>
       <r>   -5.1258    1.0000 </r>
       <r>   -5.1215    1.0000 </r>
       <r>   -5.0649    1.0000 </r>
       <r>   -5.0644    1.0000 </r>
       <r>   -5.0256    1.0000 </r>
       <r>   -4.8485    1.0000 </r>
       <r>   -4.7515    1.0000 </r>
       <r>   -4.7507    1.0000 </r>
       <r>   -4.7172    1.0000 </r>
       <r>   -4.5075    1.0000 </r>
       <r>   -4.5057    1.0000 </r>
       <r>   -4.3591    1.0000 </r>
       <r>   -4.3571    1.0000 </r>
       <r>   -3.9895    1.0000 </r>
       <r>   -3.8565    1.0000 </r>
       <r>   -3.8549    1.0000 </r>
       <r>   -3.8316    1.0000 </r>
       <r>   -3.7721    1.0000 </r>
       <r>   -3.7705    1.0000 </r>
       <r>   -3.6692    1.0000 </r>
       <r>   -3.6569    1.0000 </r>
       <r>   -3.6520    1.0000 </r>
       <r>   -3.5375    1.0000 </r>
       <r>   -3.5335    1.0000 </r>
       <r>   -3.1540    1.0000 </r>
       <r>   -3.0852    1.0000 </r>
       <r>   -3.0808    1.0000 </r>
       <r>   -3.0648    1.0000 </r>
       <r>   -2.8472    1.0000 </r>
       <r>   -2.5810    1.0000 </r>
       <r>   -2.5688    1.0000 </r>
       <r>   -2.5484    1.0000 </r>
       <r>   -2.4066    1.0000 </r>
       <r>   -2.4040    1.0000 </r>
       <r>   -2.3020    1.0000 </r>
       <r>   -2.3003    1.0000 </r>
       <r>   -2.2659    1.0000 </r>
       <r>   -2.2641    1.0000 </r>
       <r>   -0.1564    0.0000 </r>
       <r>   -0.1296    0.0000 </r>
       <r>    0.2850    0.0000 </r>
       <r>    0.2872    0.0000 </r>
       <r>    0.3420    0.0000 </r>
       <r>    0.3429    0.0000 </r>
       <r>    0.4282    0.0000 </r>
       <r>    0.4288    0.0000 </r>
       <r>    0.6592    0.0000 </r>
       <r>    0.6854    0.0000 </r>
       <r>    0.7159    0.0000 </r>
       <r>    0.7669    0.0000 </r>
       <r>    0.7691    0.0000 </r>
       <r>    0.7700    0.0000 </r>
       <r>    0.8485    0.0000 </r>
       <r>    0.9146    0.0000 </r>
       <r>    0.9175    0.0000 </r>
       <r>    1.0071    0.0000 </r>
       <r>    1.0414    0.0000 </r>
       <r>    1.0709    0.0000 </r>
       <r>    1.0805    0.0000 </r>
      </set>
     </set>
    </set>
   </array>
  </eigenvalues>
  <separator name="orbital magnetization" >
   <v name="MAGDIPOLOUT">      0.00000000      0.00000000      0.00000000</v>
  </separator>
  <dos>
   <i name="efermi">     -1.72312100 </i>
   <total>
    <array>
     <dimension dim="1">gridpoints</dimension>
     <dimension dim="2">spin</dimension>
     <field>energy</field>
     <field>total</field>
     <field>integrated</field>
     <set>
      <set comment="spin 1">
       <r>   -17.4452     0.0000     0.0000 </r>
       <r>   -17.3792     0.0000     0.0000 </r>
       <r>   -17.3132     0.0000     0.0000 </r>
       <r>   -17.2472     0.0000     0.0000 </r>
       <r>   -17.1813     0.0000     0.0000 </r>
       <r>   -17.1153     0.0000     0.0000 </r>
       <r>   -17.0493     0.0000     0.0000 </r>
       <r>   -16.9833     0.0000     0.0000 </r>
       <r>   -16.9173     0.0000     0.0000 </r>
       <r>   -16.8513     0.0000     0.0000 </r>
       <r>   -16.7853     0.0000     0.0000 </r>
       <r>   -16.7193     0.0000     0.0000 </r>
       <r>   -16.6533     0.0000     0.0000 </r>
       <r>   -16.5873     0.0000     0.0000 </r>
       <r>   -16.5214     1.5821     0.1044 </r>
       <r>   -16.4554     4.3672     0.3927 </r>
       <r>   -16.3894     4.5878     0.6956 </r>
       <r>   -16.3234     4.2002     0.9732 </r>
       <r>   -16.2574     4.9164     1.2976 </r>
       <r>   -16.1914     4.7263     1.6097 </r>
       <r>   -16.1254     4.7431     1.9233 </r>
       <r>   -16.0594     4.9024     2.2473 </r>
       <r>   -15.9934     4.6457     2.5540 </r>
       <r>   -15.9274     5.2567     2.9010 </r>
       <r>   -15.8615     4.4875     3.1976 </r>
       <r>   -15.7955     4.8045     3.5148 </r>
       <r>   -15.7295     5.3171     3.8668 </r>
       <r>   -15.6635     5.9422     4.2589 </r>
       <r>   -15.5975     5.8012     4.6420 </r>
       <r>   -15.5315     4.9371     4.9680 </r>
       <r>   -15.4655     5.6885     5.3434 </r>
       <r>   -15.3995     6.5727     5.7771 </r>
       <r>   -15.3335    10.0437     6.4404 </r>
       <r>   -15.2675    13.7480     7.3484 </r>
       <r>   -15.2016    15.0475     8.3419 </r>
       <r>   -15.1356    15.8195     9.3869 </r>
       <r>   -15.0696    16.2545    10.4596 </r>
       <r>   -15.0036    15.6733    11.4942 </r>
       <r>   -14.9376    17.5574    12.6529 </r>
       <r>   -14.8716    18.7109    13.8882 </r>
       <r>   -14.8056    20.4271    15.2379 </r>
       <r>   -14.7396    21.0991    16.6304 </r>
       <r>   -14.6736    22.3319    18.1068 </r>
       <r>   -14.6076    26.7195    19.8707 </r>
       <r>   -14.5417    32.1343    21.9938 </r>
       <r>   -14.4757    38.4914    24.5362 </r>
       <r>   -14.4097    31.1408    26.5947 </r>
       <r>   -14.3437    37.1081    29.0449 </r>
       <r>   -14.2777    47.2464    32.1648 </r>
       <r>   -14.2117    30.9756    34.2117 </r>
       <r>   -14.1457    19.8426    35.5239 </r>
       <r>   -14.0797     7.1827    36.0000 </r>
       <r>   -14.0137     0.0000    36.0000 </r>
       <r>   -13.9477     0.0000    36.0000 </r>
       <r>   -13.8818     0.0000    36.0000 </r>
       <r>   -13.8158     0.0000    36.0000 </r>
       <r>   -13.7498     0.0000    36.0000 </r>
       <r>   -13.6838     0.0000    36.0000 </r>
       <r>   -13.6178     0.0000    36.0000 </r>
       <r>   -13.5518     0.0000    36.0000 </r>
       <r>   -13.4858     0.0000    36.0000 </r>
       <r>   -13.4198     0.0000    36.0000 </r>
       <r>   -13.3538     0.0000    36.0000 </r>
       <r>   -13.2878     0.0000    36.0000 </r>
       <r>   -13.2219     0.0000    36.0000 </r>
       <r>   -13.1559     0.0000    36.0000 </r>
       <r>   -13.0899     0.0000    36.0000 </r>
       <r>   -13.0239     0.0000    36.0000 </r>
       <r>   -12.9579     0.0000    36.0000 </r>
       <r>   -12.8919     0.0000    36.0000 </r>
       <r>   -12.8259     0.0000    36.0000 </r>
       <r>   -12.7599     0.0000    36.0000 </r>
       <r>   -12.6939     0.0000    36.0000 </r>
       <r>   -12.6280     0.0000    36.0000 </r>
       <r>   -12.5620     0.0000    36.0000 </r>
       <r>   -12.4960     0.0000    36.0000 </r>
       <r>   -12.4300     0.0000    36.0000 </r>
       <r>   -12.3640     0.0000    36.0000 </r>
       <r>   -12.2980     0.0000    36.0000 </r>
       <r>   -12.2320     0.0000    36.0000 </r>
       <r>   -12.1660     0.0000    36.0000 </r>
       <r>   -12.1000     0.0000    36.0000 </r>
       <r>   -12.0340     0.0000    36.0000 </r>
       <r>   -11.9681     0.0000    36.0000 </r>
       <r>   -11.9021     0.0000    36.0000 </r>
       <r>   -11.8361     0.0000    36.0000 </r>
       <r>   -11.7701     0.0000    36.0000 </r>
       <r>   -11.7041     0.0000    36.0000 </r>
       <r>   -11.6381     0.0000    36.0000 </r>
       <r>   -11.5721     0.0000    36.0000 </r>
       <r>   -11.5061     0.0000    36.0000 </r>
       <r>   -11.4401     0.0000    36.0000 </r>
       <r>   -11.3741     0.0000    36.0000 </r>
       <r>   -11.3082     0.0000    36.0000 </r>
       <r>   -11.2422     0.0000    36.0000 </r>
       <r>   -11.1762     0.0000    36.0000 </r>
       <r>   -11.1102     0.0000    36.0000 </r>
       <r>   -11.0442     0.0000    36.0000 </r>
       <r>   -10.9782     0.0000    36.0000 </r>
       <r>   -10.9122     0.0000    36.0000 </r>
       <r>   -10.8462     0.0000    36.0000 </r>
       <r>   -10.7802     0.0000    36.0000 </r>
       <r>   -10.7142     0.0000    36.0000 </r>
       <r>   -10.6483     0.0000    36.0000 </r>
       <r>   -10.5823     0.0000    36.0000 </r>
       <r>   -10.5163     0.0000    36.0000 </r>
       <r>   -10.4503     0.0000    36.0000 </r>
       <r>   -10.3843     0.0000    36.0000 </r>
       <r>   -10.3183     0.0000    36.0000 </r>
       <r>   -10.2523     0.0000    36.0000 </r>
       <r>   -10.1863     0.0000    36.0000 </r>
       <r>   -10.1203     0.0000    36.0000 </r>
       <r>   -10.0543     0.0000    36.0000 </r>
       <r>    -9.9884     0.0000    36.0000 </r>
       <r>    -9.9224     0.0000    36.0000 </r>
       <r>    -9.8564     0.0000    36.0000 </r>
       <r>    -9.7904     0.0000    36.0000 </r>
       <r>    -9.7244     0.0000    36.0000 </r>
       <r>    -9.6584     0.0000    36.0000 </r>
       <r>    -9.5924     0.0000    36.0000 </r>
       <r>    -9.5264     0.0000    36.0000 </r>
       <r>    -9.4604     0.0000    36.0000 </r>
       <r>    -9.3944     0.0000    36.0000 </r>
       <r>    -9.3285     0.0000    36.0000 </r>
       <r>    -9.2625     0.0000    36.0000 </r>
       <r>    -9.1965     0.0000    36.0000 </r>
       <r>    -9.1305     0.0000    36.0000 </r>
       <r>    -9.0645     0.0000    36.0000 </r>
       <r>    -8.9985     0.0000    36.0000 </r>
       <r>    -8.9325     0.0000    36.0000 </r>
       <r>    -8.8665     0.0000    36.0000 </r>
       <r>    -8.8005     0.0000    36.0000 </r>
       <r>    -8.7345     0.0000    36.0000 </r>
       <r>    -8.6686     0.0000    36.0000 </r>
       <r>    -8.6026     0.0000    36.0000 </r>
       <r>    -8.5366     0.0000    36.0000 </r>
       <r>    -8.4706     0.0000    36.0000 </r>
       <r>    -8.4046     0.0000    36.0000 </r>
       <r>    -8.3386     0.0000    36.0000 </r>
       <r>    -8.2726     0.0000    36.0000 </r>
       <r>    -8.2066     0.0000    36.0000 </r>
       <r>    -8.1406     0.3442    36.0227 </r>
       <r>    -8.0746     6.5620    36.4557 </r>
       <r>    -8.0087     7.7382    36.9665 </r>
       <r>    -7.9427    10.5684    37.6639 </r>
       <r>    -7.8767    10.9304    38.3858 </r>
       <r>    -7.8107    11.2112    39.1273 </r>
       <r>    -7.7447    10.3585    39.8116 </r>
       <r>    -7.6787    12.7421    40.6527 </r>
       <r>    -7.6127    12.7606    41.4956 </r>
       <r>    -7.5467    13.6666    42.3983 </r>
       <r>    -7.4807    12.5457    43.2272 </r>
       <r>    -7.4147    12.9918    44.0849 </r>
       <r>    -7.3488    17.2447    45.2233 </r>
       <r>    -7.2828    22.0255    46.6779 </r>
       <r>    -7.2168    18.7217    47.9152 </r>
       <r>    -7.1508    15.7573    48.9563 </r>
       <r>    -7.0848    22.9156    50.4690 </r>
       <r>    -7.0188    25.7677    52.1710 </r>
       <r>    -6.9528    31.1587    54.2292 </r>
       <r>    -6.8868    39.4582    56.8354 </r>
       <r>    -6.8208    24.0612    58.4272 </r>
       <r>    -6.7549    19.4952    59.7150 </r>
       <r>    -6.6889    11.7534    60.4913 </r>
       <r>    -6.6229     8.9859    61.0846 </r>
       <r>    -6.5569     9.1682    61.6902 </r>
       <r>    -6.4909     5.8291    62.0763 </r>
       <r>    -6.4249     6.5232    62.5068 </r>
       <r>    -6.3589     6.4951    62.9355 </r>
       <r>    -6.2929     7.6311    63.4393 </r>
       <r>    -6.2269    31.3096    65.5054 </r>
       <r>    -6.1609    23.3234    67.0457 </r>
       <r>    -6.0950    23.4289    68.5929 </r>
       <r>    -6.0290    25.3764    70.2689 </r>
       <r>    -5.9630    39.1160    72.8511 </r>
       <r>    -5.8970    42.3958    75.6517 </r>
       <r>    -5.8310    36.9670    78.0930 </r>
       <r>    -5.7650    35.1565    80.4150 </r>
       <r>    -5.6990    10.2598    81.0936 </r>
       <r>    -5.6330     7.3638    81.5814 </r>
       <r>    -5.5670     5.9875    81.9775 </r>
       <r>    -5.5010     7.6088    82.4805 </r>
       <r>    -5.4351    12.9823    83.3383 </r>
       <r>    -5.3691    11.2045    84.0781 </r>
       <r>    -5.3031     9.1401    84.6822 </r>
       <r>    -5.2371    13.7263    85.5884 </r>
       <r>    -5.1711    32.3589    87.7245 </r>
       <r>    -5.1051    44.3675    90.6530 </r>
       <r>    -5.0391    28.2734    92.5207 </r>
       <r>    -4.9731    22.2860    93.9922 </r>
       <r>    -4.9071    24.0091    95.5794 </r>
       <r>    -4.8411    21.1290    96.9752 </r>
       <r>    -4.7752    20.2831    98.3142 </r>
       <r>    -4.7092    27.4840   100.1284 </r>
       <r>    -4.6432    23.7614   101.6971 </r>
       <r>    -4.5772    18.0557   102.8897 </r>
       <r>    -4.5112    19.0561   104.1476 </r>
       <r>    -4.4452    14.8513   105.1285 </r>
       <r>    -4.3792    11.9146   105.9164 </r>
       <r>    -4.3132    16.3104   106.9940 </r>
       <r>    -4.2472    13.1123   107.8601 </r>
       <r>    -4.1812    10.6171   108.5614 </r>
       <r>    -4.1153    22.7366   110.0627 </r>
       <r>    -4.0493    17.6650   111.2290 </r>
       <r>    -3.9833    30.2831   113.2289 </r>
       <r>    -3.9173    53.5567   116.7642 </r>
       <r>    -3.8513    32.9087   118.9390 </r>
       <r>    -3.7853    36.3156   121.3369 </r>
       <r>    -3.7193    28.2820   123.2053 </r>
       <r>    -3.6533    28.0385   125.0595 </r>
       <r>    -3.5873    32.2179   127.1886 </r>
       <r>    -3.5213    32.4931   129.3364 </r>
       <r>    -3.4554    27.8096   131.1729 </r>
       <r>    -3.3894    23.9573   132.7546 </r>
       <r>    -3.3234    22.0944   134.2139 </r>
       <r>    -3.2574    23.9402   135.7939 </r>
       <r>    -3.1914    16.3100   136.8721 </r>
       <r>    -3.1254    20.0452   138.1973 </r>
       <r>    -3.0594    21.3577   139.6069 </r>
       <r>    -2.9934    19.3610   140.8861 </r>
       <r>    -2.9274    19.2621   142.1579 </r>
       <r>    -2.8614    30.3635   144.1620 </r>
       <r>    -2.7955     8.7905   144.7435 </r>
       <r>    -2.7295    10.7157   145.4517 </r>
       <r>    -2.6635    15.4581   146.4729 </r>
       <r>    -2.5975    25.9047   148.1832 </r>
       <r>    -2.5315    34.6614   150.4725 </r>
       <r>    -2.4655    29.7417   152.4366 </r>
       <r>    -2.3995    28.0556   154.2895 </r>
       <r>    -2.3335    26.9798   156.0716 </r>
       <r>    -2.2675    25.0448   157.7257 </r>
       <r>    -2.2015    22.7678   159.2299 </r>
       <r>    -2.1356    11.3941   159.9824 </r>
       <r>    -2.0696     8.8339   160.5657 </r>
       <r>    -2.0036     6.7242   161.0103 </r>
       <r>    -1.9376     5.2937   161.3603 </r>
       <r>    -1.8716     4.4002   161.6509 </r>
       <r>    -1.8056     3.7250   161.8968 </r>
       <r>    -1.7396     1.5646   162.0000 </r>
       <r>    -1.6736     0.0000   162.0000 </r>
       <r>    -1.6076     0.0000   162.0000 </r>
       <r>    -1.5416     0.0000   162.0000 </r>
       <r>    -1.4757     0.0000   162.0000 </r>
       <r>    -1.4097     0.0000   162.0000 </r>
       <r>    -1.3437     0.0000   162.0000 </r>
       <r>    -1.2777     0.0000   162.0000 </r>
       <r>    -1.2117     0.0000   162.0000 </r>
       <r>    -1.1457     0.0000   162.0000 </r>
       <r>    -1.0797     0.0000   162.0000 </r>
       <r>    -1.0137     0.0000   162.0000 </r>
       <r>    -0.9477     0.0000   162.0000 </r>
       <r>    -0.8817     0.0000   162.0000 </r>
       <r>    -0.8158     0.0000   162.0000 </r>
       <r>    -0.7498     0.0000   162.0000 </r>
       <r>    -0.6838     0.0000   162.0000 </r>
       <r>    -0.6178     0.0000   162.0000 </r>
       <r>    -0.5518     0.0000   162.0000 </r>
       <r>    -0.4858     0.0000   162.0000 </r>
       <r>    -0.4198     0.0000   162.0000 </r>
       <r>    -0.3538     0.0000   162.0000 </r>
       <r>    -0.2878     0.0000   162.0000 </r>
       <r>    -0.2219     0.0000   162.0000 </r>
       <r>    -0.1559     0.6609   162.0436 </r>
       <r>    -0.0899    12.8809   162.8936 </r>
       <r>    -0.0239    17.7945   164.0685 </r>
       <r>     0.0421    20.8805   165.4484 </r>
       <r>     0.1081    30.0431   167.4327 </r>
       <r>     0.1741    26.0475   169.1573 </r>
       <r>     0.2401    22.9060   170.6713 </r>
       <r>     0.3061    26.5956   172.4284 </r>
       <r>     0.3721    21.5417   173.8524 </r>
       <r>     0.4380    19.4154   175.1360 </r>
       <r>     0.5040    15.5659   176.1640 </r>
       <r>     0.5700    21.7774   177.6015 </r>
       <r>     0.6360    38.0497   180.1151 </r>
       <r>     0.7020    62.5028   184.2413 </r>
       <r>     0.7680    46.2156   187.2945 </r>
       <r>     0.8340    42.8957   190.1282 </r>
       <r>     0.9000    37.4482   192.6017 </r>
       <r>     0.9660    39.4183   195.2045 </r>
       <r>     1.0320    47.6015   198.3481 </r>
       <r>     1.0979    36.0380   200.7298 </r>
       <r>     1.1639    25.7431   202.4304 </r>
       <r>     1.2299    13.1795   203.3005 </r>
       <r>     1.2959     6.4953   203.7291 </r>
       <r>     1.3619     3.1302   203.9367 </r>
       <r>     1.4279     0.8844   203.9955 </r>
       <r>     1.4939     0.0687   204.0000 </r>
       <r>     1.5599     0.0000   204.0000 </r>
       <r>     1.6259     0.0000   204.0000 </r>
       <r>     1.6919     0.0000   204.0000 </r>
       <r>     1.7578     0.0000   204.0000 </r>
       <r>     1.8238     0.0000   204.0000 </r>
       <r>     1.8898     0.0000   204.0000 </r>
       <r>     1.9558     0.0000   204.0000 </r>
       <r>     2.0218     0.0000   204.0000 </r>
       <r>     2.0878     0.0000   204.0000 </r>
       <r>     2.1538     0.0000   204.0000 </r>
       <r>     2.2198     0.0000   204.0000 </r>
       <r>     2.2858     0.0000   204.0000 </r>
       <r>     2.3518     0.0000   204.0000 </r>
      </set>
     </set>
    </array>
   </total>
  </dos>
 </calculation>
 <structure name="finalpos" >
  <crystal>
   <varray name="basis" >
    <v>       9.84600000       0.00000000       0.00000000 </v>
    <v>       4.92300000       8.52144000       0.00000000 </v>
    <v>       0.00000000       0.00000000      20.00000000 </v>
   </varray>
   <i name="volume">   1678.04196480 </i>
   <varray name="rec_basis" >
    <v>       0.10156409      -0.05867553       0.00000000 </v>
    <v>       0.00000000       0.11735106       0.00000000 </v>
    <v>       0.00000000       0.00000000       0.05000000 </v>
   </varray>
  </crystal>
  <varray name="positions" >
   <v>       0.33330000       0.00006700       0.00000000 </v>
   <v>       0.66663300       0.00006700       0.00000000 </v>
   <v>       0.99996700       0.00006700       0.00000000 </v>
   <v>       0.33330000       0.33340000       0.00000000 </v>
   <v>       0.66663300       0.33340000       0.00000000 </v>
   <v>       0.99996700       0.33340000       0.00000000 </v>
   <v>       0.33330000       0.66673300       0.00000000 </v>
   <v>       0.66663300       0.66673300       0.00000000 </v>
   <v>       0.99996700       0.66673300       0.00000000 </v>
   <v>       0.11109200       0.11114900       0.91495900 </v>
   <v>       0.44442600       0.11114900       0.91545900 </v>
   <v>       0.77775900       0.11114900       0.91545900 </v>
   <v>       0.11109200       0.44448200       0.91545900 </v>
   <v>       0.44442600       0.44448200       0.91545900 </v>
   <v>       0.77775900       0.44448200       0.91545900 </v>
   <v>       0.11109200       0.77781500       0.91545900 </v>
   <v>       0.44442600       0.77781500       0.91545900 </v>
   <v>       0.77775900       0.77781500       0.91545900 </v>
   <v>       0.11109200       0.11114900       0.08454100 </v>
   <v>       0.44442600       0.11114900       0.08454100 </v>
   <v>       0.77775900       0.11114900       0.08454100 </v>
   <v>       0.11109200       0.44448200       0.08454100 </v>
   <v>       0.44442600       0.44448200       0.08454100 </v>
   <v>       0.77775900       0.44448200       0.08454100 </v>
   <v>       0.11109200       0.77781500       0.08454100 </v>
   <v>       0.44442600       0.77781500       0.08454100 </v>
   <v>       0.77775900       0.77781500       0.08454100 </v>
  </varray>
 </structure>
</modeling>
