    2    2   80    1
  0.5238761E+02  0.2459512E-09  0.2459512E-09  0.2000000E-08  0.5000000E-15
  1.000000000000000E-004
  CAR 
 C:graphene                              
      8     48      8
 
  0.3742002E-15  0.3742002E-15  0.1262379E-14  0.2267574E-02
    1      -22.299132   1.000000
    2      -10.393049   1.000000
    3       -5.752581   1.000000
    4       -5.752523   1.000000
    5        0.523251   0.000000
    6        1.324193   0.000000
    7        1.690777   0.000000
    8        2.599137   0.000000
 
  0.4761905E-01  0.3771171E-15  0.1262379E-14  0.1360544E-01
    1      -22.245298   1.000000
    2      -10.328633   1.000000
    3       -5.973418   1.000000
    4       -5.869408   1.000000
    5        0.596329   0.000000
    6        1.398253   0.000000
    7        1.765720   0.000000
    8        2.673431   0.000000
 
  0.9523810E-01  0.3768972E-15  0.1262379E-14  0.1360544E-01
    1      -22.083975   1.000000
    2      -10.135871   1.000000
    3       -6.593260   1.000000
    4       -6.189177   1.000000
    5        0.815609   0.000000
    6        1.620321   0.000000
    7        1.990561   0.000000
    8        2.896224   0.000000
 
  0.1428571E+00  0.3593300E-15  0.1262379E-14  0.1360544E-01
    1      -21.815729   1.000000
    2       -9.816485   1.000000
    3       -7.512604   1.000000
    4       -6.640784   1.000000
    5        1.181069   0.000000
    6        1.989973   0.000000
    7        2.365306   0.000000
    8        3.267166   0.000000
 
  0.1904762E+00  0.3695184E-15  0.1262379E-14  0.1360544E-01
    1      -21.441563   1.000000
    2       -9.373615   1.000000
    3       -8.625184   1.000000
    4       -7.149514   1.000000
    5        1.692392   0.000000
    6        2.506043   0.000000
    7        2.889920   0.000000
    8        3.785043   0.000000
 
  0.2380952E+00  0.1267399E-14  0.1262379E-14  0.1360544E-01
    1      -20.962980   1.000000
    2       -9.844779   1.000000
    3       -8.812608   1.000000
    4       -7.656490   1.000000
    5        2.348819   0.000000
    6        3.163090   0.000000
    7        3.564260   0.000000
    8        4.432167   0.000000
 
  0.2857143E+00  0.3625559E-15  0.1262379E-14  0.1360544E-01
    1      -20.382242   1.000000
    2      -11.108677   1.000000
    3       -8.142620   1.000000
    4       -8.120837   1.000000
    5        3.148692   0.000000
    6        3.501097   0.000000
    7        4.048420   0.000000
    8        4.387564   0.000000
 
  0.3333333E+00  0.3588666E-15  0.1262379E-14  0.1360544E-01
    1      -19.702817   1.000000
    2      -12.372256   1.000000
    3       -8.515723   1.000000
    4       -7.380246   1.000000
    5        2.212089   0.000000
    6        4.085832   0.000000
    7        4.958262   0.000000
    8        5.063139   0.000000
 
  0.3809524E+00  0.3551772E-15  0.1262379E-14  0.1360544E-01
    1      -18.930834   1.000000
    2      -13.602052   1.000000
    3       -8.823873   1.000000
    4       -6.559332   1.000000
    5        0.930228   0.000000
    6        4.857394   0.000000
    7        5.234654   0.000000
    8        6.052045   0.000000
 
  0.4285714E+00  0.3810475E-15  0.1262379E-14  0.1360544E-01
    1      -18.081410   1.000000
    2      -14.765334   1.000000
    3       -9.034489   1.000000
    4       -5.759947   1.000000
    5       -0.193958   0.000000
    6        4.787817   0.000000
    7        6.421669   0.000000
    8        7.285532   0.000000
 
  0.4761905E+00  0.3496025E-15  0.1262379E-14  0.1360544E-01
    1      -17.236625   1.000000
    2      -15.769487   1.000000
    3       -9.141237   1.000000
    4       -5.187297   1.000000
    5       -0.933843   0.000000
    6        4.736321   0.000000
    7        7.768877   0.000000
    8        8.642479   0.000000
 
  0.9523810E-01  0.4761905E-01  0.1262379E-14  0.1360544E-01
    1      -22.137719   1.000000
    2      -10.200042   1.000000
    3       -6.378381   1.000000
    4       -6.103211   1.000000
    5        0.742521   0.000000
    6        1.546320   0.000000
    7        1.915614   0.000000
    8        2.821977   0.000000
 
  0.1428571E+00  0.4761905E-01  0.1262379E-14  0.2721088E-01
    1      -21.922937   1.000000
    2       -9.943933   1.000000
    3       -7.115179   1.000000
    4       -6.522252   1.000000
    5        1.034962   0.000000
    6        1.842211   0.000000
    7        2.215420   0.000000
    8        3.118882   0.000000
 
  0.1904762E+00  0.4761905E-01  0.1262379E-14  0.2721088E-01
    1      -21.601735   1.000000
    2       -9.562685   1.000000
    3       -8.101212   1.000000
    4       -7.033153   1.000000
    5        1.473500   0.000000
    6        2.285260   0.000000
    7        2.665129   0.000000
    8        3.563562   0.000000
 
  0.2380952E+00  0.4761905E-01  0.1262379E-14  0.2721088E-01
    1      -21.175363   1.000000
    2       -9.245978   1.000000
    3       -9.060391   1.000000
    4       -7.562981   1.000000
    5        2.057614   0.000000
    6        2.873334   0.000000
    7        3.264675   0.000000
    8        4.153002   0.000000
 
  0.2857143E+00  0.4761905E-01  0.1262379E-14  0.2721088E-01
    1      -20.645692   1.000000
    2      -10.473897   1.000000
    3       -8.444013   1.000000
    4       -8.062826   1.000000
    5        2.786262   0.000000
    6        3.580673   0.000000
    7        4.013832   0.000000
    8        4.199071   0.000000
 
  0.3333333E+00  0.4761905E-01  0.1262379E-14  0.2721088E-01
    1      -20.015536   1.000000
    2      -11.729060   1.000000
    3       -8.501141   1.000000
    4       -7.725631   1.000000
    5        2.835641   0.000000
    6        3.657051   0.000000
    7        4.518502   0.000000
    8        4.910596   0.000000
 
  0.3809524E+00  0.4761905E-01  0.1262379E-14  0.2721088E-01
    1      -19.289432   1.000000
    2      -12.970859   1.000000
    3       -8.857795   1.000000
    4       -6.928335   1.000000
    5        1.535498   0.000000
    6        4.655812   0.000000
    7        5.240540   0.000000
    8        5.536756   0.000000
 
  0.4285714E+00  0.4761905E-01  0.1262379E-14  0.2721088E-01
    1      -18.476518   1.000000
    2      -14.166495   1.000000
    3       -9.120071   1.000000
    4       -6.102727   1.000000
    5        0.322660   0.000000
    6        5.068824   0.000000
    7        5.855820   0.000000
    8        6.699413   0.000000
 
  0.4761905E+00  0.4761905E-01  0.1262379E-14  0.2721088E-01
    1      -17.607443   1.000000
    2      -15.270562   1.000000
    3       -9.280216   1.000000
    4       -5.376874   1.000000
    5       -0.645481   0.000000
    6        4.998989   0.000000
    7        7.132004   0.000000
    8        7.991578   0.000000
 
 -0.4761905E+00  0.4761905E-01  0.1262379E-14  0.1360544E-01
    1      -16.988528   1.000000
    2      -15.968664   1.000000
    3       -9.334032   1.000000
    4       -5.050798   1.000000
    5       -1.053921   0.000000
    6        4.972750   0.000000
    7        8.464160   0.000000
    8        8.620063   0.000000
 
  0.1904762E+00  0.9523810E-01  0.1262379E-14  0.1360544E-01
    1      -21.655198   1.000000
    2       -9.625889   1.000000
    3       -7.857312   1.000000
    4       -7.062683   1.000000
    5        1.400604   0.000000
    6        2.211608   0.000000
    7        2.590212   0.000000
    8        3.489663   0.000000
 
  0.2380952E+00  0.9523810E-01  0.1262379E-14  0.2721088E-01
    1      -21.281803   1.000000
    2       -9.184885   1.000000
    3       -8.800102   1.000000
    4       -7.671338   1.000000
    5        1.912187   0.000000
    6        2.727529   0.000000
    7        3.114910   0.000000
    8        4.007678   0.000000
 
  0.2857143E+00  0.9523810E-01  0.1262379E-14  0.2721088E-01
    1      -20.804341   1.000000
    2       -9.899895   1.000000
    3       -8.626221   1.000000
    4       -8.248343   1.000000
    5        2.568948   0.000000
    6        3.385329   0.000000
    7        3.789422   0.000000
    8        4.572165   0.000000
 
  0.3333333E+00  0.9523810E-01  0.1262379E-14  0.2721088E-01
    1      -20.225191   1.000000
    2      -11.087619   1.000000
    3       -8.754106   1.000000
    4       -7.958798   1.000000
    5        3.342470   0.000000
    6        3.369566   0.000000
    7        4.217924   0.000000
    8        4.613497   0.000000
 
  0.3809524E+00  0.9523810E-01  0.1262379E-14  0.2721088E-01
    1      -19.548006   1.000000
    2      -12.303368   1.000000
    3       -9.172238   1.000000
    4       -7.198713   1.000000
    5        2.080071   0.000000
    6        4.311210   0.000000
    7        5.159238   0.000000
    8        5.584700   0.000000
 
  0.4285714E+00  0.9523810E-01  0.1262379E-14  0.2721088E-01
    1      -18.779156   1.000000
    2      -13.502609   1.000000
    3       -9.493023   1.000000
    4       -6.378426   1.000000
    5        0.843790   0.000000
    6        5.376270   0.000000
    7        5.859194   0.000000
    8        6.246408   0.000000
 
  0.4761905E+00  0.9523810E-01  0.1262379E-14  0.2721088E-01
    1      -17.934223   1.000000
    2      -14.645885   1.000000
    3       -9.710123   1.000000
    4       -5.575129   1.000000
    5       -0.253361   0.000000
    6        5.714078   0.000000
    7        6.636981   0.000000
    8        7.460517   0.000000
 
 -0.4761905E+00  0.9523810E-01  0.1262379E-14  0.2721088E-01
    1      -17.095919   1.000000
    2      -15.636562   1.000000
    3       -9.819618   1.000000
    4       -4.992932   1.000000
    5       -0.987378   0.000000
    6        5.666291   0.000000
    7        7.971472   0.000000
    8        8.757403   0.000000
 
  0.2857143E+00  0.1428571E+00  0.1262379E-14  0.1360544E-01
    1      -20.857316   1.000000
    2       -9.615213   1.000000
    3       -8.687159   1.000000
    4       -8.410261   1.000000
    5        2.496505   0.000000
    6        3.315581   0.000000
    7        3.714592   0.000000
    8        4.598748   0.000000
 
  0.3333333E+00  0.1428571E+00  0.1262379E-14  0.2721088E-01
    1      -20.330360   1.000000
    2      -10.581642   1.000000
    3       -9.086924   1.000000
    4       -8.076239   1.000000
    5        3.225346   0.000000
    6        3.648403   0.000000
    7        4.052847   0.000000
    8        4.464053   0.000000
 
  0.3809524E+00  0.1428571E+00  0.1262379E-14  0.2721088E-01
    1      -19.704036   1.000000
    2      -11.673269   1.000000
    3       -9.629792   1.000000
    4       -7.363498   1.000000
    5        2.476662   0.000000
    6        4.096968   0.000000
    7        4.924449   0.000000
    8        5.363044   0.000000
 
  0.4285714E+00  0.1428571E+00  0.1262379E-14  0.2721088E-01
    1      -18.983316   1.000000
    2      -12.818652   1.000000
    3      -10.040906   1.000000
    4       -6.570207   1.000000
    5        1.286383   0.000000
    6        5.108040   0.000000
    7        5.933433   0.000000
    8        6.410022   0.000000
 
  0.4761905E+00  0.1428571E+00  0.1262379E-14  0.2721088E-01
    1      -18.178048   1.000000
    2      -13.955954   1.000000
    3      -10.330653   1.000000
    4       -5.742450   1.000000
    5        0.152721   0.000000
    6        6.244914   0.000000
    7        6.820209   0.000000
    8        7.061193   0.000000
 
 -0.4761905E+00  0.1428571E+00  0.1262379E-14  0.2721088E-01
    1      -17.319855   1.000000
    2      -15.023390   1.000000
    3      -10.503606   1.000000
    4       -5.000922   1.000000
    5       -0.781783   0.000000
    6        6.709481   0.000000
    7        7.550920   0.000000
    8        8.251122   0.000000
 
 -0.4285714E+00  0.1428571E+00  0.1262379E-14  0.1360544E-01
    1      -16.712326   1.000000
    2      -15.702221   1.000000
    3      -10.561198   1.000000
    4       -4.657987   1.000000
    5       -1.190696   0.000000
    6        6.687176   0.000000
    7        8.835440   0.000000
    8        9.019591   0.000000
 
  0.3809524E+00  0.1904762E+00  0.1262379E-14  0.1360544E-01
    1      -19.756181   1.000000
    2      -11.343853   1.000000
    3       -9.909059   1.000000
    4       -7.418834   1.000000
    5        2.625476   0.000000
    6        4.025108   0.000000
    7        4.843360   0.000000
    8        5.288377   0.000000
 
  0.4285714E+00  0.1904762E+00  0.1262379E-14  0.2721088E-01
    1      -19.086035   1.000000
    2      -12.253609   1.000000
    3      -10.557047   1.000000
    4       -6.668328   1.000000
    5        1.548426   0.000000
    6        4.965625   0.000000
    7        5.770878   0.000000
    8        6.262098   0.000000
 
  0.4761905E+00  0.1904762E+00  0.1262379E-14  0.2721088E-01
    1      -18.327210   1.000000
    2      -13.279342   1.000000
    3      -10.996837   1.000000
    4       -5.852371   1.000000
    5        0.466401   0.000000
    6        6.041980   0.000000
    7        6.806524   0.000000
    8        7.384134   0.000000
 
 -0.4761905E+00  0.1904762E+00  0.1262379E-14  0.2721088E-01
    1      -17.496446   1.000000
    2      -14.327625   1.000000
    3      -11.268086   1.000000
    4       -5.036594   1.000000
    5       -0.538657   0.000000
    6        7.240218   0.000000
    7        7.865392   0.000000
    8        8.010404   0.000000
 
 -0.4285714E+00  0.1904762E+00  0.1262379E-14  0.2721088E-01
    1      -16.676542   1.000000
    2      -15.266387   1.000000
    3      -11.398592   1.000000
    4       -4.416202   1.000000
    5       -1.257770   0.000000
    6        7.927022   0.000000
    7        8.573106   0.000000
    8        8.615208   0.000000
 
  0.4761905E+00  0.2380952E+00  0.1262379E-14  0.1360544E-01
    1      -18.377317   1.000000
    2      -12.908545   1.000000
    3      -11.369481   1.000000
    4       -5.890512   1.000000
    5        0.586055   0.000000
    6        5.970981   0.000000
    7        6.717459   0.000000
    8        7.310171   0.000000
 
 -0.4761905E+00  0.2380952E+00  0.1262379E-14  0.2721088E-01
    1      -17.589263   1.000000
    2      -13.722727   1.000000
    3      -11.917261   1.000000
    4       -5.064104   1.000000
    5       -0.375567   0.000000
    6        7.103671   0.000000
    7        7.646376   0.000000
    8        8.505879   0.000000
 
 -0.4285714E+00  0.2380952E+00  0.1262379E-14  0.2721088E-01
    1      -16.754341   1.000000
    2      -14.628578   1.000000
    3      -12.202388   1.000000
    4       -4.281788   1.000000
    5       -1.241457   0.000000
    6        8.198133   0.000000
    7        8.337150   0.000000
    8        9.270228   0.000000
 
 -0.3809524E+00  0.2380952E+00  0.1262379E-14  0.1360544E-01
    1      -16.161104   1.000000
    2      -15.255153   1.000000
    3      -12.289615   1.000000
    4       -3.878267   1.000000
    5       -1.673401   0.000000
    6        8.302447   0.000000
    7        9.190215   0.000000
    8        9.513060   0.000000
 
 -0.4285714E+00  0.2857143E+00  0.1262379E-14  0.1360544E-01
    1      -16.788955   1.000000
    2      -14.249234   1.000000
    3      -12.632315   1.000000
    4       -4.240569   1.000000
    5       -1.222662   0.000000
    6        8.039295   0.000000
    7        8.270187   0.000000
    8        9.771643   0.000000
 
 -0.3809524E+00  0.2857143E+00  0.1262379E-14  0.2721088E-01
    1      -15.997455   1.000000
    2      -14.913154   1.000000
    3      -12.987175   1.000000
    4       -3.502754   1.000000
    5       -1.968495  -0.000000
    6        8.019631   0.000000
    7        9.458308   0.000000
    8       10.205863   0.000000
 
 -0.3333333E+00  0.3333333E+00  0.1262379E-14  0.4535147E-02
    1      -15.337882   1.000000
    2      -15.337849   1.000000
    3      -13.328854   1.000000
    4       -2.725036   1.000000
    5       -2.725009   0.000001
    6        7.908551   0.000000
    7       10.217964   0.000000
    8       10.217975   0.000000
