Automatically generated mesh
      48
Reciprocal lattice
    0.00000000000000    0.00000000000000    0.00000000000000             1
    0.04761904761905    0.00000000000000    0.00000000000000             6
    0.09523809523810    0.00000000000000    0.00000000000000             6
    0.14285714285714    0.00000000000000    0.00000000000000             6
    0.19047619047619    0.00000000000000    0.00000000000000             6
    0.23809523809524    0.00000000000000    0.00000000000000             6
    0.28571428571429    0.00000000000000    0.00000000000000             6
    0.33333333333333    0.00000000000000    0.00000000000000             6
    0.38095238095238    0.00000000000000    0.00000000000000             6
    0.42857142857143    0.00000000000000    0.00000000000000             6
    0.47619047619048    0.00000000000000    0.00000000000000             6
    0.09523809523810    0.04761904761905    0.00000000000000             6
    0.14285714285714    0.04761904761905    0.00000000000000            12
    0.19047619047619    0.04761904761905    0.00000000000000            12
    0.23809523809524    0.04761904761905    0.00000000000000            12
    0.28571428571429    0.04761904761905    0.00000000000000            12
    0.33333333333333    0.04761904761905    0.00000000000000            12
    0.38095238095238    0.04761904761905    0.00000000000000            12
    0.42857142857143    0.04761904761905    0.00000000000000            12
    0.47619047619048    0.04761904761905    0.00000000000000            12
   -0.47619047619048    0.04761904761905    0.00000000000000             6
    0.19047619047619    0.09523809523810    0.00000000000000             6
    0.23809523809524    0.09523809523810    0.00000000000000            12
    0.28571428571429    0.09523809523810    0.00000000000000            12
    0.33333333333333    0.09523809523810    0.00000000000000            12
    0.38095238095238    0.09523809523810    0.00000000000000            12
    0.42857142857143    0.09523809523810    0.00000000000000            12
    0.47619047619048    0.09523809523810    0.00000000000000            12
   -0.47619047619048    0.09523809523810    0.00000000000000            12
    0.28571428571429    0.14285714285714    0.00000000000000             6
    0.33333333333333    0.14285714285714    0.00000000000000            12
    0.38095238095238    0.14285714285714    0.00000000000000            12
    0.42857142857143    0.14285714285714    0.00000000000000            12
    0.47619047619048    0.14285714285714    0.00000000000000            12
   -0.47619047619048    0.14285714285714    0.00000000000000            12
   -0.42857142857143    0.14285714285714    0.00000000000000             6
    0.38095238095238    0.19047619047619    0.00000000000000             6
    0.42857142857143    0.19047619047619    0.00000000000000            12
    0.47619047619048    0.19047619047619    0.00000000000000            12
   -0.47619047619048    0.19047619047619    0.00000000000000            12
   -0.42857142857143    0.19047619047619    0.00000000000000            12
    0.47619047619048    0.23809523809524    0.00000000000000             6
   -0.47619047619048    0.23809523809524    0.00000000000000            12
   -0.42857142857143    0.23809523809524    0.00000000000000            12
   -0.38095238095238    0.23809523809524    0.00000000000000             6
   -0.42857142857143    0.28571428571429    0.00000000000000             6
   -0.38095238095238    0.28571428571429    0.00000000000000            12
   -0.33333333333333    0.33333333333333    0.00000000000000             2
Tetrahedra
       229    0.00037792894936
         6         1         1         2         2
        12         1         2         2         2
        12         2         2         3        12
        12         2         2         2        12
        12         2         3         3        12
        12         2         3        12        12
         6         2         2        12        12
        12         3         3         4        13
        12         3         3        12        13
        12         3        12        12        13
        12         3         4         4        13
        12         3         4        13        13
        12         3        12        13        13
        12         4         4         5        14
        12         4         4        13        14
        12         4        13        13        14
        12         4         5         5        14
        12         4         5        14        14
        12         4        13        14        14
        12         5         5         6        15
        12         5         5        14        15
        12         5        14        14        15
        12         5         6         6        15
        12         5         6        15        15
        12         5        14        15        15
        12         6         6         7        16
        12         6         6        15        16
        12         6        15        15        16
        12         6         7         7        16
        12         6         7        16        16
        12         6        15        16        16
        12         7         7         8        17
        12         7         7        16        17
        12         7        16        16        17
        12         7         8         8        17
        12         7         8        17        17
        12         7        16        17        17
        12         8         8         9        18
        12         8         8        17        18
        12         8        17        17        18
        12         8         9         9        18
        12         8         9        18        18
        12         8        17        18        18
        12         9         9        10        19
        12         9         9        18        19
        12         9        18        18        19
        12         9        10        10        19
        12         9        10        19        19
        12         9        18        19        19
        12        10        10        11        20
        12        10        10        19        20
        12        10        19        19        20
        12        10        11        11        20
        12        10        11        20        20
        12        10        19        20        20
        12        11        11        11        21
        12        11        11        20        21
        12        11        20        20        21
         6        11        11        21        21
        12        11        20        21        21
         6        12        12        13        13
        12        12        13        13        13
        12        13        13        14        22
        12        13        13        13        22
        12        13        14        14        22
        12        13        14        22        22
         6        13        13        22        22
        12        14        14        15        23
        12        14        14        22        23
        12        14        22        22        23
        12        14        15        15        23
        12        14        15        23        23
        12        14        22        23        23
        12        15        15        16        24
        12        15        15        23        24
        12        15        23        23        24
        12        15        16        16        24
        12        15        16        24        24
        12        15        23        24        24
        12        16        16        17        25
        12        16        16        24        25
        12        16        24        24        25
        12        16        17        17        25
        12        16        17        25        25
        12        16        24        25        25
        12        17        17        18        26
        12        17        17        25        26
        12        17        25        25        26
        12        17        18        18        26
        12        17        18        26        26
        12        17        25        26        26
        12        18        18        19        27
        12        18        18        26        27
        12        18        26        26        27
        12        18        19        19        27
        12        18        19        27        27
        12        18        26        27        27
        12        19        19        20        28
        12        19        19        27        28
        12        19        27        27        28
        12        19        20        20        28
        12        19        20        28        28
        12        19        27        28        28
        12        20        20        21        29
        12        20        20        28        29
        12        20        28        28        29
        12        20        21        21        29
        12        20        21        29        29
        12        20        28        29        29
         6        21        21        29        29
        12        21        29        29        29
         6        22        22        23        23
        12        22        23        23        23
        12        23        23        24        30
        12        23        23        23        30
        12        23        24        24        30
        12        23        24        30        30
         6        23        23        30        30
        12        24        24        25        31
        12        24        24        30        31
        12        24        30        30        31
        12        24        25        25        31
        12        24        25        31        31
        12        24        30        31        31
        12        25        25        26        32
        12        25        25        31        32
        12        25        31        31        32
        12        25        26        26        32
        12        25        26        32        32
        12        25        31        32        32
        12        26        26        27        33
        12        26        26        32        33
        12        26        32        32        33
        12        26        27        27        33
        12        26        27        33        33
        12        26        32        33        33
        12        27        27        28        34
        12        27        27        33        34
        12        27        33        33        34
        12        27        28        28        34
        12        27        28        34        34
        12        27        33        34        34
        12        28        28        29        35
        12        28        28        34        35
        12        28        34        34        35
        12        28        29        29        35
        12        28        29        35        35
        12        28        34        35        35
        12        29        29        29        36
        12        29        29        35        36
        12        29        35        35        36
         6        29        29        36        36
        12        29        35        36        36
         6        30        30        31        31
        12        30        31        31        31
        12        31        31        32        37
        12        31        31        31        37
        12        31        32        32        37
        12        31        32        37        37
         6        31        31        37        37
        12        32        32        33        38
        12        32        32        37        38
        12        32        37        37        38
        12        32        33        33        38
        12        32        33        38        38
        12        32        37        38        38
        12        33        33        34        39
        12        33        33        38        39
        12        33        38        38        39
        12        33        34        34        39
        12        33        34        39        39
        12        33        38        39        39
        12        34        34        35        40
        12        34        34        39        40
        12        34        39        39        40
        12        34        35        35        40
        12        34        35        40        40
        12        34        39        40        40
        12        35        35        36        41
        12        35        35        40        41
        12        35        40        40        41
        12        35        36        36        41
        12        35        36        41        41
        12        35        40        41        41
         6        36        36        41        41
        12        36        41        41        41
         6        37        37        38        38
        12        37        38        38        38
        12        38        38        39        42
        12        38        38        38        42
        12        38        39        39        42
        12        38        39        42        42
         6        38        38        42        42
        12        39        39        40        43
        12        39        39        42        43
        12        39        42        42        43
        12        39        40        40        43
        12        39        40        43        43
        12        39        42        43        43
        12        40        40        41        44
        12        40        40        43        44
        12        40        43        43        44
        12        40        41        41        44
        12        40        41        44        44
        12        40        43        44        44
        12        41        41        41        45
        12        41        41        44        45
        12        41        44        44        45
         6        41        41        45        45
        12        41        44        45        45
         6        42        42        43        43
        12        42        43        43        43
        12        43        43        44        46
        12        43        43        43        46
        12        43        44        44        46
        12        43        44        46        46
         6        43        43        46        46
        12        44        44        45        47
        12        44        44        46        47
        12        44        46        46        47
        12        44        45        45        47
        12        44        45        47        47
        12        44        46        47        47
         6        45        45        47        47
        12        45        47        47        47
         6        46        46        47        47
        12        46        47        47        47
        24        47        47        47        48
        12        47        47        48        48
