 running on    4 total cores
 distrk:  each k-point on    4 cores,    1 groups
 distr:  one band on    1 cores,    4 groups
 using from now: INCAR     
 vasp.5.4.4.18Apr17-6-g9f103f2a35 (build May 31 2018 21:15:54) complex          
  
 POSCAR found type information on POSCAR  C 
 POSCAR found :  1 types and       2 ions
 scaLAPACK will be used
 LDA part: xc-table for Pade appr. of Perdew
 POSCAR, INCAR and KPOINTS ok, starting setup
 FFT: planning ...
 WAVECAR not read
 entering main loop
       N       E                     dE             d eps       ncg     rms          rms(c)
DAV:   1     0.565315706748E+02    0.56532E+02   -0.36752E+03   768   0.103E+03
DAV:   2    -0.145966357823E+02   -0.71128E+02   -0.58245E+02  1144   0.132E+02
DAV:   3    -0.197317093691E+02   -0.51351E+01   -0.51351E+01  1032   0.548E+01
DAV:   4    -0.197683914714E+02   -0.36682E-01   -0.36682E-01  1312   0.529E+00
DAV:   5    -0.197684609807E+02   -0.69509E-04   -0.69482E-04  1168   0.190E-01    0.638E+00
DAV:   6    -0.188391135001E+02    0.92935E+00   -0.90068E-01  1096   0.686E+00    0.376E+00
DAV:   7    -0.184791713575E+02    0.35994E+00   -0.11932E+00  1200   0.774E+00    0.981E-01
DAV:   8    -0.184702688085E+02    0.89025E-02   -0.11848E-02  1272   0.104E+00    0.113E-01
DAV:   9    -0.184688932735E+02    0.13755E-02   -0.48182E-04  1136   0.135E-01    0.841E-02
DAV:  10    -0.184634103741E+02    0.54829E-02   -0.40110E-03  1056   0.328E-01    0.512E-02
DAV:  11    -0.184626488034E+02    0.76157E-03   -0.31592E-04   968   0.101E-01    0.715E-02
DAV:  12    -0.184627485412E+02   -0.99738E-04   -0.78459E-05   904   0.610E-02    0.254E-02
DAV:  13    -0.184635795696E+02   -0.83103E-03   -0.81281E-04  1080   0.115E-01    0.321E-02
DAV:  14    -0.184635994808E+02   -0.19911E-04   -0.23564E-05   936   0.263E-02    0.141E-02
DAV:  15    -0.184638733110E+02   -0.27383E-03   -0.69052E-05   872   0.373E-02    0.186E-02
DAV:  16    -0.184641562445E+02   -0.28293E-03   -0.17579E-05   936   0.285E-02    0.951E-03
DAV:  17    -0.184641948850E+02   -0.38641E-04   -0.13852E-06   976   0.976E-03    0.274E-03
DAV:  18    -0.184642483070E+02   -0.53422E-04   -0.10532E-06   856   0.713E-03    0.646E-04
DAV:  19    -0.184642513488E+02   -0.30419E-05   -0.51670E-08  1192   0.140E-03    0.323E-04
DAV:  20    -0.184642530356E+02   -0.16868E-05   -0.27512E-08   944   0.705E-04    0.295E-05
DAV:  21    -0.184642530338E+02    0.18272E-08   -0.61468E-10  1208   0.154E-04
   1 F= -.18464253E+02 E0= -.18464253E+02  d E =-.184643E+02
 curvature:   0.00 expect dE= 0.000E+00 dE for cont linesearch  0.000E+00
 trial: gam= 0.00000 g(F)=  0.163E-39 g(S)=  0.000E+00 ort = 0.000E+00 (trialstep = 0.100E+01)
 search vector abs. value=  0.100E-09
 reached required accuracy - stopping structural energy minimisation
