       N       E                     dE             d eps       ncg     rms          rms(c)
DAV:   1     0.447830976371E+02    0.44783E+02   -0.35266E+03   768   0.103E+03
DAV:   2    -0.143600772619E+02   -0.59143E+02   -0.47667E+02  1232   0.109E+02
DAV:   3    -0.184303806573E+02   -0.40703E+01   -0.40703E+01   976   0.475E+01
DAV:   4    -0.184639688218E+02   -0.33588E-01   -0.33588E-01  1112   0.470E+00
DAV:   5    -0.184642437747E+02   -0.27495E-03   -0.27495E-03  1088   0.299E-01
DAV:   6    -0.184642530268E+02   -0.92521E-05   -0.91536E-05  1264   0.332E-02
DAV:   7    -0.184642532755E+02   -0.24871E-06   -0.12958E-06  1160   0.181E-03
DAV:   8    -0.184642530681E+02    0.20750E-06   -0.10171E-07  1240   0.356E-04
DAV:   9    -0.184642530681E+02   -0.15916E-11   -0.31769E-13  1176   0.967E-06
   1 F= -.18464253E+02 E0= -.18464253E+02  d E =0.000000E+00
       N       E                     dE             d eps       ncg     rms          rms(c)
DAV:   1    -0.184642532181E+02   -0.15009E-06    0.17051E-11   976   0.257E-06
DAV:   2    -0.184642531105E+02    0.10765E-06    0.17233E-11   920   0.162E-06
DAV:   3    -0.184642530848E+02    0.25733E-07    0.16776E-11   672   0.111E-06
DAV:   4    -0.184642530787E+02    0.60486E-08    0.17530E-11   640   0.774E-07
DAV:   5    -0.184642530773E+02    0.14550E-08    0.16907E-11   576   0.548E-07
   2 F= -.18464253E+02 E0= -.18464253E+02  d E =0.000000E+00
       N       E                     dE             d eps       ncg     rms          rms(c)
DAV:   1    -0.184642530769E+02    0.17981E-08    0.16502E-11   576   0.386E-07
DAV:   2    -0.184642530768E+02    0.87311E-10    0.17373E-11   568   0.275E-07
DAV:   3    -0.184642530768E+02    0.27057E-10    0.17906E-11   576   0.194E-07
DAV:   4    -0.184642530768E+02    0.84128E-11    0.16939E-11   552   0.139E-07
DAV:   5    -0.184642530768E+02    0.68212E-12    0.16106E-11   552   0.977E-08
   3 F= -.18464253E+02 E0= -.18464253E+02  d E =0.000000E+00
       N       E                     dE             d eps       ncg     rms          rms(c)
DAV:   1    -0.184642530768E+02    0.15916E-11    0.15979E-11   544   0.693E-08
DAV:   2    -0.184642530768E+02    0.22737E-12    0.16188E-11   536   0.488E-08
DAV:   3    -0.184642530768E+02    0.22737E-12    0.15413E-11   544   0.350E-08
DAV:   4    -0.184642530768E+02    0.22737E-12    0.16056E-11   456   0.248E-08
DAV:   5    -0.184642530768E+02    0.22737E-12    0.16225E-11   456   0.179E-08
   4 F= -.18464253E+02 E0= -.18464253E+02  d E =0.000000E+00
       N       E                     dE             d eps       ncg     rms          rms(c)
DAV:   1    -0.184642530768E+02    0.00000E+00    0.14805E-11   456   0.128E-08
DAV:   2    -0.184642530768E+02    0.22737E-12    0.14936E-11   432   0.925E-09
DAV:   3    -0.184642530768E+02    0.22737E-12    0.15170E-11   432   0.660E-09
DAV:   4    -0.184642530768E+02    0.22737E-12    0.14522E-11   432   0.485E-09
DAV:   5    -0.184642530768E+02    0.00000E+00    0.15193E-11   432   0.345E-09
   5 F= -.18464253E+02 E0= -.18464253E+02  d E =0.000000E+00
       N       E                     dE             d eps       ncg     rms          rms(c)
DAV:   1    -0.184642530768E+02    0.22737E-12    0.15930E-11   432   0.257E-09
DAV:   2    -0.184642530768E+02    0.00000E+00    0.16207E-11   432   0.185E-09
DAV:   3    -0.184642530768E+02    0.22737E-12    0.16258E-11   408   0.138E-09
DAV:   4    -0.184642530768E+02    0.00000E+00    0.16495E-11   408   0.966E-10
DAV:   5    -0.184642530768E+02    0.00000E+00    0.16451E-11   408   0.736E-10
   6 F= -.18464253E+02 E0= -.18464253E+02  d E =0.000000E+00
       N       E                     dE             d eps       ncg     rms          rms(c)
DAV:   1    -0.184642530768E+02    0.45475E-12    0.16380E-11   384   0.538E-10
DAV:   2    -0.184642530768E+02    0.00000E+00    0.16536E-11   384   0.394E-10
DAV:   3    -0.184642530768E+02    0.00000E+00    0.16374E-11   384   0.363E-10
DAV:   4    -0.184642530768E+02    0.22737E-12    0.16596E-11   384   0.274E-10
DAV:   5    -0.184642530768E+02    0.00000E+00    0.16271E-11   384   0.179E-10
   7 F= -.18464253E+02 E0= -.18464253E+02  d E =0.000000E+00
       N       E                     dE             d eps       ncg     rms          rms(c)
DAV:   1    -0.184642530768E+02    0.22737E-12    0.16650E-11   384   0.189E-10
DAV:   2    -0.184642530768E+02    0.00000E+00    0.16914E-11   384   0.115E-10
DAV:   3    -0.184642530768E+02    0.00000E+00    0.17095E-11   384   0.120E-10
DAV:   4    -0.184642530768E+02    0.22737E-12    0.16846E-11   384   0.711E-11
DAV:   5    -0.184642530768E+02    0.00000E+00    0.16708E-11   384   0.106E-10
   8 F= -.18464253E+02 E0= -.18464253E+02  d E =0.000000E+00
       N       E                     dE             d eps       ncg     rms          rms(c)
DAV:   1    -0.184642530768E+02   -0.22737E-12    0.16603E-11   384   0.756E-11
DAV:   2    -0.184642530768E+02    0.00000E+00    0.16541E-11   384   0.690E-11
DAV:   3    -0.184642530768E+02    0.00000E+00    0.16372E-11   384   0.470E-11
DAV:   4    -0.184642530768E+02    0.00000E+00    0.16296E-11   384   0.736E-11
DAV:   5    -0.184642530768E+02    0.00000E+00    0.16291E-11   384   0.369E-11
   9 F= -.18464253E+02 E0= -.18464253E+02  d E =0.000000E+00
       N       E                     dE             d eps       ncg     rms          rms(c)
DAV:   1    -0.184642530768E+02    0.22737E-12    0.17511E-11   384   0.883E-11
DAV:   2    -0.184642530768E+02    0.00000E+00    0.17720E-11   384   0.493E-11
DAV:   3    -0.184642530768E+02    0.00000E+00    0.17650E-11   384   0.426E-11
DAV:   4    -0.184642530768E+02    0.00000E+00    0.17317E-11   384   0.427E-11
DAV:   5    -0.184642530768E+02    0.00000E+00    0.17481E-11   384   0.529E-11
  10 F= -.18464253E+02 E0= -.18464253E+02  d E =0.000000E+00
       N       E                     dE             d eps       ncg     rms          rms(c)
DAV:   1    -0.184642530768E+02    0.00000E+00    0.16245E-11   384   0.609E-11
DAV:   2    -0.184642530768E+02    0.00000E+00    0.16674E-11   384   0.488E-11
DAV:   3    -0.184642530768E+02    0.22737E-12    0.16625E-11   384   0.401E-11
DAV:   4    -0.184642530768E+02    0.00000E+00    0.16619E-11   384   0.356E-11
DAV:   5    -0.184642530768E+02    0.00000E+00    0.16566E-11   384   0.327E-11
  11 F= -.18464253E+02 E0= -.18464253E+02  d E =0.000000E+00
       N       E                     dE             d eps       ncg     rms          rms(c)
DAV:   1    -0.184642530768E+02    0.22737E-12    0.17353E-11   384   0.287E-11
DAV:   2    -0.184642530768E+02    0.00000E+00    0.17635E-11   384   0.328E-11
DAV:   3    -0.184642530768E+02    0.00000E+00    0.17499E-11   384   0.232E-11
DAV:   4    -0.184642530768E+02    0.00000E+00    0.17684E-11   384   0.354E-11
DAV:   5    -0.184642530768E+02    0.00000E+00    0.17761E-11   384   0.466E-11
  12 F= -.18464253E+02 E0= -.18464253E+02  d E =0.000000E+00
       N       E                     dE             d eps       ncg     rms          rms(c)
DAV:   1    -0.184642530768E+02    0.00000E+00    0.16620E-11   384   0.727E-11
DAV:   2    -0.184642530768E+02    0.00000E+00    0.16935E-11   384   0.324E-11
DAV:   3    -0.184642530768E+02    0.00000E+00    0.16641E-11   384   0.285E-11
DAV:   4    -0.184642530768E+02    0.00000E+00    0.16848E-11   384   0.332E-11
DAV:   5    -0.184642530768E+02    0.00000E+00    0.16793E-11   384   0.287E-11
  13 F= -.18464253E+02 E0= -.18464253E+02  d E =0.000000E+00
       N       E                     dE             d eps       ncg     rms          rms(c)
DAV:   1    -0.184642530768E+02    0.00000E+00    0.15848E-11   384   0.268E-11
DAV:   2    -0.184642530768E+02    0.00000E+00    0.16168E-11   384   0.321E-11
DAV:   3    -0.184642530768E+02    0.00000E+00    0.16189E-11   384   0.269E-11
DAV:   4    -0.184642530768E+02    0.00000E+00    0.16071E-11   384   0.428E-11
DAV:   5    -0.184642530768E+02    0.00000E+00    0.15993E-11   384   0.415E-11
  14 F= -.18464253E+02 E0= -.18464253E+02  d E =0.000000E+00
       N       E                     dE             d eps       ncg     rms          rms(c)
DAV:   1    -0.184642530768E+02   -0.22737E-12    0.16678E-11   384   0.400E-11
DAV:   2    -0.184642530768E+02    0.00000E+00    0.16969E-11   384   0.215E-11
DAV:   3    -0.184642530768E+02    0.00000E+00    0.16804E-11   384   0.223E-11
DAV:   4    -0.184642530768E+02    0.00000E+00    0.16551E-11   384   0.250E-11
DAV:   5    -0.184642530768E+02    0.00000E+00    0.16834E-11   384   0.253E-11
  15 F= -.18464253E+02 E0= -.18464253E+02  d E =0.000000E+00
       N       E                     dE             d eps       ncg     rms          rms(c)
DAV:   1    -0.184642530768E+02    0.22737E-12    0.17430E-11   384   0.409E-11
DAV:   2    -0.184642530768E+02    0.00000E+00    0.17122E-11   384   0.224E-11
DAV:   3    -0.184642530768E+02    0.00000E+00    0.17081E-11   384   0.261E-11
DAV:   4    -0.184642530768E+02    0.00000E+00    0.17722E-11   384   0.244E-11
DAV:   5    -0.184642530768E+02    0.00000E+00    0.17329E-11   384   0.366E-11
  16 F= -.18464253E+02 E0= -.18464253E+02  d E =0.000000E+00
       N       E                     dE             d eps       ncg     rms          rms(c)
DAV:   1    -0.184642530768E+02   -0.22737E-12    0.15853E-11   384   0.274E-11
DAV:   2    -0.184642530768E+02    0.00000E+00    0.15810E-11   384   0.286E-11
DAV:   3    -0.184642530768E+02    0.00000E+00    0.15961E-11   384   0.223E-11
DAV:   4    -0.184642530768E+02    0.00000E+00    0.15844E-11   384   0.396E-11
DAV:   5    -0.184642530768E+02    0.00000E+00    0.15504E-11   384   0.299E-11
  17 F= -.18464253E+02 E0= -.18464253E+02  d E =0.000000E+00
       N       E                     dE             d eps       ncg     rms          rms(c)
DAV:   1    -0.184642530768E+02   -0.22737E-12    0.17161E-11   384   0.278E-11
DAV:   2    -0.184642530768E+02    0.00000E+00    0.17070E-11   384   0.199E-11
DAV:   3    -0.184642530768E+02    0.00000E+00    0.17209E-11   384   0.176E-11
DAV:   4    -0.184642530768E+02    0.00000E+00    0.17210E-11   384   0.218E-11
DAV:   5    -0.184642530768E+02    0.00000E+00    0.16963E-11   384   0.217E-11
  18 F= -.18464253E+02 E0= -.18464253E+02  d E =0.000000E+00
       N       E                     dE             d eps       ncg     rms          rms(c)
DAV:   1    -0.184642530768E+02    0.22737E-12    0.16516E-11   384   0.509E-11
DAV:   2    -0.184642530768E+02    0.00000E+00    0.16970E-11   384   0.184E-11
DAV:   3    -0.184642530768E+02    0.00000E+00    0.16708E-11   384   0.317E-11
DAV:   4    -0.184642530768E+02    0.00000E+00    0.16532E-11   384   0.189E-11
DAV:   5    -0.184642530768E+02    0.00000E+00    0.16815E-11   384   0.156E-11
  19 F= -.18464253E+02 E0= -.18464253E+02  d E =0.000000E+00
       N       E                     dE             d eps       ncg     rms          rms(c)
DAV:   1    -0.184642530768E+02   -0.45475E-12    0.16159E-11   384   0.176E-11
DAV:   2    -0.184642530768E+02    0.00000E+00    0.16036E-11   384   0.206E-11
DAV:   3    -0.184642530768E+02    0.00000E+00    0.15965E-11   384   0.230E-11
DAV:   4    -0.184642530768E+02    0.00000E+00    0.15750E-11   384   0.184E-11
DAV:   5    -0.184642530768E+02    0.00000E+00    0.15658E-11   384   0.184E-11
  20 F= -.18464253E+02 E0= -.18464253E+02  d E =0.000000E+00
       N       E                     dE             d eps       ncg     rms          rms(c)
DAV:   1    -0.184642530768E+02    0.22737E-12    0.15413E-11   384   0.501E-11
DAV:   2    -0.184642530768E+02    0.00000E+00    0.15385E-11   384   0.218E-11
DAV:   3    -0.184642530768E+02    0.00000E+00    0.15602E-11   384   0.205E-11
DAV:   4    -0.184642530768E+02    0.00000E+00    0.15379E-11   384   0.182E-11
DAV:   5    -0.184642530768E+02    0.00000E+00    0.15315E-11   384   0.199E-11
  21 F= -.18464253E+02 E0= -.18464253E+02  d E =0.000000E+00
       N       E                     dE             d eps       ncg     rms          rms(c)
DAV:   1    -0.184642530768E+02    0.00000E+00    0.16646E-11   384   0.277E-11
DAV:   2    -0.184642530768E+02    0.00000E+00    0.16694E-11   384   0.129E-11
DAV:   3    -0.184642530768E+02    0.00000E+00    0.16568E-11   384   0.114E-11
DAV:   4    -0.184642530768E+02    0.00000E+00    0.16633E-11   384   0.183E-11
DAV:   5    -0.184642530768E+02    0.00000E+00    0.16939E-11   384   0.142E-11
  22 F= -.18464253E+02 E0= -.18464253E+02  d E =0.000000E+00
       N       E                     dE             d eps       ncg     rms          rms(c)
DAV:   1    -0.184642530768E+02    0.00000E+00    0.16279E-11   384   0.338E-11
DAV:   2    -0.184642530768E+02    0.00000E+00    0.16279E-11   384   0.161E-11
DAV:   3    -0.184642530768E+02    0.00000E+00    0.16601E-11   384   0.230E-11
DAV:   4    -0.184642530768E+02    0.00000E+00    0.16345E-11   384   0.177E-11
DAV:   5    -0.184642530768E+02    0.00000E+00    0.16305E-11   384   0.155E-11
  23 F= -.18464253E+02 E0= -.18464253E+02  d E =0.000000E+00
       N       E                     dE             d eps       ncg     rms          rms(c)
DAV:   1    -0.184642530768E+02    0.00000E+00    0.16528E-11   384   0.214E-11
DAV:   2    -0.184642530768E+02    0.00000E+00    0.16273E-11   384   0.123E-11
DAV:   3    -0.184642530768E+02    0.00000E+00    0.16141E-11   384   0.245E-11
DAV:   4    -0.184642530768E+02    0.00000E+00    0.16379E-11   384   0.162E-11
DAV:   5    -0.184642530768E+02    0.00000E+00    0.16227E-11   384   0.244E-11
  24 F= -.18464253E+02 E0= -.18464253E+02  d E =0.000000E+00
       N       E                     dE             d eps       ncg     rms          rms(c)
DAV:   1    -0.184642530768E+02    0.00000E+00    0.17004E-11   384   0.200E-11
DAV:   2    -0.184642530768E+02    0.00000E+00    0.17353E-11   384   0.147E-11
DAV:   3    -0.184642530768E+02    0.00000E+00    0.17546E-11   384   0.168E-11
DAV:   4    -0.184642530768E+02    0.00000E+00    0.16891E-11   384   0.214E-11
DAV:   5    -0.184642530768E+02    0.00000E+00    0.17168E-11   384   0.150E-11
  25 F= -.18464253E+02 E0= -.18464253E+02  d E =0.000000E+00
       N       E                     dE             d eps       ncg     rms          rms(c)
DAV:   1    -0.184642530768E+02    0.00000E+00    0.15560E-11   384   0.201E-11
DAV:   2    -0.184642530768E+02    0.00000E+00    0.15960E-11   384   0.103E-11
DAV:   3    -0.184642530768E+02    0.00000E+00    0.16038E-11   384   0.151E-11
DAV:   4    -0.184642530768E+02    0.00000E+00    0.15728E-11   384   0.135E-11
DAV:   5    -0.184642530768E+02    0.00000E+00    0.15861E-11   384   0.173E-11
  26 F= -.18464253E+02 E0= -.18464253E+02  d E =0.000000E+00
       N       E                     dE             d eps       ncg     rms          rms(c)
DAV:   1    -0.184642530768E+02    0.22737E-12    0.16415E-11   384   0.269E-11
DAV:   2    -0.184642530768E+02    0.00000E+00    0.16526E-11   384   0.128E-11
DAV:   3    -0.184642530768E+02    0.00000E+00    0.16443E-11   384   0.274E-11
DAV:   4    -0.184642530768E+02    0.00000E+00    0.16587E-11   384   0.151E-11
DAV:   5    -0.184642530768E+02    0.00000E+00    0.16206E-11   384   0.167E-11
  27 F= -.18464253E+02 E0= -.18464253E+02  d E =0.000000E+00
       N       E                     dE             d eps       ncg     rms          rms(c)
DAV:   1    -0.184642530768E+02   -0.22737E-12    0.17448E-11   384   0.258E-11
DAV:   2    -0.184642530768E+02    0.00000E+00    0.17448E-11   384   0.125E-11
DAV:   3    -0.184642530768E+02    0.00000E+00    0.17483E-11   384   0.138E-11
DAV:   4    -0.184642530768E+02    0.00000E+00    0.17428E-11   384   0.142E-11
DAV:   5    -0.184642530768E+02    0.00000E+00    0.17505E-11   384   0.114E-11
  28 F= -.18464253E+02 E0= -.18464253E+02  d E =0.000000E+00
       N       E                     dE             d eps       ncg     rms          rms(c)
DAV:   1    -0.184642530768E+02    0.22737E-12    0.16339E-11   384   0.216E-11
DAV:   2    -0.184642530768E+02    0.00000E+00    0.16792E-11   384   0.925E-12
DAV:   3    -0.184642530768E+02    0.00000E+00    0.16322E-11   384   0.161E-11
DAV:   4    -0.184642530768E+02    0.00000E+00    0.16806E-11   384   0.135E-11
DAV:   5    -0.184642530768E+02    0.00000E+00    0.16415E-11   384   0.159E-11
  29 F= -.18464253E+02 E0= -.18464253E+02  d E =0.000000E+00
       N       E                     dE             d eps       ncg     rms          rms(c)
DAV:   1    -0.184642530768E+02   -0.22737E-12    0.16770E-11   384   0.157E-11
DAV:   2    -0.184642530768E+02    0.00000E+00    0.17125E-11   384   0.120E-11
DAV:   3    -0.184642530768E+02    0.00000E+00    0.16619E-11   384   0.112E-11
DAV:   4    -0.184642530768E+02    0.00000E+00    0.16541E-11   384   0.118E-11
DAV:   5    -0.184642530768E+02    0.00000E+00    0.16853E-11   384   0.151E-11
  30 F= -.18464253E+02 E0= -.18464253E+02  d E =0.000000E+00
       N       E                     dE             d eps       ncg     rms          rms(c)
DAV:   1    -0.184642530768E+02    0.00000E+00    0.16478E-11   384   0.173E-11
DAV:   2    -0.184642530768E+02    0.00000E+00    0.16659E-11   384   0.930E-12
DAV:   3    -0.184642530768E+02    0.00000E+00    0.16468E-11   384   0.102E-11
DAV:   4    -0.184642530768E+02    0.00000E+00    0.16570E-11   384   0.185E-11
DAV:   5    -0.184642530768E+02    0.00000E+00    0.16392E-11   384   0.199E-11
  31 F= -.18464253E+02 E0= -.18464253E+02  d E =0.000000E+00
       N       E                     dE             d eps       ncg     rms          rms(c)
DAV:   1    -0.184642530768E+02    0.22737E-12    0.17053E-11   384   0.292E-11
DAV:   2    -0.184642530768E+02    0.00000E+00    0.17191E-11   384   0.113E-11
DAV:   3    -0.184642530768E+02    0.00000E+00    0.17161E-11   384   0.121E-11
DAV:   4    -0.184642530768E+02    0.00000E+00    0.17022E-11   384   0.116E-11
DAV:   5    -0.184642530768E+02    0.00000E+00    0.17076E-11   384   0.136E-11
  32 F= -.18464253E+02 E0= -.18464253E+02  d E =0.000000E+00
       N       E                     dE             d eps       ncg     rms          rms(c)
DAV:   1    -0.184642530768E+02   -0.22737E-12    0.16807E-11   384   0.185E-11
DAV:   2    -0.184642530768E+02    0.00000E+00    0.16807E-11   384   0.924E-12
DAV:   3    -0.184642530768E+02    0.00000E+00    0.16918E-11   384   0.130E-11
DAV:   4    -0.184642530768E+02    0.00000E+00    0.16939E-11   384   0.123E-11
DAV:   5    -0.184642530768E+02    0.00000E+00    0.16998E-11   384   0.113E-11
  33 F= -.18464253E+02 E0= -.18464253E+02  d E =0.000000E+00
       N       E                     dE             d eps       ncg     rms          rms(c)
DAV:   1    -0.184642530768E+02    0.22737E-12    0.18099E-11   384   0.217E-11
DAV:   2    -0.184642530768E+02    0.00000E+00    0.18168E-11   384   0.966E-12
DAV:   3    -0.184642530768E+02    0.00000E+00    0.18214E-11   384   0.110E-11
DAV:   4    -0.184642530768E+02    0.00000E+00    0.18106E-11   384   0.156E-11
DAV:   5    -0.184642530768E+02    0.00000E+00    0.18286E-11   384   0.134E-11
  34 F= -.18464253E+02 E0= -.18464253E+02  d E =0.000000E+00
       N       E                     dE             d eps       ncg     rms          rms(c)
DAV:   1    -0.184642530768E+02   -0.22737E-12    0.15844E-11   384   0.140E-11
DAV:   2    -0.184642530768E+02    0.00000E+00    0.15445E-11   384   0.922E-12
DAV:   3    -0.184642530768E+02    0.00000E+00    0.15526E-11   384   0.145E-11
DAV:   4    -0.184642530768E+02    0.00000E+00    0.15303E-11   384   0.128E-11
DAV:   5    -0.184642530768E+02    0.00000E+00    0.15749E-11   384   0.110E-11
  35 F= -.18464253E+02 E0= -.18464253E+02  d E =0.000000E+00
       N       E                     dE             d eps       ncg     rms          rms(c)
DAV:   1    -0.184642530768E+02    0.22737E-12    0.16441E-11   384   0.180E-11
DAV:   2    -0.184642530768E+02    0.00000E+00    0.16590E-11   384   0.887E-12
DAV:   3    -0.184642530768E+02    0.00000E+00    0.16648E-11   384   0.120E-11
DAV:   4    -0.184642530768E+02    0.00000E+00    0.16596E-11   384   0.130E-11
DAV:   5    -0.184642530768E+02    0.00000E+00    0.16800E-11   384   0.113E-11
  36 F= -.18464253E+02 E0= -.18464253E+02  d E =0.000000E+00
       N       E                     dE             d eps       ncg     rms          rms(c)
DAV:   1    -0.184642530768E+02   -0.22737E-12    0.16177E-11   384   0.181E-11
DAV:   2    -0.184642530768E+02    0.00000E+00    0.16059E-11   384   0.889E-12
DAV:   3    -0.184642530768E+02    0.00000E+00    0.15947E-11   384   0.987E-12
DAV:   4    -0.184642530768E+02    0.00000E+00    0.16108E-11   384   0.128E-11
DAV:   5    -0.184642530768E+02    0.00000E+00    0.15710E-11   384   0.120E-11
  37 F= -.18464253E+02 E0= -.18464253E+02  d E =0.000000E+00
       N       E                     dE             d eps       ncg     rms          rms(c)
DAV:   1    -0.184642530768E+02    0.22737E-12    0.17477E-11   384   0.140E-11
DAV:   2    -0.184642530768E+02    0.00000E+00    0.17278E-11   384   0.927E-12
DAV:   3    -0.184642530768E+02    0.00000E+00    0.17362E-11   384   0.882E-12
DAV:   4    -0.184642530768E+02    0.00000E+00    0.17511E-11   384   0.152E-11
DAV:   5    -0.184642530768E+02    0.00000E+00    0.17266E-11   384   0.143E-11
  38 F= -.18464253E+02 E0= -.18464253E+02  d E =0.000000E+00
       N       E                     dE             d eps       ncg     rms          rms(c)
DAV:   1    -0.184642530768E+02    0.00000E+00    0.17043E-11   384   0.206E-11
DAV:   2    -0.184642530768E+02    0.00000E+00    0.17192E-11   384   0.893E-12
DAV:   3    -0.184642530768E+02    0.00000E+00    0.17332E-11   384   0.967E-12
DAV:   4    -0.184642530768E+02    0.00000E+00    0.17362E-11   384   0.121E-11
DAV:   5    -0.184642530768E+02   -0.22737E-12    0.16994E-11   384   0.107E-11
  39 F= -.18464253E+02 E0= -.18464253E+02  d E =0.000000E+00
       N       E                     dE             d eps       ncg     rms          rms(c)
DAV:   1    -0.184642530768E+02   -0.22737E-12    0.15848E-11   384   0.152E-11
DAV:   2    -0.184642530768E+02    0.00000E+00    0.15690E-11   384   0.840E-12
DAV:   3    -0.184642530768E+02    0.00000E+00    0.15646E-11   384   0.894E-12
DAV:   4    -0.184642530768E+02    0.00000E+00    0.15451E-11   384   0.116E-11
DAV:   5    -0.184642530768E+02    0.00000E+00    0.15766E-11   384   0.105E-11
  40 F= -.18464253E+02 E0= -.18464253E+02  d E =0.000000E+00
       N       E                     dE             d eps       ncg     rms          rms(c)
DAV:   1    -0.184642530768E+02    0.22737E-12    0.17454E-11   384   0.131E-11
DAV:   2    -0.184642530768E+02    0.00000E+00    0.17441E-11   384   0.836E-12
DAV:   3    -0.184642530768E+02    0.00000E+00    0.17774E-11   384   0.897E-12
DAV:   4    -0.184642530768E+02    0.00000E+00    0.17616E-11   384   0.121E-11
DAV:   5    -0.184642530768E+02    0.00000E+00    0.17467E-11   384   0.992E-12
  41 F= -.18464253E+02 E0= -.18464253E+02  d E =0.000000E+00
       N       E                     dE             d eps       ncg     rms          rms(c)
DAV:   1    -0.184642530768E+02   -0.22737E-12    0.17291E-11   384   0.145E-11
DAV:   2    -0.184642530768E+02    0.00000E+00    0.17472E-11   384   0.814E-12
DAV:   3    -0.184642530768E+02    0.00000E+00    0.17466E-11   384   0.970E-12
DAV:   4    -0.184642530768E+02    0.00000E+00    0.17165E-11   384   0.101E-11
DAV:   5    -0.184642530768E+02    0.00000E+00    0.17444E-11   384   0.984E-12
  42 F= -.18464253E+02 E0= -.18464253E+02  d E =0.000000E+00
       N       E                     dE             d eps       ncg     rms          rms(c)
DAV:   1    -0.184642530768E+02    0.00000E+00    0.15902E-11   384   0.138E-11
DAV:   2    -0.184642530768E+02    0.00000E+00    0.16441E-11   384   0.782E-12
DAV:   3    -0.184642530768E+02    0.00000E+00    0.15976E-11   384   0.768E-12
DAV:   4    -0.184642530768E+02    0.00000E+00    0.16104E-11   384   0.998E-12
DAV:   5    -0.184642530768E+02   -0.22737E-12    0.16147E-11   384   0.933E-12
  43 F= -.18464253E+02 E0= -.18464253E+02  d E =0.000000E+00
       N       E                     dE             d eps       ncg     rms          rms(c)
DAV:   1    -0.184642530768E+02    0.00000E+00    0.17641E-11   384   0.178E-11
DAV:   2    -0.184642530768E+02    0.00000E+00    0.17833E-11   384   0.802E-12
DAV:   3    -0.184642530768E+02    0.00000E+00    0.17755E-11   384   0.815E-12
DAV:   4    -0.184642530768E+02    0.00000E+00    0.17600E-11   384   0.103E-11
DAV:   5    -0.184642530768E+02    0.00000E+00    0.17475E-11   384   0.900E-12
  44 F= -.18464253E+02 E0= -.18464253E+02  d E =0.000000E+00
       N       E                     dE             d eps       ncg     rms          rms(c)
DAV:   1    -0.184642530768E+02    0.00000E+00    0.16852E-11   384   0.183E-11
DAV:   2    -0.184642530768E+02    0.00000E+00    0.16509E-11   384   0.813E-12
DAV:   3    -0.184642530768E+02    0.00000E+00    0.16529E-11   384   0.764E-12
DAV:   4    -0.184642530768E+02    0.00000E+00    0.16359E-11   384   0.110E-11
DAV:   5    -0.184642530768E+02    0.00000E+00    0.16750E-11   384   0.906E-12
  45 F= -.18464253E+02 E0= -.18464253E+02  d E =0.000000E+00
       N       E                     dE             d eps       ncg     rms          rms(c)
DAV:   1    -0.184642530768E+02    0.00000E+00    0.16913E-11   384   0.162E-11
DAV:   2    -0.184642530768E+02    0.00000E+00    0.17305E-11   384   0.808E-12
DAV:   3    -0.184642530768E+02    0.00000E+00    0.17054E-11   384   0.809E-12
DAV:   4    -0.184642530768E+02    0.00000E+00    0.17220E-11   384   0.963E-12
DAV:   5    -0.184642530768E+02    0.00000E+00    0.17040E-11   384   0.914E-12
  46 F= -.18464253E+02 E0= -.18464253E+02  d E =0.000000E+00
       N       E                     dE             d eps       ncg     rms          rms(c)
DAV:   1    -0.184642530768E+02    0.00000E+00    0.16736E-11   384   0.170E-11
DAV:   2    -0.184642530768E+02    0.00000E+00    0.16747E-11   384   0.784E-12
DAV:   3    -0.184642530768E+02    0.00000E+00    0.17013E-11   384   0.748E-12
DAV:   4    -0.184642530768E+02    0.00000E+00    0.16752E-11   384   0.849E-12
DAV:   5    -0.184642530768E+02    0.00000E+00    0.16628E-11   384   0.869E-12
  47 F= -.18464253E+02 E0= -.18464253E+02  d E =0.000000E+00
       N       E                     dE             d eps       ncg     rms          rms(c)
DAV:   1    -0.184642530768E+02    0.00000E+00    0.16044E-11   384   0.136E-11
DAV:   2    -0.184642530768E+02    0.00000E+00    0.16104E-11   384   0.759E-12
DAV:   3    -0.184642530768E+02    0.00000E+00    0.15931E-11   384   0.777E-12
DAV:   4    -0.184642530768E+02    0.00000E+00    0.16088E-11   384   0.833E-12
DAV:   5    -0.184642530768E+02    0.00000E+00    0.15843E-11   384   0.982E-12
  48 F= -.18464253E+02 E0= -.18464253E+02  d E =0.000000E+00
       N       E                     dE             d eps       ncg     rms          rms(c)
DAV:   1    -0.184642530768E+02    0.22737E-12    0.17642E-11   384   0.132E-11
DAV:   2    -0.184642530768E+02    0.00000E+00    0.17579E-11   384   0.773E-12
DAV:   3    -0.184642530768E+02    0.00000E+00    0.17474E-11   384   0.775E-12
DAV:   4    -0.184642530768E+02    0.00000E+00    0.17591E-11   384   0.838E-12
DAV:   5    -0.184642530768E+02    0.00000E+00    0.17654E-11   384   0.840E-12
  49 F= -.18464253E+02 E0= -.18464253E+02  d E =0.000000E+00
       N       E                     dE             d eps       ncg     rms          rms(c)
DAV:   1    -0.184642530768E+02   -0.22737E-12    0.16603E-11   384   0.157E-11
DAV:   2    -0.184642530768E+02    0.00000E+00    0.16656E-11   384   0.804E-12
DAV:   3    -0.184642530768E+02    0.00000E+00    0.16590E-11   384   0.780E-12
DAV:   4    -0.184642530768E+02    0.00000E+00    0.16520E-11   384   0.880E-12
DAV:   5    -0.184642530768E+02    0.00000E+00    0.16382E-11   384   0.879E-12
  50 F= -.18464253E+02 E0= -.18464253E+02  d E =0.000000E+00
       N       E                     dE             d eps       ncg     rms          rms(c)
DAV:   1    -0.184642530768E+02    0.22737E-12    0.17272E-11   384   0.152E-11
DAV:   2    -0.184642530768E+02    0.00000E+00    0.17232E-11   384   0.769E-12
DAV:   3    -0.184642530768E+02    0.00000E+00    0.17576E-11   384   0.742E-12
DAV:   4    -0.184642530768E+02    0.00000E+00    0.17503E-11   384   0.822E-12
DAV:   5    -0.184642530768E+02    0.00000E+00    0.17575E-11   384   0.843E-12
  51 F= -.18464253E+02 E0= -.18464253E+02  d E =0.000000E+00
       N       E                     dE             d eps       ncg     rms          rms(c)
DAV:   1    -0.184642530768E+02   -0.22737E-12    0.16458E-11   384   0.133E-11
DAV:   2    -0.184642530768E+02    0.00000E+00    0.16798E-11   384   0.765E-12
DAV:   3    -0.184642530768E+02    0.00000E+00    0.16524E-11   384   0.750E-12
DAV:   4    -0.184642530768E+02    0.00000E+00    0.16239E-11   384   0.894E-12
DAV:   5    -0.184642530768E+02    0.00000E+00    0.16822E-11   384   0.821E-12
  52 F= -.18464253E+02 E0= -.18464253E+02  d E =0.000000E+00
       N       E                     dE             d eps       ncg     rms          rms(c)
DAV:   1    -0.184642530768E+02    0.22737E-12    0.14320E-11   384   0.165E-11
DAV:   2    -0.184642530768E+02    0.00000E+00    0.14631E-11   384   0.823E-12
DAV:   3    -0.184642530768E+02    0.00000E+00    0.14550E-11   384   0.771E-12
DAV:   4    -0.184642530768E+02    0.00000E+00    0.14508E-11   384   0.840E-12
DAV:   5    -0.184642530768E+02    0.00000E+00    0.14564E-11   384   0.818E-12
  53 F= -.18464253E+02 E0= -.18464253E+02  d E =0.000000E+00
       N       E                     dE             d eps       ncg     rms          rms(c)
DAV:   1    -0.184642530768E+02   -0.22737E-12    0.17951E-11   384   0.142E-11
DAV:   2    -0.184642530768E+02    0.00000E+00    0.18187E-11   384   0.755E-12
DAV:   3    -0.184642530768E+02    0.00000E+00    0.18116E-11   384   0.787E-12
DAV:   4    -0.184642530768E+02    0.00000E+00    0.18374E-11   384   0.863E-12
DAV:   5    -0.184642530768E+02    0.00000E+00    0.18210E-11   384   0.877E-12
  54 F= -.18464253E+02 E0= -.18464253E+02  d E =0.000000E+00
       N       E                     dE             d eps       ncg     rms          rms(c)
DAV:   1    -0.184642530768E+02    0.22737E-12    0.17989E-11   384   0.123E-11
DAV:   2    -0.184642530768E+02    0.00000E+00    0.17906E-11   384   0.732E-12
DAV:   3    -0.184642530768E+02    0.00000E+00    0.18010E-11   384   0.759E-12
DAV:   4    -0.184642530768E+02    0.00000E+00    0.18015E-11   384   0.849E-12
DAV:   5    -0.184642530768E+02    0.00000E+00    0.18384E-11   384   0.859E-12
  55 F= -.18464253E+02 E0= -.18464253E+02  d E =0.000000E+00
       N       E                     dE             d eps       ncg     rms          rms(c)
DAV:   1    -0.184642530768E+02    0.00000E+00    0.17187E-11   384   0.160E-11
DAV:   2    -0.184642530768E+02    0.00000E+00    0.17121E-11   384   0.779E-12
DAV:   3    -0.184642530768E+02    0.00000E+00    0.17315E-11   384   0.760E-12
DAV:   4    -0.184642530768E+02    0.00000E+00    0.17400E-11   384   0.833E-12
DAV:   5    -0.184642530768E+02    0.00000E+00    0.17093E-11   384   0.816E-12
  56 F= -.18464253E+02 E0= -.18464253E+02  d E =0.000000E+00
       N       E                     dE             d eps       ncg     rms          rms(c)
DAV:   1    -0.184642530768E+02   -0.22737E-12    0.16634E-11   384   0.152E-11
DAV:   2    -0.184642530768E+02    0.00000E+00    0.16765E-11   384   0.765E-12
DAV:   3    -0.184642530768E+02    0.00000E+00    0.16598E-11   384   0.742E-12
DAV:   4    -0.184642530768E+02    0.00000E+00    0.16830E-11   384   0.781E-12
DAV:   5    -0.184642530768E+02    0.00000E+00    0.16850E-11   384   0.790E-12
  57 F= -.18464253E+02 E0= -.18464253E+02  d E =0.000000E+00
       N       E                     dE             d eps       ncg     rms          rms(c)
DAV:   1    -0.184642530768E+02    0.22737E-12    0.17896E-11   384   0.154E-11
DAV:   2    -0.184642530768E+02    0.00000E+00    0.18009E-11   384   0.751E-12
DAV:   3    -0.184642530768E+02    0.00000E+00    0.18008E-11   384   0.719E-12
DAV:   4    -0.184642530768E+02    0.00000E+00    0.18032E-11   384   0.792E-12
DAV:   5    -0.184642530768E+02    0.00000E+00    0.18072E-11   384   0.783E-12
  58 F= -.18464253E+02 E0= -.18464253E+02  d E =0.000000E+00
       N       E                     dE             d eps       ncg     rms          rms(c)
DAV:   1    -0.184642530768E+02   -0.22737E-12    0.17563E-11   384   0.168E-11
DAV:   2    -0.184642530768E+02    0.00000E+00    0.17413E-11   384   0.763E-12
DAV:   3    -0.184642530768E+02    0.00000E+00    0.17517E-11   384   0.740E-12
DAV:   4    -0.184642530768E+02    0.00000E+00    0.17416E-11   384   0.766E-12
DAV:   5    -0.184642530768E+02    0.00000E+00    0.17441E-11   384   0.778E-12
  59 F= -.18464253E+02 E0= -.18464253E+02  d E =0.000000E+00
       N       E                     dE             d eps       ncg     rms          rms(c)
DAV:   1    -0.184642530768E+02    0.00000E+00    0.17020E-11   384   0.156E-11
DAV:   2    -0.184642530768E+02    0.22737E-12    0.16836E-11   384   0.728E-12
DAV:   3    -0.184642530768E+02    0.00000E+00    0.17021E-11   384   0.682E-12
DAV:   4    -0.184642530768E+02   -0.22737E-12    0.16845E-11   384   0.759E-12
DAV:   5    -0.184642530768E+02    0.22737E-12    0.16497E-11   384   0.748E-12
  60 F= -.18464253E+02 E0= -.18464253E+02  d E =0.000000E+00
       N       E                     dE             d eps       ncg     rms          rms(c)
DAV:   1    -0.184642530768E+02    0.00000E+00    0.15873E-11   384   0.119E-11
DAV:   2    -0.184642530768E+02    0.00000E+00    0.15292E-11   384   0.733E-12
DAV:   3    -0.184642530768E+02    0.00000E+00    0.15905E-11   384   0.731E-12
DAV:   4    -0.184642530768E+02    0.00000E+00    0.15491E-11   384   0.799E-12
DAV:   5    -0.184642530768E+02    0.00000E+00    0.15517E-11   384   0.778E-12
  61 F= -.18464253E+02 E0= -.18464253E+02  d E =0.000000E+00
       N       E                     dE             d eps       ncg     rms          rms(c)
DAV:   1    -0.184642530768E+02    0.22737E-12    0.15999E-11   384   0.160E-11
DAV:   2    -0.184642530768E+02    0.00000E+00    0.16080E-11   384   0.780E-12
DAV:   3    -0.184642530768E+02    0.00000E+00    0.16059E-11   384   0.730E-12
DAV:   4    -0.184642530768E+02    0.00000E+00    0.15995E-11   384   0.814E-12
DAV:   5    -0.184642530768E+02    0.00000E+00    0.15934E-11   384   0.801E-12
  62 F= -.18464253E+02 E0= -.18464253E+02  d E =0.000000E+00
       N       E                     dE             d eps       ncg     rms          rms(c)
DAV:   1    -0.184642530768E+02   -0.22737E-12    0.16332E-11   384   0.117E-11
DAV:   2    -0.184642530768E+02    0.00000E+00    0.16709E-11   384   0.759E-12
DAV:   3    -0.184642530768E+02    0.00000E+00    0.16409E-11   384   0.744E-12
DAV:   4    -0.184642530768E+02    0.00000E+00    0.16225E-11   384   0.814E-12
DAV:   5    -0.184642530768E+02    0.00000E+00    0.16341E-11   384   0.794E-12
  63 F= -.18464253E+02 E0= -.18464253E+02  d E =0.000000E+00
       N       E                     dE             d eps       ncg     rms          rms(c)
DAV:   1    -0.184642530768E+02    0.00000E+00    0.14891E-11   384   0.142E-11
DAV:   2    -0.184642530768E+02    0.00000E+00    0.14962E-11   384   0.721E-12
DAV:   3    -0.184642530768E+02    0.00000E+00    0.14852E-11   384   0.692E-12
DAV:   4    -0.184642530768E+02    0.00000E+00    0.14843E-11   384   0.749E-12
DAV:   5    -0.184642530768E+02    0.00000E+00    0.14969E-11   384   0.787E-12
  64 F= -.18464253E+02 E0= -.18464253E+02  d E =0.000000E+00
       N       E                     dE             d eps       ncg     rms          rms(c)
DAV:   1    -0.184642530768E+02    0.22737E-12    0.17051E-11   384   0.125E-11
DAV:   2    -0.184642530768E+02    0.00000E+00    0.16985E-11   384   0.753E-12
DAV:   3    -0.184642530768E+02    0.00000E+00    0.17188E-11   384   0.748E-12
DAV:   4    -0.184642530768E+02    0.00000E+00    0.17052E-11   384   0.799E-12
DAV:   5    -0.184642530768E+02    0.00000E+00    0.17014E-11   384   0.831E-12
  65 F= -.18464253E+02 E0= -.18464253E+02  d E =0.000000E+00
       N       E                     dE             d eps       ncg     rms          rms(c)
DAV:   1    -0.184642530768E+02    0.00000E+00    0.15984E-11   384   0.134E-11
DAV:   2    -0.184642530768E+02    0.00000E+00    0.15846E-11   384   0.759E-12
DAV:   3    -0.184642530768E+02    0.00000E+00    0.15890E-11   384   0.741E-12
DAV:   4    -0.184642530768E+02    0.00000E+00    0.16068E-11   384   0.804E-12
DAV:   5    -0.184642530768E+02    0.00000E+00    0.15799E-11   384   0.831E-12
  66 F= -.18464253E+02 E0= -.18464253E+02  d E =0.000000E+00
       N       E                     dE             d eps       ncg     rms          rms(c)
DAV:   1    -0.184642530768E+02   -0.22737E-12    0.16523E-11   384   0.122E-11
DAV:   2    -0.184642530768E+02    0.00000E+00    0.17022E-11   384   0.761E-12
DAV:   3    -0.184642530768E+02    0.00000E+00    0.16923E-11   384   0.748E-12
DAV:   4    -0.184642530768E+02    0.00000E+00    0.17033E-11   384   0.800E-12
DAV:   5    -0.184642530768E+02    0.00000E+00    0.16857E-11   384   0.813E-12
  67 F= -.18464253E+02 E0= -.18464253E+02  d E =0.000000E+00
       N       E                     dE             d eps       ncg     rms          rms(c)
DAV:   1    -0.184642530768E+02    0.00000E+00    0.16371E-11   384   0.178E-11
DAV:   2    -0.184642530768E+02    0.00000E+00    0.16742E-11   384   0.810E-12
DAV:   3    -0.184642530768E+02   -0.22737E-12    0.16476E-11   384   0.720E-12
DAV:   4    -0.184642530768E+02    0.00000E+00    0.16484E-11   384   0.772E-12
DAV:   5    -0.184642530768E+02    0.22737E-12    0.16645E-11   384   0.783E-12
  68 F= -.18464253E+02 E0= -.18464253E+02  d E =0.000000E+00
       N       E                     dE             d eps       ncg     rms          rms(c)
DAV:   1    -0.184642530768E+02    0.22737E-12    0.17547E-11   384   0.144E-11
DAV:   2    -0.184642530768E+02    0.00000E+00    0.17545E-11   384   0.758E-12
DAV:   3    -0.184642530768E+02    0.00000E+00    0.17757E-11   384   0.729E-12
DAV:   4    -0.184642530768E+02    0.00000E+00    0.17473E-11   384   0.763E-12
DAV:   5    -0.184642530768E+02    0.00000E+00    0.17601E-11   384   0.767E-12
  69 F= -.18464253E+02 E0= -.18464253E+02  d E =0.000000E+00
       N       E                     dE             d eps       ncg     rms          rms(c)
DAV:   1    -0.184642530768E+02    0.22737E-12    0.17106E-11   384   0.124E-11
DAV:   2    -0.184642530768E+02    0.00000E+00    0.17138E-11   384   0.725E-12
DAV:   3    -0.184642530768E+02    0.00000E+00    0.17398E-11   384   0.727E-12
DAV:   4    -0.184642530768E+02    0.00000E+00    0.17325E-11   384   0.775E-12
DAV:   5    -0.184642530768E+02    0.00000E+00    0.17210E-11   384   0.769E-12
  70 F= -.18464253E+02 E0= -.18464253E+02  d E =0.000000E+00
       N       E                     dE             d eps       ncg     rms          rms(c)
DAV:   1    -0.184642530768E+02   -0.22737E-12    0.15571E-11   384   0.114E-11
DAV:   2    -0.184642530768E+02    0.00000E+00    0.15233E-11   384   0.722E-12
DAV:   3    -0.184642530768E+02    0.00000E+00    0.15436E-11   384   0.726E-12
DAV:   4    -0.184642530768E+02    0.00000E+00    0.15519E-11   384   0.761E-12
DAV:   5    -0.184642530768E+02    0.00000E+00    0.15555E-11   384   0.773E-12
  71 F= -.18464253E+02 E0= -.18464253E+02  d E =0.000000E+00
       N       E                     dE             d eps       ncg     rms          rms(c)
DAV:   1    -0.184642530768E+02    0.00000E+00    0.16443E-11   384   0.147E-11
DAV:   2    -0.184642530768E+02    0.00000E+00    0.16727E-11   384   0.754E-12
DAV:   3    -0.184642530768E+02    0.00000E+00    0.16789E-11   384   0.725E-12
DAV:   4    -0.184642530768E+02    0.00000E+00    0.16516E-11   384   0.772E-12
DAV:   5    -0.184642530768E+02    0.00000E+00    0.16664E-11   384   0.757E-12
  72 F= -.18464253E+02 E0= -.18464253E+02  d E =0.000000E+00
       N       E                     dE             d eps       ncg     rms          rms(c)
DAV:   1    -0.184642530768E+02    0.00000E+00    0.16280E-11   384   0.114E-11
DAV:   2    -0.184642530768E+02    0.00000E+00    0.16272E-11   384   0.742E-12
DAV:   3    -0.184642530768E+02    0.00000E+00    0.16474E-11   384   0.736E-12
DAV:   4    -0.184642530768E+02    0.00000E+00    0.16409E-11   384   0.773E-12
DAV:   5    -0.184642530768E+02    0.00000E+00    0.16415E-11   384   0.771E-12
  73 F= -.18464253E+02 E0= -.18464253E+02  d E =0.000000E+00
       N       E                     dE             d eps       ncg     rms          rms(c)
DAV:   1    -0.184642530768E+02    0.22737E-12    0.16253E-11   384   0.128E-11
DAV:   2    -0.184642530768E+02    0.00000E+00    0.16396E-11   384   0.730E-12
DAV:   3    -0.184642530768E+02    0.00000E+00    0.16342E-11   384   0.740E-12
DAV:   4    -0.184642530768E+02    0.00000E+00    0.16251E-11   384   0.800E-12
DAV:   5    -0.184642530768E+02    0.00000E+00    0.16408E-11   384   0.808E-12
  74 F= -.18464253E+02 E0= -.18464253E+02  d E =0.000000E+00
       N       E                     dE             d eps       ncg     rms          rms(c)
DAV:   1    -0.184642530768E+02   -0.22737E-12    0.16056E-11   384   0.143E-11
DAV:   2    -0.184642530768E+02    0.00000E+00    0.15933E-11   384   0.727E-12
DAV:   3    -0.184642530768E+02    0.00000E+00    0.15725E-11   384   0.712E-12
DAV:   4    -0.184642530768E+02    0.00000E+00    0.15852E-11   384   0.792E-12
DAV:   5    -0.184642530768E+02    0.00000E+00    0.15544E-11   384   0.808E-12
  75 F= -.18464253E+02 E0= -.18464253E+02  d E =0.000000E+00
       N       E                     dE             d eps       ncg     rms          rms(c)
DAV:   1    -0.184642530768E+02    0.22737E-12    0.17138E-11   384   0.127E-11
DAV:   2    -0.184642530768E+02    0.00000E+00    0.17427E-11   384   0.727E-12
DAV:   3    -0.184642530768E+02    0.00000E+00    0.17579E-11   384   0.736E-12
DAV:   4    -0.184642530768E+02    0.00000E+00    0.17492E-11   384   0.789E-12
DAV:   5    -0.184642530768E+02    0.00000E+00    0.17448E-11   384   0.803E-12
  76 F= -.18464253E+02 E0= -.18464253E+02  d E =0.000000E+00
       N       E                     dE             d eps       ncg     rms          rms(c)
DAV:   1    -0.184642530768E+02   -0.22737E-12    0.17085E-11   384   0.131E-11
DAV:   2    -0.184642530768E+02    0.00000E+00    0.16982E-11   384   0.720E-12
DAV:   3    -0.184642530768E+02    0.00000E+00    0.17046E-11   384   0.718E-12
DAV:   4    -0.184642530768E+02    0.00000E+00    0.16835E-11   384   0.748E-12
DAV:   5    -0.184642530768E+02    0.00000E+00    0.17049E-11   384   0.746E-12
  77 F= -.18464253E+02 E0= -.18464253E+02  d E =0.000000E+00
       N       E                     dE             d eps       ncg     rms          rms(c)
DAV:   1    -0.184642530768E+02    0.00000E+00    0.16424E-11   384   0.125E-11
DAV:   2    -0.184642530768E+02    0.00000E+00    0.15950E-11   384   0.715E-12
DAV:   3    -0.184642530768E+02    0.00000E+00    0.16298E-11   384   0.723E-12
DAV:   4    -0.184642530768E+02    0.00000E+00    0.16046E-11   384   0.769E-12
DAV:   5    -0.184642530768E+02    0.00000E+00    0.16210E-11   384   0.779E-12
  78 F= -.18464253E+02 E0= -.18464253E+02  d E =0.000000E+00
       N       E                     dE             d eps       ncg     rms          rms(c)
DAV:   1    -0.184642530768E+02    0.00000E+00    0.17411E-11   384   0.156E-11
DAV:   2    -0.184642530768E+02    0.00000E+00    0.17346E-11   384   0.778E-12
DAV:   3    -0.184642530768E+02   -0.22737E-12    0.17078E-11   384   0.743E-12
DAV:   4    -0.184642530768E+02    0.22737E-12    0.17385E-11   384   0.802E-12
DAV:   5    -0.184642530768E+02    0.00000E+00    0.17313E-11   384   0.805E-12
  79 F= -.18464253E+02 E0= -.18464253E+02  d E =0.000000E+00
       N       E                     dE             d eps       ncg     rms          rms(c)
DAV:   1    -0.184642530768E+02    0.00000E+00    0.14736E-11   384   0.123E-11
DAV:   2    -0.184642530768E+02    0.00000E+00    0.14910E-11   384   0.746E-12
DAV:   3    -0.184642530768E+02    0.00000E+00    0.15053E-11   384   0.736E-12
DAV:   4    -0.184642530768E+02    0.00000E+00    0.14932E-11   384   0.810E-12
DAV:   5    -0.184642530768E+02    0.00000E+00    0.14701E-11   384   0.779E-12
  80 F= -.18464253E+02 E0= -.18464253E+02  d E =0.000000E+00
