<?xml version="1.0" encoding="ISO-8859-1"?>
<modeling>
 <generator>
  <i name="program" type="string">vasp </i>
  <i name="version" type="string">5.4.4.18Apr17-6-g9f103f2a35  </i>
  <i name="subversion" type="string">(build May 31 2018 21:15:54) complex            parallel </i>
  <i name="platform" type="string">c7_intel_O1 </i>
  <i name="date" type="string">2020 07 28 </i>
  <i name="time" type="string">15:13:29 </i>
 </generator>
 <incar>
  <i type="string" name="SYSTEM"> C:graphene</i>
  <i type="int" name="ISTART">     0</i>
  <i type="string" name="PREC">accurate</i>
  <i type="string" name="ALGO"> N</i>
  <i type="logical" name="ADDGRID"> T  </i>
  <i name="AMIN">      0.01000000</i>
  <i type="int" name="ICHARG">    11</i>
  <i type="int" name="NELMIN">     5</i>
  <i type="int" name="IBRION">    -1</i>
  <i name="EDIFF">      0.00000001</i>
  <i name="EDIFFG">      0.00000010</i>
  <i type="int" name="NSW">    80</i>
  <i name="SYMPREC">      0.00010000</i>
  <i name="ENCUT">    800.00000000</i>
  <i type="int" name="NEDOS">  9001</i>
  <i type="logical" name="LREAL"> F  </i>
  <i type="int" name="ISMEAR">    -5</i>
  <i name="SIGMA">      0.01000000</i>
  <i type="logical" name="LWAVE"> F  </i>
  <v type="int" name="KPOINT_BSE">    -1     0     0     0</v>
 </incar>
 <structure name="primitive_cell" >
  <crystal>
   <varray name="basis" >
    <v>       2.13000000      -1.22975600       0.00000000 </v>
    <v>       2.13000000       1.22975600       0.00000000 </v>
    <v>       0.00000000       0.00000000      20.00000000 </v>
   </varray>
   <i name="volume">    104.77521120 </i>
   <varray name="rec_basis" >
    <v>       0.23474178      -0.40658472       0.00000000 </v>
    <v>       0.23474178       0.40658472       0.00000000 </v>
    <v>       0.00000000       0.00000000       0.05000000 </v>
   </varray>
  </crystal>
  <varray name="positions" >
   <v>       0.00000000       0.00000000       0.00000000 </v>
   <v>       0.33333300       0.33333300       0.00000000 </v>
  </varray>
 </structure>
 <varray name="primitive_index" >
  <v type="int" >        1 </v>
  <v type="int" >        2 </v>
 </varray>
 <kpoints>
  <generation param="Gamma">
   <v type="int" name="divisions">      21       21        1 </v>
   <v name="usershift">      0.00000000       0.00000000       0.00000000 </v>
   <v name="genvec1">      0.04761905       0.00000000       0.00000000 </v>
   <v name="genvec2">      0.00000000       0.04761905       0.00000000 </v>
   <v name="genvec3">      0.00000000       0.00000000       1.00000000 </v>
   <v name="shift">      0.00000000       0.00000000       0.00000000 </v>
  </generation>
  <varray name="kpointlist" >
   <v>       0.00000000       0.00000000       0.00000000 </v>
   <v>       0.04761905       0.00000000       0.00000000 </v>
   <v>       0.09523810       0.00000000       0.00000000 </v>
   <v>       0.14285714       0.00000000       0.00000000 </v>
   <v>       0.19047619       0.00000000       0.00000000 </v>
   <v>       0.23809524       0.00000000       0.00000000 </v>
   <v>       0.28571429       0.00000000       0.00000000 </v>
   <v>       0.33333333       0.00000000       0.00000000 </v>
   <v>       0.38095238       0.00000000       0.00000000 </v>
   <v>       0.42857143       0.00000000       0.00000000 </v>
   <v>       0.47619048       0.00000000       0.00000000 </v>
   <v>       0.09523810       0.04761905       0.00000000 </v>
   <v>       0.14285714       0.04761905       0.00000000 </v>
   <v>       0.19047619       0.04761905       0.00000000 </v>
   <v>       0.23809524       0.04761905       0.00000000 </v>
   <v>       0.28571429       0.04761905       0.00000000 </v>
   <v>       0.33333333       0.04761905       0.00000000 </v>
   <v>       0.38095238       0.04761905       0.00000000 </v>
   <v>       0.42857143       0.04761905       0.00000000 </v>
   <v>       0.47619048       0.04761905       0.00000000 </v>
   <v>      -0.47619048       0.04761905       0.00000000 </v>
   <v>       0.19047619       0.09523810       0.00000000 </v>
   <v>       0.23809524       0.09523810       0.00000000 </v>
   <v>       0.28571429       0.09523810       0.00000000 </v>
   <v>       0.33333333       0.09523810       0.00000000 </v>
   <v>       0.38095238       0.09523810       0.00000000 </v>
   <v>       0.42857143       0.09523810       0.00000000 </v>
   <v>       0.47619048       0.09523810       0.00000000 </v>
   <v>      -0.47619048       0.09523810       0.00000000 </v>
   <v>       0.28571429       0.14285714       0.00000000 </v>
   <v>       0.33333333       0.14285714       0.00000000 </v>
   <v>       0.38095238       0.14285714       0.00000000 </v>
   <v>       0.42857143       0.14285714       0.00000000 </v>
   <v>       0.47619048       0.14285714       0.00000000 </v>
   <v>      -0.47619048       0.14285714       0.00000000 </v>
   <v>      -0.42857143       0.14285714       0.00000000 </v>
   <v>       0.38095238       0.19047619       0.00000000 </v>
   <v>       0.42857143       0.19047619       0.00000000 </v>
   <v>       0.47619048       0.19047619       0.00000000 </v>
   <v>      -0.47619048       0.19047619       0.00000000 </v>
   <v>      -0.42857143       0.19047619       0.00000000 </v>
   <v>       0.47619048       0.23809524       0.00000000 </v>
   <v>      -0.47619048       0.23809524       0.00000000 </v>
   <v>      -0.42857143       0.23809524       0.00000000 </v>
   <v>      -0.38095238       0.23809524       0.00000000 </v>
   <v>      -0.42857143       0.28571429       0.00000000 </v>
   <v>      -0.38095238       0.28571429       0.00000000 </v>
   <v>      -0.33333333       0.33333333       0.00000000 </v>
  </varray>
  <varray name="weights" >
   <v>       0.00226757 </v>
   <v>       0.01360544 </v>
   <v>       0.01360544 </v>
   <v>       0.01360544 </v>
   <v>       0.01360544 </v>
   <v>       0.01360544 </v>
   <v>       0.01360544 </v>
   <v>       0.01360544 </v>
   <v>       0.01360544 </v>
   <v>       0.01360544 </v>
   <v>       0.01360544 </v>
   <v>       0.01360544 </v>
   <v>       0.02721088 </v>
   <v>       0.02721088 </v>
   <v>       0.02721088 </v>
   <v>       0.02721088 </v>
   <v>       0.02721088 </v>
   <v>       0.02721088 </v>
   <v>       0.02721088 </v>
   <v>       0.02721088 </v>
   <v>       0.01360544 </v>
   <v>       0.01360544 </v>
   <v>       0.02721088 </v>
   <v>       0.02721088 </v>
   <v>       0.02721088 </v>
   <v>       0.02721088 </v>
   <v>       0.02721088 </v>
   <v>       0.02721088 </v>
   <v>       0.02721088 </v>
   <v>       0.01360544 </v>
   <v>       0.02721088 </v>
   <v>       0.02721088 </v>
   <v>       0.02721088 </v>
   <v>       0.02721088 </v>
   <v>       0.02721088 </v>
   <v>       0.01360544 </v>
   <v>       0.01360544 </v>
   <v>       0.02721088 </v>
   <v>       0.02721088 </v>
   <v>       0.02721088 </v>
   <v>       0.02721088 </v>
   <v>       0.01360544 </v>
   <v>       0.02721088 </v>
   <v>       0.02721088 </v>
   <v>       0.01360544 </v>
   <v>       0.01360544 </v>
   <v>       0.02721088 </v>
   <v>       0.00453515 </v>
  </varray>
  <varray name="tetrahedronlist"  type="int" >
   <v type="int" >        6        1        1        2        2 </v>
   <v type="int" >       12        1        2        2        2 </v>
   <v type="int" >       12        2        2        3       12 </v>
   <v type="int" >       12        2        2        2       12 </v>
   <v type="int" >       12        2        3        3       12 </v>
   <v type="int" >       12        2        3       12       12 </v>
   <v type="int" >        6        2        2       12       12 </v>
   <v type="int" >       12        3        3        4       13 </v>
   <v type="int" >       12        3        3       12       13 </v>
   <v type="int" >       12        3       12       12       13 </v>
   <v type="int" >       12        3        4        4       13 </v>
   <v type="int" >       12        3        4       13       13 </v>
   <v type="int" >       12        3       12       13       13 </v>
   <v type="int" >       12        4        4        5       14 </v>
   <v type="int" >       12        4        4       13       14 </v>
   <v type="int" >       12        4       13       13       14 </v>
   <v type="int" >       12        4        5        5       14 </v>
   <v type="int" >       12        4        5       14       14 </v>
   <v type="int" >       12        4       13       14       14 </v>
   <v type="int" >       12        5        5        6       15 </v>
   <v type="int" >       12        5        5       14       15 </v>
   <v type="int" >       12        5       14       14       15 </v>
   <v type="int" >       12        5        6        6       15 </v>
   <v type="int" >       12        5        6       15       15 </v>
   <v type="int" >       12        5       14       15       15 </v>
   <v type="int" >       12        6        6        7       16 </v>
   <v type="int" >       12        6        6       15       16 </v>
   <v type="int" >       12        6       15       15       16 </v>
   <v type="int" >       12        6        7        7       16 </v>
   <v type="int" >       12        6        7       16       16 </v>
   <v type="int" >       12        6       15       16       16 </v>
   <v type="int" >       12        7        7        8       17 </v>
   <v type="int" >       12        7        7       16       17 </v>
   <v type="int" >       12        7       16       16       17 </v>
   <v type="int" >       12        7        8        8       17 </v>
   <v type="int" >       12        7        8       17       17 </v>
   <v type="int" >       12        7       16       17       17 </v>
   <v type="int" >       12        8        8        9       18 </v>
   <v type="int" >       12        8        8       17       18 </v>
   <v type="int" >       12        8       17       17       18 </v>
   <v type="int" >       12        8        9        9       18 </v>
   <v type="int" >       12        8        9       18       18 </v>
   <v type="int" >       12        8       17       18       18 </v>
   <v type="int" >       12        9        9       10       19 </v>
   <v type="int" >       12        9        9       18       19 </v>
   <v type="int" >       12        9       18       18       19 </v>
   <v type="int" >       12        9       10       10       19 </v>
   <v type="int" >       12        9       10       19       19 </v>
   <v type="int" >       12        9       18       19       19 </v>
   <v type="int" >       12       10       10       11       20 </v>
   <v type="int" >       12       10       10       19       20 </v>
   <v type="int" >       12       10       19       19       20 </v>
   <v type="int" >       12       10       11       11       20 </v>
   <v type="int" >       12       10       11       20       20 </v>
   <v type="int" >       12       10       19       20       20 </v>
   <v type="int" >       12       11       11       11       21 </v>
   <v type="int" >       12       11       11       20       21 </v>
   <v type="int" >       12       11       20       20       21 </v>
   <v type="int" >        6       11       11       21       21 </v>
   <v type="int" >       12       11       20       21       21 </v>
   <v type="int" >        6       12       12       13       13 </v>
   <v type="int" >       12       12       13       13       13 </v>
   <v type="int" >       12       13       13       14       22 </v>
   <v type="int" >       12       13       13       13       22 </v>
   <v type="int" >       12       13       14       14       22 </v>
   <v type="int" >       12       13       14       22       22 </v>
   <v type="int" >        6       13       13       22       22 </v>
   <v type="int" >       12       14       14       15       23 </v>
   <v type="int" >       12       14       14       22       23 </v>
   <v type="int" >       12       14       22       22       23 </v>
   <v type="int" >       12       14       15       15       23 </v>
   <v type="int" >       12       14       15       23       23 </v>
   <v type="int" >       12       14       22       23       23 </v>
   <v type="int" >       12       15       15       16       24 </v>
   <v type="int" >       12       15       15       23       24 </v>
   <v type="int" >       12       15       23       23       24 </v>
   <v type="int" >       12       15       16       16       24 </v>
   <v type="int" >       12       15       16       24       24 </v>
   <v type="int" >       12       15       23       24       24 </v>
   <v type="int" >       12       16       16       17       25 </v>
   <v type="int" >       12       16       16       24       25 </v>
   <v type="int" >       12       16       24       24       25 </v>
   <v type="int" >       12       16       17       17       25 </v>
   <v type="int" >       12       16       17       25       25 </v>
   <v type="int" >       12       16       24       25       25 </v>
   <v type="int" >       12       17       17       18       26 </v>
   <v type="int" >       12       17       17       25       26 </v>
   <v type="int" >       12       17       25       25       26 </v>
   <v type="int" >       12       17       18       18       26 </v>
   <v type="int" >       12       17       18       26       26 </v>
   <v type="int" >       12       17       25       26       26 </v>
   <v type="int" >       12       18       18       19       27 </v>
   <v type="int" >       12       18       18       26       27 </v>
   <v type="int" >       12       18       26       26       27 </v>
   <v type="int" >       12       18       19       19       27 </v>
   <v type="int" >       12       18       19       27       27 </v>
   <v type="int" >       12       18       26       27       27 </v>
   <v type="int" >       12       19       19       20       28 </v>
   <v type="int" >       12       19       19       27       28 </v>
   <v type="int" >       12       19       27       27       28 </v>
   <v type="int" >       12       19       20       20       28 </v>
   <v type="int" >       12       19       20       28       28 </v>
   <v type="int" >       12       19       27       28       28 </v>
   <v type="int" >       12       20       20       21       29 </v>
   <v type="int" >       12       20       20       28       29 </v>
   <v type="int" >       12       20       28       28       29 </v>
   <v type="int" >       12       20       21       21       29 </v>
   <v type="int" >       12       20       21       29       29 </v>
   <v type="int" >       12       20       28       29       29 </v>
   <v type="int" >        6       21       21       29       29 </v>
   <v type="int" >       12       21       29       29       29 </v>
   <v type="int" >        6       22       22       23       23 </v>
   <v type="int" >       12       22       23       23       23 </v>
   <v type="int" >       12       23       23       24       30 </v>
   <v type="int" >       12       23       23       23       30 </v>
   <v type="int" >       12       23       24       24       30 </v>
   <v type="int" >       12       23       24       30       30 </v>
   <v type="int" >        6       23       23       30       30 </v>
   <v type="int" >       12       24       24       25       31 </v>
   <v type="int" >       12       24       24       30       31 </v>
   <v type="int" >       12       24       30       30       31 </v>
   <v type="int" >       12       24       25       25       31 </v>
   <v type="int" >       12       24       25       31       31 </v>
   <v type="int" >       12       24       30       31       31 </v>
   <v type="int" >       12       25       25       26       32 </v>
   <v type="int" >       12       25       25       31       32 </v>
   <v type="int" >       12       25       31       31       32 </v>
   <v type="int" >       12       25       26       26       32 </v>
   <v type="int" >       12       25       26       32       32 </v>
   <v type="int" >       12       25       31       32       32 </v>
   <v type="int" >       12       26       26       27       33 </v>
   <v type="int" >       12       26       26       32       33 </v>
   <v type="int" >       12       26       32       32       33 </v>
   <v type="int" >       12       26       27       27       33 </v>
   <v type="int" >       12       26       27       33       33 </v>
   <v type="int" >       12       26       32       33       33 </v>
   <v type="int" >       12       27       27       28       34 </v>
   <v type="int" >       12       27       27       33       34 </v>
   <v type="int" >       12       27       33       33       34 </v>
   <v type="int" >       12       27       28       28       34 </v>
   <v type="int" >       12       27       28       34       34 </v>
   <v type="int" >       12       27       33       34       34 </v>
   <v type="int" >       12       28       28       29       35 </v>
   <v type="int" >       12       28       28       34       35 </v>
   <v type="int" >       12       28       34       34       35 </v>
   <v type="int" >       12       28       29       29       35 </v>
   <v type="int" >       12       28       29       35       35 </v>
   <v type="int" >       12       28       34       35       35 </v>
   <v type="int" >       12       29       29       29       36 </v>
   <v type="int" >       12       29       29       35       36 </v>
   <v type="int" >       12       29       35       35       36 </v>
   <v type="int" >        6       29       29       36       36 </v>
   <v type="int" >       12       29       35       36       36 </v>
   <v type="int" >        6       30       30       31       31 </v>
   <v type="int" >       12       30       31       31       31 </v>
   <v type="int" >       12       31       31       32       37 </v>
   <v type="int" >       12       31       31       31       37 </v>
   <v type="int" >       12       31       32       32       37 </v>
   <v type="int" >       12       31       32       37       37 </v>
   <v type="int" >        6       31       31       37       37 </v>
   <v type="int" >       12       32       32       33       38 </v>
   <v type="int" >       12       32       32       37       38 </v>
   <v type="int" >       12       32       37       37       38 </v>
   <v type="int" >       12       32       33       33       38 </v>
   <v type="int" >       12       32       33       38       38 </v>
   <v type="int" >       12       32       37       38       38 </v>
   <v type="int" >       12       33       33       34       39 </v>
   <v type="int" >       12       33       33       38       39 </v>
   <v type="int" >       12       33       38       38       39 </v>
   <v type="int" >       12       33       34       34       39 </v>
   <v type="int" >       12       33       34       39       39 </v>
   <v type="int" >       12       33       38       39       39 </v>
   <v type="int" >       12       34       34       35       40 </v>
   <v type="int" >       12       34       34       39       40 </v>
   <v type="int" >       12       34       39       39       40 </v>
   <v type="int" >       12       34       35       35       40 </v>
   <v type="int" >       12       34       35       40       40 </v>
   <v type="int" >       12       34       39       40       40 </v>
   <v type="int" >       12       35       35       36       41 </v>
   <v type="int" >       12       35       35       40       41 </v>
   <v type="int" >       12       35       40       40       41 </v>
   <v type="int" >       12       35       36       36       41 </v>
   <v type="int" >       12       35       36       41       41 </v>
   <v type="int" >       12       35       40       41       41 </v>
   <v type="int" >        6       36       36       41       41 </v>
   <v type="int" >       12       36       41       41       41 </v>
   <v type="int" >        6       37       37       38       38 </v>
   <v type="int" >       12       37       38       38       38 </v>
   <v type="int" >       12       38       38       39       42 </v>
   <v type="int" >       12       38       38       38       42 </v>
   <v type="int" >       12       38       39       39       42 </v>
   <v type="int" >       12       38       39       42       42 </v>
   <v type="int" >        6       38       38       42       42 </v>
   <v type="int" >       12       39       39       40       43 </v>
   <v type="int" >       12       39       39       42       43 </v>
   <v type="int" >       12       39       42       42       43 </v>
   <v type="int" >       12       39       40       40       43 </v>
   <v type="int" >       12       39       40       43       43 </v>
   <v type="int" >       12       39       42       43       43 </v>
   <v type="int" >       12       40       40       41       44 </v>
   <v type="int" >       12       40       40       43       44 </v>
   <v type="int" >       12       40       43       43       44 </v>
   <v type="int" >       12       40       41       41       44 </v>
   <v type="int" >       12       40       41       44       44 </v>
   <v type="int" >       12       40       43       44       44 </v>
   <v type="int" >       12       41       41       41       45 </v>
   <v type="int" >       12       41       41       44       45 </v>
   <v type="int" >       12       41       44       44       45 </v>
   <v type="int" >        6       41       41       45       45 </v>
   <v type="int" >       12       41       44       45       45 </v>
   <v type="int" >        6       42       42       43       43 </v>
   <v type="int" >       12       42       43       43       43 </v>
   <v type="int" >       12       43       43       44       46 </v>
   <v type="int" >       12       43       43       43       46 </v>
   <v type="int" >       12       43       44       44       46 </v>
   <v type="int" >       12       43       44       46       46 </v>
   <v type="int" >        6       43       43       46       46 </v>
   <v type="int" >       12       44       44       45       47 </v>
   <v type="int" >       12       44       44       46       47 </v>
   <v type="int" >       12       44       46       46       47 </v>
   <v type="int" >       12       44       45       45       47 </v>
   <v type="int" >       12       44       45       47       47 </v>
   <v type="int" >       12       44       46       47       47 </v>
   <v type="int" >        6       45       45       47       47 </v>
   <v type="int" >       12       45       47       47       47 </v>
   <v type="int" >        6       46       46       47       47 </v>
   <v type="int" >       12       46       47       47       47 </v>
   <v type="int" >       24       47       47       47       48 </v>
   <v type="int" >       12       47       47       48       48 </v>
  </varray>
  <i name="volumeweight">      0.00037793 </i>
 </kpoints>
 <parameters>
  <separator name="general" >
   <i type="string" name="SYSTEM">C:graphene</i>
   <i type="logical" name="LCOMPAT"> F  </i>
  </separator>
  <separator name="electronic" >
   <i type="string" name="PREC">accura</i>
   <i name="ENMAX">    800.00000000</i>
   <i name="ENAUG">    644.87300000</i>
   <i name="EDIFF">      0.00000001</i>
   <i type="int" name="IALGO">    38</i>
   <i type="int" name="IWAVPR">    10</i>
   <i type="int" name="NBANDS">     8</i>
   <i name="NELECT">      8.00000000</i>
   <i type="int" name="TURBO">     0</i>
   <i type="int" name="IRESTART">     0</i>
   <i type="int" name="NREBOOT">     0</i>
   <i type="int" name="NMIN">     0</i>
   <i name="EREF">      0.00000000</i>
   <separator name="electronic smearing" >
    <i type="int" name="ISMEAR">    -5</i>
    <i name="SIGMA">      0.01000000</i>
    <i name="KSPACING">      0.50000000</i>
    <i type="logical" name="KGAMMA"> T  </i>
   </separator>
   <separator name="electronic projectors" >
    <i type="logical" name="LREAL"> F  </i>
    <v name="ROPT">      0.00000000</v>
    <i type="int" name="LMAXPAW">  -100</i>
    <i type="int" name="LMAXMIX">     2</i>
    <i type="logical" name="NLSPLINE"> F  </i>
   </separator>
   <separator name="electronic startup" >
    <i type="int" name="ISTART">     0</i>
    <i type="int" name="ICHARG">    11</i>
    <i type="int" name="INIWAV">     1</i>
   </separator>
   <separator name="electronic spin" >
    <i type="int" name="ISPIN">     1</i>
    <i type="logical" name="LNONCOLLINEAR"> F  </i>
    <v name="MAGMOM">      1.00000000      1.00000000</v>
    <i name="NUPDOWN">     -1.00000000</i>
    <i type="logical" name="LSORBIT"> F  </i>
    <v name="SAXIS">      0.00000000      0.00000000      1.00000000</v>
    <i type="logical" name="LSPIRAL"> F  </i>
    <v name="QSPIRAL">      0.00000000      0.00000000      0.00000000</v>
    <i type="logical" name="LZEROZ"> F  </i>
   </separator>
   <separator name="electronic exchange-correlation" >
    <i type="logical" name="LASPH"> F  </i>
    <i type="logical" name="LMETAGGA"> F  </i>
   </separator>
   <separator name="electronic convergence" >
    <i type="int" name="NELM">    60</i>
    <i type="int" name="NELMDL">    -5</i>
    <i type="int" name="NELMIN">     5</i>
    <i name="ENINI">    800.00000000</i>
    <separator name="electronic convergence detail" >
     <i type="logical" name="LDIAG"> T  </i>
     <i type="logical" name="LSUBROT"> F  </i>
     <i name="WEIMIN">      0.00000000</i>
     <i name="EBREAK">      0.00000000</i>
     <i name="DEPER">      0.30000000</i>
     <i type="int" name="NRMM">     4</i>
     <i name="TIME">      0.40000000</i>
    </separator>
   </separator>
   <separator name="electronic mixer" >
    <i name="AMIX">      0.40000000</i>
    <i name="BMIX">      1.00000000</i>
    <i name="AMIN">      0.01000000</i>
    <i name="AMIX_MAG">      1.60000000</i>
    <i name="BMIX_MAG">      1.00000000</i>
    <separator name="electronic mixer details" >
     <i type="int" name="IMIX">     4</i>
     <i type="logical" name="MIXFIRST"> F  </i>
     <i type="int" name="MAXMIX">   -45</i>
     <i name="WC">    100.00000000</i>
     <i type="int" name="INIMIX">     1</i>
     <i type="int" name="MIXPRE">     1</i>
     <i type="int" name="MREMOVE">     5</i>
    </separator>
   </separator>
   <separator name="electronic dipolcorrection" >
    <i type="logical" name="LDIPOL"> F  </i>
    <i type="logical" name="LMONO"> F  </i>
    <i type="int" name="IDIPOL">     0</i>
    <i name="EPSILON">      1.00000000</i>
    <v name="DIPOL">   -100.00000000   -100.00000000   -100.00000000</v>
    <i name="EFIELD">      0.00000000</i>
   </separator>
  </separator>
  <separator name="grids" >
   <i type="int" name="NGX">    24</i>
   <i type="int" name="NGY">    24</i>
   <i type="int" name="NGZ">   192</i>
   <i type="int" name="NGXF">    48</i>
   <i type="int" name="NGYF">    48</i>
   <i type="int" name="NGZF">   384</i>
   <i type="logical" name="ADDGRID"> T  </i>
  </separator>
  <separator name="ionic" >
   <i type="int" name="NSW">    80</i>
   <i type="int" name="IBRION">    -1</i>
   <i type="int" name="MDALGO">     0</i>
   <i type="int" name="ISIF">     2</i>
   <i name="PSTRESS">      0.00000000</i>
   <i name="EDIFFG">      0.00000010</i>
   <i type="int" name="NFREE">     0</i>
   <i name="POTIM">      0.50000000</i>
   <i name="SMASS">     -3.00000000</i>
   <i name="SCALEE">      1.00000000</i>
  </separator>
  <separator name="ionic md" >
   <i name="TEBEG">      0.00010000</i>
   <i name="TEEND">      0.00010000</i>
   <i type="int" name="NBLOCK">     1</i>
   <i type="int" name="KBLOCK">    80</i>
   <i type="int" name="NPACO">   256</i>
   <i name="APACO">     16.00000000</i>
  </separator>
  <separator name="symmetry" >
   <i type="int" name="ISYM">     2</i>
   <i name="SYMPREC">      0.00010000</i>
  </separator>
  <separator name="dos" >
   <i type="int" name="LORBIT">     0</i>
   <v name="RWIGS">     -1.00000000</v>
   <i type="int" name="NEDOS">  9001</i>
   <i name="EMIN">     10.00000000</i>
   <i name="EMAX">    -10.00000000</i>
   <i name="EFERMI">      0.00000000</i>
  </separator>
  <separator name="writing" >
   <i type="int" name="NWRITE">     2</i>
   <i type="logical" name="LWAVE"> F  </i>
   <i type="logical" name="LDOWNSAMPLE"> F  </i>
   <i type="logical" name="LCHARG"> T  </i>
   <i type="logical" name="LPARD"> F  </i>
   <i type="logical" name="LVTOT"> F  </i>
   <i type="logical" name="LVHAR"> F  </i>
   <i type="logical" name="LELF"> F  </i>
   <i type="logical" name="LOPTICS"> F  </i>
   <v name="STM">      0.00000000      0.00000000      0.00000000      0.00000000      0.00000000      0.00000000      0.00000000</v>
  </separator>
  <separator name="performance" >
   <i type="int" name="NPAR">     4</i>
   <i type="int" name="NSIM">     4</i>
   <i type="int" name="NBLK">    -1</i>
   <i type="logical" name="LPLANE"> T  </i>
   <i type="logical" name="LSCALAPACK"> T  </i>
   <i type="logical" name="LSCAAWARE"> F  </i>
   <i type="logical" name="LSCALU"> F  </i>
   <i type="logical" name="LASYNC"> F  </i>
   <i type="logical" name="LORBITALREAL"> F  </i>
  </separator>
  <separator name="miscellaneous" >
   <i type="int" name="IDIOT">     3</i>
   <i type="int" name="ISPECIAL">     0</i>
   <i type="logical" name="LMUSIC"> F  </i>
   <v name="POMASS">     12.01100000</v>
   <v name="DARWINR">      0.00000000</v>
   <v name="DARWINV">      1.00000000</v>
   <i type="logical" name="LCORR"> T  </i>
  </separator>
  <i type="logical" name="GGA_COMPAT"> T  </i>
  <i type="logical" name="LBERRY"> F  </i>
  <i type="int" name="ICORELEVEL">     0</i>
  <i type="logical" name="LDAU"> F  </i>
  <i type="int" name="I_CONSTRAINED_M">     0</i>
  <separator name="electronic exchange-correlation" >
   <i type="string" name="GGA">--</i>
   <i type="int" name="VOSKOWN">     0</i>
   <i type="logical" name="LHFCALC"> F  </i>
   <i type="string" name="PRECFOCK"></i>
   <i type="logical" name="LSYMGRAD"> F  </i>
   <i type="logical" name="LHFONE"> F  </i>
   <i type="logical" name="LRHFCALC"> F  </i>
   <i type="logical" name="LTHOMAS"> F  </i>
   <i type="logical" name="LMODELHF"> F  </i>
   <i name="ENCUT4O">     -1.00000000</i>
   <i type="int" name="EXXOEP">     0</i>
   <i type="int" name="FOURORBIT">     0</i>
   <i name="AEXX">      0.00000000</i>
   <i name="HFALPHA">      0.00000000</i>
   <i name="MCALPHA">      0.00000000</i>
   <i name="ALDAX">      1.00000000</i>
   <i name="AGGAX">      1.00000000</i>
   <i name="ALDAC">      1.00000000</i>
   <i name="AGGAC">      1.00000000</i>
   <i type="int" name="NKREDX">     1</i>
   <i type="int" name="NKREDY">     1</i>
   <i type="int" name="NKREDZ">     1</i>
   <i type="logical" name="SHIFTRED"> F  </i>
   <i type="logical" name="ODDONLY"> F  </i>
   <i type="logical" name="EVENONLY"> F  </i>
   <i type="int" name="LMAXFOCK">     0</i>
   <i type="int" name="NMAXFOCKAE">     0</i>
   <i type="logical" name="LFOCKAEDFT"> F  </i>
   <i name="HFSCREEN">      0.00000000</i>
   <i name="HFSCREENC">      0.00000000</i>
   <i type="int" name="NBANDSGWLOW">     0</i>
  </separator>
  <separator name="vdW DFT" >
   <i type="logical" name="LUSE_VDW"> F  </i>
   <i name="Zab_VDW">     -0.84910000</i>
   <i name="PARAM1">      0.12340000</i>
   <i name="PARAM2">      1.00000000</i>
   <i name="PARAM3">      0.00000000</i>
  </separator>
  <separator name="model GW" >
   <i type="int" name="MODEL_GW">     0</i>
   <i name="MODEL_EPS0">     31.43256336</i>
   <i name="MODEL_ALPHA">      1.00000000</i>
  </separator>
  <separator name="linear response parameters" >
   <i type="logical" name="LEPSILON"> F  </i>
   <i type="logical" name="LRPA"> F  </i>
   <i type="logical" name="LNABLA"> F  </i>
   <i type="logical" name="LVEL"> F  </i>
   <i type="int" name="KINTER">     0</i>
   <i name="CSHIFT">      0.10000000</i>
   <i name="OMEGAMAX">     -1.00000000</i>
   <i name="DEG_THRESHOLD">      0.00200000</i>
   <i name="RTIME">     -0.10000000</i>
   <i name="WPLASMAI">      0.00000000</i>
   <v name="DFIELD">      0.00000000      0.00000000      0.00000000</v>
   <v name="WPLASMA">      0.00000000      0.00000000      0.00000000      0.00000000      0.00000000      0.00000000      0.00000000      0.00000000      0.00000000</v>
  </separator>
  <separator name="orbital magnetization" >
   <i type="logical" name="NUCIND"> F  </i>
   <v name="MAGPOS">      0.00000000      0.00000000      0.00000000</v>
   <i type="logical" name="LNICSALL"> T  </i>
   <i type="logical" name="ORBITALMAG"> F  </i>
   <i type="logical" name="LMAGBLOCH"> F  </i>
   <i type="logical" name="LCHIMAG"> F  </i>
   <i type="logical" name="LGAUGE"> T  </i>
   <i type="int" name="MAGATOM">     0</i>
   <v name="MAGDIPOL">      0.00000000      0.00000000      0.00000000</v>
   <v name="AVECCONST">      0.00000000      0.00000000      0.00000000</v>
  </separator>
  <separator name="response functions" >
   <i type="logical" name="LADDER"> F  </i>
   <i type="logical" name="LRPAFORCE"> F  </i>
   <i type="logical" name="LFXC"> F  </i>
   <i type="logical" name="LHARTREE"> T  </i>
   <i type="int" name="IBSE">     0</i>
   <v type="int" name="KPOINT">    -1     0     0     0</v>
   <i type="logical" name="LTCTE"> F  </i>
   <i type="logical" name="LTETE"> F  </i>
   <i type="logical" name="LTRIPLET"> F  </i>
   <i type="logical" name="LFXCEPS"> F  </i>
   <i type="logical" name="LFXHEG"> F  </i>
   <i type="int" name="NATURALO">     2</i>
   <i type="logical" name="L2ORDER"> F  </i>
   <i type="logical" name="LMP2LT"> F  </i>
   <i type="logical" name="LUSEW"> F  </i>
   <i name="ENCUTGW">     -2.00000000</i>
   <i name="ENCUTGWSOFT">     -2.00000000</i>
   <i name="ENCUTLF">     -1.00000000</i>
   <i type="int" name="LMAXMP2">    -1</i>
   <i name="SCISSOR">      0.00000000</i>
   <i type="int" name="NOMEGA">     0</i>
   <i type="int" name="NOMEGAR">     0</i>
   <i type="int" name="NBANDSGW">    -1</i>
   <i type="int" name="NBANDSO">    -1</i>
   <i type="int" name="NBANDSV">    -1</i>
   <i type="int" name="NELM">     1</i>
   <i type="int" name="NELMHF">     1</i>
   <i type="int" name="DIM">     3</i>
   <i type="int" name="ANTIRES">     0</i>
   <i name="OMEGAMAX">    -30.00000000</i>
   <i name="OMEGAMIN">    -30.00000000</i>
   <i name="OMEGATL">   -200.00000000</i>
   <i type="int" name="OMEGAGRID">   140</i>
   <i name="CSHIFT">     -0.10000000</i>
   <i type="logical" name="SELFENERGY"> F  </i>
   <i type="logical" name="LSPECTRAL"> F  </i>
   <i type="logical" name="LSPECTRALGW"> F  </i>
   <i type="logical" name="LSINGLES"> F  </i>
   <i type="logical" name="LFERMIGW"> F  </i>
   <i type="logical" name="ODDONLYGW"> F  </i>
   <i type="logical" name="EVENONLYGW"> F  </i>
   <i type="int" name="NKREDLFX">     1</i>
   <i type="int" name="NKREDLFY">     1</i>
   <i type="int" name="NKREDLFZ">     1</i>
   <i type="int" name="MAXMEM">  2800</i>
   <i type="int" name="TELESCOPE">     0</i>
   <i type="int" name="TAUPAR">     1</i>
   <i type="int" name="OMEGAPAR">    -1</i>
   <i name="LAMBDA">      1.00000000</i>
  </separator>
  <separator name="External order field" >
   <i name="OFIELD_KAPPA">      0.00000000</i>
   <v name="OFIELD_K">      0.00000000      0.00000000      0.00000000</v>
   <i name="OFIELD_Q6_NEAR">      0.00000000</i>
   <i name="OFIELD_Q6_FAR">      0.00000000</i>
   <i name="OFIELD_A">      0.00000000</i>
  </separator>
 </parameters>
 <atominfo>
  <atoms>       2 </atoms>
  <types>       1 </types>
  <array name="atoms" >
   <dimension dim="1">ion</dimension>
   <field type="string">element</field>
   <field type="int">atomtype</field>
   <set>
    <rc><c>C </c><c>   1</c></rc>
    <rc><c>C </c><c>   1</c></rc>
   </set>
  </array>
  <array name="atomtypes" >
   <dimension dim="1">type</dimension>
   <field type="int">atomspertype</field>
   <field type="string">element</field>
   <field>mass</field>
   <field>valence</field>
   <field type="string">pseudopotential</field>
   <set>
    <rc><c>   2</c><c>C </c><c>     12.01100000</c><c>      4.00000000</c><c>  PAW_PBE C 08Apr2002                   </c></rc>
   </set>
  </array>
 </atominfo>
 <structure name="initialpos" >
  <crystal>
   <varray name="basis" >
    <v>       2.13000000      -1.22975600       0.00000000 </v>
    <v>       2.13000000       1.22975600       0.00000000 </v>
    <v>       0.00000000       0.00000000      20.00000000 </v>
   </varray>
   <i name="volume">    104.77521120 </i>
   <varray name="rec_basis" >
    <v>       0.23474178      -0.40658472       0.00000000 </v>
    <v>       0.23474178       0.40658472       0.00000000 </v>
    <v>       0.00000000       0.00000000       0.05000000 </v>
   </varray>
  </crystal>
  <varray name="positions" >
   <v>       0.00000000       0.00000000       0.00000000 </v>
   <v>       0.33333300       0.33333300       0.00000000 </v>
  </varray>
  <varray name="velocities" >
   <v>       0.00000000       0.00000000       0.00000000 </v>
   <v>       0.00000000       0.00000000       0.00000000 </v>
  </varray>
 </structure>
 <calculation>
  <scstep>
   <time name="dav">    0.82    0.87</time>
   <time name="total">    0.96    1.03</time>
   <energy>
    <i name="alphaZ">      3.13611264 </i>
    <i name="ewald">   1303.03316907 </i>
    <i name="hartreedc">  -1550.04809692 </i>
    <i name="XCdc">     27.59285695 </i>
    <i name="pawpsdc">    847.83262137 </i>
    <i name="pawaedc">   -849.19395358 </i>
    <i name="eentropy">      0.00000000 </i>
    <i name="bandstr">    -31.87845880 </i>
    <i name="atom">    294.30884690 </i>
    <i name="e_fr_energy">     44.78309764 </i>
    <i name="e_wo_entrp">     44.78309764 </i>
    <i name="e_0_energy">     44.78309764 </i>
   </energy>
  </scstep>
  <scstep>
   <time name="dav">    1.13    1.14</time>
   <time name="total">    1.15    1.16</time>
   <energy>
    <i name="e_fr_energy">    -14.36007726 </i>
    <i name="e_wo_entrp">    -14.36007726 </i>
    <i name="e_0_energy">    -14.36007726 </i>
   </energy>
  </scstep>
  <scstep>
   <time name="dav">    0.94    0.95</time>
   <time name="total">    0.96    0.96</time>
   <energy>
    <i name="e_fr_energy">    -18.43038066 </i>
    <i name="e_wo_entrp">    -18.43038066 </i>
    <i name="e_0_energy">    -18.43038066 </i>
   </energy>
  </scstep>
  <scstep>
   <time name="dav">    1.04    1.04</time>
   <time name="total">    1.06    1.06</time>
   <energy>
    <i name="e_fr_energy">    -18.46396882 </i>
    <i name="e_wo_entrp">    -18.46396882 </i>
    <i name="e_0_energy">    -18.46396882 </i>
   </energy>
  </scstep>
  <scstep>
   <time name="dav">    1.03    1.03</time>
   <time name="total">    1.05    1.05</time>
   <energy>
    <i name="e_fr_energy">    -18.46424377 </i>
    <i name="e_wo_entrp">    -18.46424377 </i>
    <i name="e_0_energy">    -18.46424377 </i>
   </energy>
  </scstep>
  <scstep>
   <time name="dav">    1.15    1.15</time>
   <time name="total">    1.17    1.17</time>
   <energy>
    <i name="e_fr_energy">    -18.46425303 </i>
    <i name="e_wo_entrp">    -18.46425303 </i>
    <i name="e_0_energy">    -18.46425303 </i>
   </energy>
  </scstep>
  <scstep>
   <time name="dav">    1.07    1.07</time>
   <time name="total">    1.09    1.09</time>
   <energy>
    <i name="e_fr_energy">    -18.46425328 </i>
    <i name="e_wo_entrp">    -18.46425328 </i>
    <i name="e_0_energy">    -18.46425328 </i>
   </energy>
  </scstep>
  <scstep>
   <time name="dav">    1.13    1.13</time>
   <time name="total">    1.15    1.15</time>
   <energy>
    <i name="e_fr_energy">    -18.46425307 </i>
    <i name="e_wo_entrp">    -18.46425307 </i>
    <i name="e_0_energy">    -18.46425307 </i>
   </energy>
  </scstep>
  <scstep>
   <time name="dav">    1.09    1.09</time>
   <time name="total">    1.11    1.11</time>
   <energy>
    <i name="alphaZ">      3.13611264 </i>
    <i name="ewald">   1303.03316907 </i>
    <i name="hartreedc">  -1550.04809692 </i>
    <i name="XCdc">     27.59285695 </i>
    <i name="pawpsdc">    847.83262137 </i>
    <i name="pawaedc">   -849.19395358 </i>
    <i name="eentropy">      0.00000000 </i>
    <i name="bandstr">    -95.12580950 </i>
    <i name="atom">    294.30884690 </i>
    <i name="e_fr_energy">    -18.46425307 </i>
    <i name="e_wo_entrp">    -18.46425307 </i>
    <i name="e_0_energy">    -18.46425307 </i>
   </energy>
  </scstep>
  <structure>
   <crystal>
    <varray name="basis" >
     <v>       2.13000000      -1.22975600       0.00000000 </v>
     <v>       2.13000000       1.22975600       0.00000000 </v>
     <v>       0.00000000       0.00000000      20.00000000 </v>
    </varray>
    <i name="volume">    104.77521120 </i>
    <varray name="rec_basis" >
     <v>       0.23474178      -0.40658472       0.00000000 </v>
     <v>       0.23474178       0.40658472       0.00000000 </v>
     <v>       0.00000000       0.00000000       0.05000000 </v>
    </varray>
   </crystal>
   <varray name="positions" >
    <v>       0.00000000       0.00000000       0.00000000 </v>
    <v>       0.33333300       0.33333300       0.00000000 </v>
   </varray>
  </structure>
  <varray name="forces" >
   <v>      -0.00000000      -0.00000000       0.00000000 </v>
   <v>       0.00000000       0.00000000      -0.00000000 </v>
  </varray>
  <varray name="stress" >
   <v>       6.34878802       0.00000000      -0.00000000 </v>
   <v>       0.00000000       6.34878726       0.00000000 </v>
   <v>       0.00000000       0.00000000      -0.34330183 </v>
  </varray>
  <energy>
   <i name="e_fr_energy">    -18.46425307 </i>
   <i name="e_wo_entrp">    -18.46425307 </i>
   <i name="e_0_energy">      0.00000000 </i>
  </energy>
  <time name="totalsc">   11.96   12.32</time>
 </calculation>
 <calculation>
  <scstep>
   <time name="dav">    0.95    0.95</time>
   <time name="total">    1.08    1.10</time>
   <energy>
    <i name="alphaZ">      3.13611264 </i>
    <i name="ewald">   1303.03316907 </i>
    <i name="hartreedc">  -1550.04809692 </i>
    <i name="XCdc">     27.59285695 </i>
    <i name="pawpsdc">    847.83262137 </i>
    <i name="pawaedc">   -849.19395358 </i>
    <i name="eentropy">      0.00000000 </i>
    <i name="bandstr">    -95.12580965 </i>
    <i name="atom">    294.30884690 </i>
    <i name="e_fr_energy">    -18.46425322 </i>
    <i name="e_wo_entrp">    -18.46425322 </i>
    <i name="e_0_energy">    -18.46425322 </i>
   </energy>
  </scstep>
  <scstep>
   <time name="dav">    0.91    0.91</time>
   <time name="total">    0.93    0.93</time>
   <energy>
    <i name="e_fr_energy">    -18.46425311 </i>
    <i name="e_wo_entrp">    -18.46425311 </i>
    <i name="e_0_energy">    -18.46425311 </i>
   </energy>
  </scstep>
  <scstep>
   <time name="dav">    0.74    0.74</time>
   <time name="total">    0.76    0.76</time>
   <energy>
    <i name="e_fr_energy">    -18.46425308 </i>
    <i name="e_wo_entrp">    -18.46425308 </i>
    <i name="e_0_energy">    -18.46425308 </i>
   </energy>
  </scstep>
  <scstep>
   <time name="dav">    0.72    0.72</time>
   <time name="total">    0.74    0.74</time>
   <energy>
    <i name="e_fr_energy">    -18.46425308 </i>
    <i name="e_wo_entrp">    -18.46425308 </i>
    <i name="e_0_energy">    -18.46425308 </i>
   </energy>
  </scstep>
  <scstep>
   <time name="dav">    0.67    0.67</time>
   <time name="total">    0.69    0.69</time>
   <energy>
    <i name="alphaZ">      3.13611264 </i>
    <i name="ewald">   1303.03316907 </i>
    <i name="hartreedc">  -1550.04809692 </i>
    <i name="XCdc">     27.59285695 </i>
    <i name="pawpsdc">    847.83262137 </i>
    <i name="pawaedc">   -849.19395358 </i>
    <i name="eentropy">      0.00000000 </i>
    <i name="bandstr">    -95.12580951 </i>
    <i name="atom">    294.30884690 </i>
    <i name="e_fr_energy">    -18.46425308 </i>
    <i name="e_wo_entrp">    -18.46425308 </i>
    <i name="e_0_energy">    -18.46425308 </i>
   </energy>
  </scstep>
  <structure>
   <crystal>
    <varray name="basis" >
     <v>       2.13000000      -1.22975600       0.00000000 </v>
     <v>       2.13000000       1.22975600       0.00000000 </v>
     <v>       0.00000000       0.00000000      20.00000000 </v>
    </varray>
    <i name="volume">    104.77521120 </i>
    <varray name="rec_basis" >
     <v>       0.23474178      -0.40658472       0.00000000 </v>
     <v>       0.23474178       0.40658472       0.00000000 </v>
     <v>       0.00000000       0.00000000       0.05000000 </v>
    </varray>
   </crystal>
   <varray name="positions" >
    <v>       0.00000000       0.00000000       0.00000000 </v>
    <v>       0.33333300       0.33333300       0.00000000 </v>
   </varray>
  </structure>
  <varray name="forces" >
   <v>       0.00000000      -0.00000000       0.00000000 </v>
   <v>      -0.00000000       0.00000000      -0.00000000 </v>
  </varray>
  <varray name="stress" >
   <v>       6.34878787       0.00000000       0.00000000 </v>
   <v>       0.00000000       6.34878711       0.00000000 </v>
   <v>       0.00000000       0.00000000      -0.34330198 </v>
  </varray>
  <energy>
   <i name="e_fr_energy">    -18.46425308 </i>
   <i name="e_wo_entrp">    -18.46425308 </i>
   <i name="e_0_energy">      0.00000000 </i>
  </energy>
  <time name="totalsc">    5.84    5.93</time>
 </calculation>
 <calculation>
  <scstep>
   <time name="dav">    0.67    0.67</time>
   <time name="total">    0.80    0.82</time>
   <energy>
    <i name="alphaZ">      3.13611264 </i>
    <i name="ewald">   1303.03316907 </i>
    <i name="hartreedc">  -1550.04809692 </i>
    <i name="XCdc">     27.59285695 </i>
    <i name="pawpsdc">    847.83262137 </i>
    <i name="pawaedc">   -849.19395358 </i>
    <i name="eentropy">      0.00000000 </i>
    <i name="bandstr">    -95.12580951 </i>
    <i name="atom">    294.30884690 </i>
    <i name="e_fr_energy">    -18.46425308 </i>
    <i name="e_wo_entrp">    -18.46425308 </i>
    <i name="e_0_energy">    -18.46425308 </i>
   </energy>
  </scstep>
  <scstep>
   <time name="dav">    0.67    0.68</time>
   <time name="total">    0.69    0.70</time>
   <energy>
    <i name="e_fr_energy">    -18.46425308 </i>
    <i name="e_wo_entrp">    -18.46425308 </i>
    <i name="e_0_energy">    -18.46425308 </i>
   </energy>
  </scstep>
  <scstep>
   <time name="dav">    0.67    0.67</time>
   <time name="total">    0.69    0.69</time>
   <energy>
    <i name="e_fr_energy">    -18.46425308 </i>
    <i name="e_wo_entrp">    -18.46425308 </i>
    <i name="e_0_energy">    -18.46425308 </i>
   </energy>
  </scstep>
  <scstep>
   <time name="dav">    0.65    0.66</time>
   <time name="total">    0.67    0.68</time>
   <energy>
    <i name="e_fr_energy">    -18.46425308 </i>
    <i name="e_wo_entrp">    -18.46425308 </i>
    <i name="e_0_energy">    -18.46425308 </i>
   </energy>
  </scstep>
  <scstep>
   <time name="dav">    0.66    0.66</time>
   <time name="total">    0.67    0.68</time>
   <energy>
    <i name="alphaZ">      3.13611264 </i>
    <i name="ewald">   1303.03316907 </i>
    <i name="hartreedc">  -1550.04809692 </i>
    <i name="XCdc">     27.59285695 </i>
    <i name="pawpsdc">    847.83262137 </i>
    <i name="pawaedc">   -849.19395358 </i>
    <i name="eentropy">      0.00000000 </i>
    <i name="bandstr">    -95.12580951 </i>
    <i name="atom">    294.30884690 </i>
    <i name="e_fr_energy">    -18.46425308 </i>
    <i name="e_wo_entrp">    -18.46425308 </i>
    <i name="e_0_energy">    -18.46425308 </i>
   </energy>
  </scstep>
  <structure>
   <crystal>
    <varray name="basis" >
     <v>       2.13000000      -1.22975600       0.00000000 </v>
     <v>       2.13000000       1.22975600       0.00000000 </v>
     <v>       0.00000000       0.00000000      20.00000000 </v>
    </varray>
    <i name="volume">    104.77521120 </i>
    <varray name="rec_basis" >
     <v>       0.23474178      -0.40658472       0.00000000 </v>
     <v>       0.23474178       0.40658472       0.00000000 </v>
     <v>       0.00000000       0.00000000       0.05000000 </v>
    </varray>
   </crystal>
   <varray name="positions" >
    <v>       0.00000000       0.00000000       0.00000000 </v>
    <v>       0.33333300       0.33333300       0.00000000 </v>
   </varray>
  </structure>
  <varray name="forces" >
   <v>       0.00000000       0.00000000       0.00000000 </v>
   <v>      -0.00000000      -0.00000000      -0.00000000 </v>
  </varray>
  <varray name="stress" >
   <v>       6.34878794       0.00000000       0.00000000 </v>
   <v>       0.00000000       6.34878719      -0.00000000 </v>
   <v>       0.00000000      -0.00000000      -0.34330212 </v>
  </varray>
  <energy>
   <i name="e_fr_energy">    -18.46425308 </i>
   <i name="e_wo_entrp">    -18.46425308 </i>
   <i name="e_0_energy">      0.00000000 </i>
  </energy>
  <time name="totalsc">    5.17    5.27</time>
 </calculation>
 <calculation>
  <scstep>
   <time name="dav">    0.65    0.65</time>
   <time name="total">    0.78    0.80</time>
   <energy>
    <i name="alphaZ">      3.13611264 </i>
    <i name="ewald">   1303.03316907 </i>
    <i name="hartreedc">  -1550.04809692 </i>
    <i name="XCdc">     27.59285695 </i>
    <i name="pawpsdc">    847.83262137 </i>
    <i name="pawaedc">   -849.19395358 </i>
    <i name="eentropy">      0.00000000 </i>
    <i name="bandstr">    -95.12580951 </i>
    <i name="atom">    294.30884690 </i>
    <i name="e_fr_energy">    -18.46425308 </i>
    <i name="e_wo_entrp">    -18.46425308 </i>
    <i name="e_0_energy">    -18.46425308 </i>
   </energy>
  </scstep>
  <scstep>
   <time name="dav">    0.65    0.65</time>
   <time name="total">    0.67    0.67</time>
   <energy>
    <i name="e_fr_energy">    -18.46425308 </i>
    <i name="e_wo_entrp">    -18.46425308 </i>
    <i name="e_0_energy">    -18.46425308 </i>
   </energy>
  </scstep>
  <scstep>
   <time name="dav">    0.65    0.65</time>
   <time name="total">    0.67    0.67</time>
   <energy>
    <i name="e_fr_energy">    -18.46425308 </i>
    <i name="e_wo_entrp">    -18.46425308 </i>
    <i name="e_0_energy">    -18.46425308 </i>
   </energy>
  </scstep>
  <scstep>
   <time name="dav">    0.59    0.59</time>
   <time name="total">    0.61    0.61</time>
   <energy>
    <i name="e_fr_energy">    -18.46425308 </i>
    <i name="e_wo_entrp">    -18.46425308 </i>
    <i name="e_0_energy">    -18.46425308 </i>
   </energy>
  </scstep>
  <scstep>
   <time name="dav">    0.59    0.59</time>
   <time name="total">    0.61    0.61</time>
   <energy>
    <i name="alphaZ">      3.13611264 </i>
    <i name="ewald">   1303.03316907 </i>
    <i name="hartreedc">  -1550.04809692 </i>
    <i name="XCdc">     27.59285695 </i>
    <i name="pawpsdc">    847.83262137 </i>
    <i name="pawaedc">   -849.19395358 </i>
    <i name="eentropy">      0.00000000 </i>
    <i name="bandstr">    -95.12580951 </i>
    <i name="atom">    294.30884690 </i>
    <i name="e_fr_energy">    -18.46425308 </i>
    <i name="e_wo_entrp">    -18.46425308 </i>
    <i name="e_0_energy">    -18.46425308 </i>
   </energy>
  </scstep>
  <structure>
   <crystal>
    <varray name="basis" >
     <v>       2.13000000      -1.22975600       0.00000000 </v>
     <v>       2.13000000       1.22975600       0.00000000 </v>
     <v>       0.00000000       0.00000000      20.00000000 </v>
    </varray>
    <i name="volume">    104.77521120 </i>
    <varray name="rec_basis" >
     <v>       0.23474178      -0.40658472       0.00000000 </v>
     <v>       0.23474178       0.40658472       0.00000000 </v>
     <v>       0.00000000       0.00000000       0.05000000 </v>
    </varray>
   </crystal>
   <varray name="positions" >
    <v>       0.00000000       0.00000000       0.00000000 </v>
    <v>       0.33333300       0.33333300       0.00000000 </v>
   </varray>
  </structure>
  <varray name="forces" >
   <v>      -0.00000000       0.00000000      -0.00000000 </v>
   <v>       0.00000000      -0.00000000       0.00000000 </v>
  </varray>
  <varray name="stress" >
   <v>       6.34878794       0.00000000      -0.00000000 </v>
   <v>       0.00000000       6.34878718      -0.00000000 </v>
   <v>      -0.00000000       0.00000000      -0.34330211 </v>
  </varray>
  <energy>
   <i name="e_fr_energy">    -18.46425308 </i>
   <i name="e_wo_entrp">    -18.46425308 </i>
   <i name="e_0_energy">      0.00000000 </i>
  </energy>
  <time name="totalsc">    4.98    5.06</time>
 </calculation>
 <calculation>
  <scstep>
   <time name="dav">    0.59    0.59</time>
   <time name="total">    0.72    0.74</time>
   <energy>
    <i name="alphaZ">      3.13611264 </i>
    <i name="ewald">   1303.03316907 </i>
    <i name="hartreedc">  -1550.04809692 </i>
    <i name="XCdc">     27.59285695 </i>
    <i name="pawpsdc">    847.83262137 </i>
    <i name="pawaedc">   -849.19395358 </i>
    <i name="eentropy">      0.00000000 </i>
    <i name="bandstr">    -95.12580951 </i>
    <i name="atom">    294.30884690 </i>
    <i name="e_fr_energy">    -18.46425308 </i>
    <i name="e_wo_entrp">    -18.46425308 </i>
    <i name="e_0_energy">    -18.46425308 </i>
   </energy>
  </scstep>
  <scstep>
   <time name="dav">    0.57    0.57</time>
   <time name="total">    0.59    0.59</time>
   <energy>
    <i name="e_fr_energy">    -18.46425308 </i>
    <i name="e_wo_entrp">    -18.46425308 </i>
    <i name="e_0_energy">    -18.46425308 </i>
   </energy>
  </scstep>
  <scstep>
   <time name="dav">    0.57    0.57</time>
   <time name="total">    0.59    0.59</time>
   <energy>
    <i name="e_fr_energy">    -18.46425308 </i>
    <i name="e_wo_entrp">    -18.46425308 </i>
    <i name="e_0_energy">    -18.46425308 </i>
   </energy>
  </scstep>
  <scstep>
   <time name="dav">    0.57    0.57</time>
   <time name="total">    0.59    0.59</time>
   <energy>
    <i name="e_fr_energy">    -18.46425308 </i>
    <i name="e_wo_entrp">    -18.46425308 </i>
    <i name="e_0_energy">    -18.46425308 </i>
   </energy>
  </scstep>
  <scstep>
   <time name="dav">    0.57    0.57</time>
   <time name="total">    0.59    0.59</time>
   <energy>
    <i name="alphaZ">      3.13611264 </i>
    <i name="ewald">   1303.03316907 </i>
    <i name="hartreedc">  -1550.04809692 </i>
    <i name="XCdc">     27.59285695 </i>
    <i name="pawpsdc">    847.83262137 </i>
    <i name="pawaedc">   -849.19395358 </i>
    <i name="eentropy">      0.00000000 </i>
    <i name="bandstr">    -95.12580951 </i>
    <i name="atom">    294.30884690 </i>
    <i name="e_fr_energy">    -18.46425308 </i>
    <i name="e_wo_entrp">    -18.46425308 </i>
    <i name="e_0_energy">    -18.46425308 </i>
   </energy>
  </scstep>
  <structure>
   <crystal>
    <varray name="basis" >
     <v>       2.13000000      -1.22975600       0.00000000 </v>
     <v>       2.13000000       1.22975600       0.00000000 </v>
     <v>       0.00000000       0.00000000      20.00000000 </v>
    </varray>
    <i name="volume">    104.77521120 </i>
    <varray name="rec_basis" >
     <v>       0.23474178      -0.40658472       0.00000000 </v>
     <v>       0.23474178       0.40658472       0.00000000 </v>
     <v>       0.00000000       0.00000000       0.05000000 </v>
    </varray>
   </crystal>
   <varray name="positions" >
    <v>       0.00000000       0.00000000       0.00000000 </v>
    <v>       0.33333300       0.33333300       0.00000000 </v>
   </varray>
  </structure>
  <varray name="forces" >
   <v>      -0.00000000       0.00000000      -0.00000000 </v>
   <v>       0.00000000      -0.00000000       0.00000000 </v>
  </varray>
  <varray name="stress" >
   <v>       6.34878793       0.00000000       0.00000000 </v>
   <v>       0.00000000       6.34878717      -0.00000000 </v>
   <v>      -0.00000000      -0.00000000      -0.34330214 </v>
  </varray>
  <energy>
   <i name="e_fr_energy">    -18.46425308 </i>
   <i name="e_wo_entrp">    -18.46425308 </i>
   <i name="e_0_energy">      0.00000000 </i>
  </energy>
  <time name="totalsc">    4.74    4.82</time>
 </calculation>
 <calculation>
  <scstep>
   <time name="dav">    0.57    0.57</time>
   <time name="total">    0.70    0.72</time>
   <energy>
    <i name="alphaZ">      3.13611264 </i>
    <i name="ewald">   1303.03316907 </i>
    <i name="hartreedc">  -1550.04809692 </i>
    <i name="XCdc">     27.59285695 </i>
    <i name="pawpsdc">    847.83262137 </i>
    <i name="pawaedc">   -849.19395358 </i>
    <i name="eentropy">      0.00000000 </i>
    <i name="bandstr">    -95.12580951 </i>
    <i name="atom">    294.30884690 </i>
    <i name="e_fr_energy">    -18.46425308 </i>
    <i name="e_wo_entrp">    -18.46425308 </i>
    <i name="e_0_energy">    -18.46425308 </i>
   </energy>
  </scstep>
  <scstep>
   <time name="dav">    0.57    0.57</time>
   <time name="total">    0.59    0.59</time>
   <energy>
    <i name="e_fr_energy">    -18.46425308 </i>
    <i name="e_wo_entrp">    -18.46425308 </i>
    <i name="e_0_energy">    -18.46425308 </i>
   </energy>
  </scstep>
  <scstep>
   <time name="dav">    0.55    0.56</time>
   <time name="total">    0.57    0.57</time>
   <energy>
    <i name="e_fr_energy">    -18.46425308 </i>
    <i name="e_wo_entrp">    -18.46425308 </i>
    <i name="e_0_energy">    -18.46425308 </i>
   </energy>
  </scstep>
  <scstep>
   <time name="dav">    0.55    0.56</time>
   <time name="total">    0.57    0.57</time>
   <energy>
    <i name="e_fr_energy">    -18.46425308 </i>
    <i name="e_wo_entrp">    -18.46425308 </i>
    <i name="e_0_energy">    -18.46425308 </i>
   </energy>
  </scstep>
  <scstep>
   <time name="dav">    0.55    0.56</time>
   <time name="total">    0.57    0.57</time>
   <energy>
    <i name="alphaZ">      3.13611264 </i>
    <i name="ewald">   1303.03316907 </i>
    <i name="hartreedc">  -1550.04809692 </i>
    <i name="XCdc">     27.59285695 </i>
    <i name="pawpsdc">    847.83262137 </i>
    <i name="pawaedc">   -849.19395358 </i>
    <i name="eentropy">      0.00000000 </i>
    <i name="bandstr">    -95.12580951 </i>
    <i name="atom">    294.30884690 </i>
    <i name="e_fr_energy">    -18.46425308 </i>
    <i name="e_wo_entrp">    -18.46425308 </i>
    <i name="e_0_energy">    -18.46425308 </i>
   </energy>
  </scstep>
  <structure>
   <crystal>
    <varray name="basis" >
     <v>       2.13000000      -1.22975600       0.00000000 </v>
     <v>       2.13000000       1.22975600       0.00000000 </v>
     <v>       0.00000000       0.00000000      20.00000000 </v>
    </varray>
    <i name="volume">    104.77521120 </i>
    <varray name="rec_basis" >
     <v>       0.23474178      -0.40658472       0.00000000 </v>
     <v>       0.23474178       0.40658472       0.00000000 </v>
     <v>       0.00000000       0.00000000       0.05000000 </v>
    </varray>
   </crystal>
   <varray name="positions" >
    <v>       0.00000000       0.00000000       0.00000000 </v>
    <v>       0.33333300       0.33333300       0.00000000 </v>
   </varray>
  </structure>
  <varray name="forces" >
   <v>       0.00000000       0.00000000       0.00000000 </v>
   <v>      -0.00000000      -0.00000000       0.00000000 </v>
  </varray>
  <varray name="stress" >
   <v>       6.34878793       0.00000000      -0.00000000 </v>
   <v>       0.00000000       6.34878717       0.00000000 </v>
   <v>      -0.00000000       0.00000000      -0.34330213 </v>
  </varray>
  <energy>
   <i name="e_fr_energy">    -18.46425308 </i>
   <i name="e_wo_entrp">    -18.46425308 </i>
   <i name="e_0_energy">      0.00000000 </i>
  </energy>
  <time name="totalsc">    4.66    4.74</time>
 </calculation>
 <calculation>
  <scstep>
   <time name="dav">    0.54    0.54</time>
   <time name="total">    0.67    0.69</time>
   <energy>
    <i name="alphaZ">      3.13611264 </i>
    <i name="ewald">   1303.03316907 </i>
    <i name="hartreedc">  -1550.04809692 </i>
    <i name="XCdc">     27.59285695 </i>
    <i name="pawpsdc">    847.83262137 </i>
    <i name="pawaedc">   -849.19395358 </i>
    <i name="eentropy">      0.00000000 </i>
    <i name="bandstr">    -95.12580951 </i>
    <i name="atom">    294.30884690 </i>
    <i name="e_fr_energy">    -18.46425308 </i>
    <i name="e_wo_entrp">    -18.46425308 </i>
    <i name="e_0_energy">    -18.46425308 </i>
   </energy>
  </scstep>
  <scstep>
   <time name="dav">    0.54    0.54</time>
   <time name="total">    0.56    0.56</time>
   <energy>
    <i name="e_fr_energy">    -18.46425308 </i>
    <i name="e_wo_entrp">    -18.46425308 </i>
    <i name="e_0_energy">    -18.46425308 </i>
   </energy>
  </scstep>
  <scstep>
   <time name="dav">    0.54    0.54</time>
   <time name="total">    0.56    0.56</time>
   <energy>
    <i name="e_fr_energy">    -18.46425308 </i>
    <i name="e_wo_entrp">    -18.46425308 </i>
    <i name="e_0_energy">    -18.46425308 </i>
   </energy>
  </scstep>
  <scstep>
   <time name="dav">    0.54    0.54</time>
   <time name="total">    0.56    0.56</time>
   <energy>
    <i name="e_fr_energy">    -18.46425308 </i>
    <i name="e_wo_entrp">    -18.46425308 </i>
    <i name="e_0_energy">    -18.46425308 </i>
   </energy>
  </scstep>
  <scstep>
   <time name="dav">    0.54    0.54</time>
   <time name="total">    0.56    0.56</time>
   <energy>
    <i name="alphaZ">      3.13611264 </i>
    <i name="ewald">   1303.03316907 </i>
    <i name="hartreedc">  -1550.04809692 </i>
    <i name="XCdc">     27.59285695 </i>
    <i name="pawpsdc">    847.83262137 </i>
    <i name="pawaedc">   -849.19395358 </i>
    <i name="eentropy">      0.00000000 </i>
    <i name="bandstr">    -95.12580951 </i>
    <i name="atom">    294.30884690 </i>
    <i name="e_fr_energy">    -18.46425308 </i>
    <i name="e_wo_entrp">    -18.46425308 </i>
    <i name="e_0_energy">    -18.46425308 </i>
   </energy>
  </scstep>
  <structure>
   <crystal>
    <varray name="basis" >
     <v>       2.13000000      -1.22975600       0.00000000 </v>
     <v>       2.13000000       1.22975600       0.00000000 </v>
     <v>       0.00000000       0.00000000      20.00000000 </v>
    </varray>
    <i name="volume">    104.77521120 </i>
    <varray name="rec_basis" >
     <v>       0.23474178      -0.40658472       0.00000000 </v>
     <v>       0.23474178       0.40658472       0.00000000 </v>
     <v>       0.00000000       0.00000000       0.05000000 </v>
    </varray>
   </crystal>
   <varray name="positions" >
    <v>       0.00000000       0.00000000       0.00000000 </v>
    <v>       0.33333300       0.33333300       0.00000000 </v>
   </varray>
  </structure>
  <varray name="forces" >
   <v>      -0.00000000      -0.00000000       0.00000000 </v>
   <v>       0.00000000       0.00000000      -0.00000000 </v>
  </varray>
  <varray name="stress" >
   <v>       6.34878793       0.00000000      -0.00000000 </v>
   <v>       0.00000000       6.34878717       0.00000000 </v>
   <v>       0.00000000       0.00000000      -0.34330213 </v>
  </varray>
  <energy>
   <i name="e_fr_energy">    -18.46425308 </i>
   <i name="e_wo_entrp">    -18.46425308 </i>
   <i name="e_0_energy">      0.00000000 </i>
  </energy>
  <time name="totalsc">    4.56    4.65</time>
 </calculation>
 <calculation>
  <scstep>
   <time name="dav">    0.54    0.54</time>
   <time name="total">    0.67    0.69</time>
   <energy>
    <i name="alphaZ">      3.13611264 </i>
    <i name="ewald">   1303.03316907 </i>
    <i name="hartreedc">  -1550.04809692 </i>
    <i name="XCdc">     27.59285695 </i>
    <i name="pawpsdc">    847.83262137 </i>
    <i name="pawaedc">   -849.19395358 </i>
    <i name="eentropy">      0.00000000 </i>
    <i name="bandstr">    -95.12580951 </i>
    <i name="atom">    294.30884690 </i>
    <i name="e_fr_energy">    -18.46425308 </i>
    <i name="e_wo_entrp">    -18.46425308 </i>
    <i name="e_0_energy">    -18.46425308 </i>
   </energy>
  </scstep>
  <scstep>
   <time name="dav">    0.54    0.54</time>
   <time name="total">    0.56    0.56</time>
   <energy>
    <i name="e_fr_energy">    -18.46425308 </i>
    <i name="e_wo_entrp">    -18.46425308 </i>
    <i name="e_0_energy">    -18.46425308 </i>
   </energy>
  </scstep>
  <scstep>
   <time name="dav">    0.54    0.54</time>
   <time name="total">    0.56    0.56</time>
   <energy>
    <i name="e_fr_energy">    -18.46425308 </i>
    <i name="e_wo_entrp">    -18.46425308 </i>
    <i name="e_0_energy">    -18.46425308 </i>
   </energy>
  </scstep>
  <scstep>
   <time name="dav">    0.54    0.54</time>
   <time name="total">    0.56    0.56</time>
   <energy>
    <i name="e_fr_energy">    -18.46425308 </i>
    <i name="e_wo_entrp">    -18.46425308 </i>
    <i name="e_0_energy">    -18.46425308 </i>
   </energy>
  </scstep>
  <scstep>
   <time name="dav">    0.54    0.54</time>
   <time name="total">    0.56    0.56</time>
   <energy>
    <i name="alphaZ">      3.13611264 </i>
    <i name="ewald">   1303.03316907 </i>
    <i name="hartreedc">  -1550.04809692 </i>
    <i name="XCdc">     27.59285695 </i>
    <i name="pawpsdc">    847.83262137 </i>
    <i name="pawaedc">   -849.19395358 </i>
    <i name="eentropy">      0.00000000 </i>
    <i name="bandstr">    -95.12580951 </i>
    <i name="atom">    294.30884690 </i>
    <i name="e_fr_energy">    -18.46425308 </i>
    <i name="e_wo_entrp">    -18.46425308 </i>
    <i name="e_0_energy">    -18.46425308 </i>
   </energy>
  </scstep>
  <structure>
   <crystal>
    <varray name="basis" >
     <v>       2.13000000      -1.22975600       0.00000000 </v>
     <v>       2.13000000       1.22975600       0.00000000 </v>
     <v>       0.00000000       0.00000000      20.00000000 </v>
    </varray>
    <i name="volume">    104.77521120 </i>
    <varray name="rec_basis" >
     <v>       0.23474178      -0.40658472       0.00000000 </v>
     <v>       0.23474178       0.40658472       0.00000000 </v>
     <v>       0.00000000       0.00000000       0.05000000 </v>
    </varray>
   </crystal>
   <varray name="positions" >
    <v>       0.00000000       0.00000000       0.00000000 </v>
    <v>       0.33333300       0.33333300       0.00000000 </v>
   </varray>
  </structure>
  <varray name="forces" >
   <v>       0.00000000       0.00000000       0.00000000 </v>
   <v>      -0.00000000      -0.00000000      -0.00000000 </v>
  </varray>
  <varray name="stress" >
   <v>       6.34878793       0.00000000       0.00000000 </v>
   <v>       0.00000000       6.34878717      -0.00000000 </v>
   <v>       0.00000000       0.00000000      -0.34330210 </v>
  </varray>
  <energy>
   <i name="e_fr_energy">    -18.46425308 </i>
   <i name="e_wo_entrp">    -18.46425308 </i>
   <i name="e_0_energy">      0.00000000 </i>
  </energy>
  <time name="totalsc">    4.57    4.65</time>
 </calculation>
 <calculation>
  <scstep>
   <time name="dav">    0.54    0.54</time>
   <time name="total">    0.68    0.69</time>
   <energy>
    <i name="alphaZ">      3.13611264 </i>
    <i name="ewald">   1303.03316907 </i>
    <i name="hartreedc">  -1550.04809692 </i>
    <i name="XCdc">     27.59285695 </i>
    <i name="pawpsdc">    847.83262137 </i>
    <i name="pawaedc">   -849.19395358 </i>
    <i name="eentropy">      0.00000000 </i>
    <i name="bandstr">    -95.12580951 </i>
    <i name="atom">    294.30884690 </i>
    <i name="e_fr_energy">    -18.46425308 </i>
    <i name="e_wo_entrp">    -18.46425308 </i>
    <i name="e_0_energy">    -18.46425308 </i>
   </energy>
  </scstep>
  <scstep>
   <time name="dav">    0.54    0.54</time>
   <time name="total">    0.56    0.56</time>
   <energy>
    <i name="e_fr_energy">    -18.46425308 </i>
    <i name="e_wo_entrp">    -18.46425308 </i>
    <i name="e_0_energy">    -18.46425308 </i>
   </energy>
  </scstep>
  <scstep>
   <time name="dav">    0.54    0.54</time>
   <time name="total">    0.56    0.56</time>
   <energy>
    <i name="e_fr_energy">    -18.46425308 </i>
    <i name="e_wo_entrp">    -18.46425308 </i>
    <i name="e_0_energy">    -18.46425308 </i>
   </energy>
  </scstep>
  <scstep>
   <time name="dav">    0.54    0.55</time>
   <time name="total">    0.56    0.57</time>
   <energy>
    <i name="e_fr_energy">    -18.46425308 </i>
    <i name="e_wo_entrp">    -18.46425308 </i>
    <i name="e_0_energy">    -18.46425308 </i>
   </energy>
  </scstep>
  <scstep>
   <time name="dav">    0.54    0.54</time>
   <time name="total">    0.56    0.56</time>
   <energy>
    <i name="alphaZ">      3.13611264 </i>
    <i name="ewald">   1303.03316907 </i>
    <i name="hartreedc">  -1550.04809692 </i>
    <i name="XCdc">     27.59285695 </i>
    <i name="pawpsdc">    847.83262137 </i>
    <i name="pawaedc">   -849.19395358 </i>
    <i name="eentropy">      0.00000000 </i>
    <i name="bandstr">    -95.12580951 </i>
    <i name="atom">    294.30884690 </i>
    <i name="e_fr_energy">    -18.46425308 </i>
    <i name="e_wo_entrp">    -18.46425308 </i>
    <i name="e_0_energy">    -18.46425308 </i>
   </energy>
  </scstep>
  <structure>
   <crystal>
    <varray name="basis" >
     <v>       2.13000000      -1.22975600       0.00000000 </v>
     <v>       2.13000000       1.22975600       0.00000000 </v>
     <v>       0.00000000       0.00000000      20.00000000 </v>
    </varray>
    <i name="volume">    104.77521120 </i>
    <varray name="rec_basis" >
     <v>       0.23474178      -0.40658472       0.00000000 </v>
     <v>       0.23474178       0.40658472       0.00000000 </v>
     <v>       0.00000000       0.00000000       0.05000000 </v>
    </varray>
   </crystal>
   <varray name="positions" >
    <v>       0.00000000       0.00000000       0.00000000 </v>
    <v>       0.33333300       0.33333300       0.00000000 </v>
   </varray>
  </structure>
  <varray name="forces" >
   <v>      -0.00000000      -0.00000000       0.00000000 </v>
   <v>       0.00000000       0.00000000      -0.00000000 </v>
  </varray>
  <varray name="stress" >
   <v>       6.34878795       0.00000000      -0.00000000 </v>
   <v>       0.00000000       6.34878719      -0.00000000 </v>
   <v>      -0.00000000      -0.00000000      -0.34330214 </v>
  </varray>
  <energy>
   <i name="e_fr_energy">    -18.46425308 </i>
   <i name="e_wo_entrp">    -18.46425308 </i>
   <i name="e_0_energy">      0.00000000 </i>
  </energy>
  <time name="totalsc">    4.56    4.65</time>
 </calculation>
 <calculation>
  <scstep>
   <time name="dav">    0.54    0.54</time>
   <time name="total">    0.67    0.69</time>
   <energy>
    <i name="alphaZ">      3.13611264 </i>
    <i name="ewald">   1303.03316907 </i>
    <i name="hartreedc">  -1550.04809692 </i>
    <i name="XCdc">     27.59285695 </i>
    <i name="pawpsdc">    847.83262137 </i>
    <i name="pawaedc">   -849.19395358 </i>
    <i name="eentropy">      0.00000000 </i>
    <i name="bandstr">    -95.12580951 </i>
    <i name="atom">    294.30884690 </i>
    <i name="e_fr_energy">    -18.46425308 </i>
    <i name="e_wo_entrp">    -18.46425308 </i>
    <i name="e_0_energy">    -18.46425308 </i>
   </energy>
  </scstep>
  <scstep>
   <time name="dav">    0.54    0.54</time>
   <time name="total">    0.56    0.56</time>
   <energy>
    <i name="e_fr_energy">    -18.46425308 </i>
    <i name="e_wo_entrp">    -18.46425308 </i>
    <i name="e_0_energy">    -18.46425308 </i>
   </energy>
  </scstep>
  <scstep>
   <time name="dav">    0.54    0.54</time>
   <time name="total">    0.56    0.56</time>
   <energy>
    <i name="e_fr_energy">    -18.46425308 </i>
    <i name="e_wo_entrp">    -18.46425308 </i>
    <i name="e_0_energy">    -18.46425308 </i>
   </energy>
  </scstep>
  <scstep>
   <time name="dav">    0.54    0.54</time>
   <time name="total">    0.56    0.56</time>
   <energy>
    <i name="e_fr_energy">    -18.46425308 </i>
    <i name="e_wo_entrp">    -18.46425308 </i>
    <i name="e_0_energy">    -18.46425308 </i>
   </energy>
  </scstep>
  <scstep>
   <time name="dav">    0.54    0.54</time>
   <time name="total">    0.56    0.56</time>
   <energy>
    <i name="alphaZ">      3.13611264 </i>
    <i name="ewald">   1303.03316907 </i>
    <i name="hartreedc">  -1550.04809692 </i>
    <i name="XCdc">     27.59285695 </i>
    <i name="pawpsdc">    847.83262137 </i>
    <i name="pawaedc">   -849.19395358 </i>
    <i name="eentropy">      0.00000000 </i>
    <i name="bandstr">    -95.12580951 </i>
    <i name="atom">    294.30884690 </i>
    <i name="e_fr_energy">    -18.46425308 </i>
    <i name="e_wo_entrp">    -18.46425308 </i>
    <i name="e_0_energy">    -18.46425308 </i>
   </energy>
  </scstep>
  <structure>
   <crystal>
    <varray name="basis" >
     <v>       2.13000000      -1.22975600       0.00000000 </v>
     <v>       2.13000000       1.22975600       0.00000000 </v>
     <v>       0.00000000       0.00000000      20.00000000 </v>
    </varray>
    <i name="volume">    104.77521120 </i>
    <varray name="rec_basis" >
     <v>       0.23474178      -0.40658472       0.00000000 </v>
     <v>       0.23474178       0.40658472       0.00000000 </v>
     <v>       0.00000000       0.00000000       0.05000000 </v>
    </varray>
   </crystal>
   <varray name="positions" >
    <v>       0.00000000       0.00000000       0.00000000 </v>
    <v>       0.33333300       0.33333300       0.00000000 </v>
   </varray>
  </structure>
  <varray name="forces" >
   <v>      -0.00000000       0.00000000      -0.00000000 </v>
   <v>       0.00000000      -0.00000000       0.00000000 </v>
  </varray>
  <varray name="stress" >
   <v>       6.34878793       0.00000000       0.00000000 </v>
   <v>       0.00000000       6.34878717       0.00000000 </v>
   <v>      -0.00000000       0.00000000      -0.34330213 </v>
  </varray>
  <energy>
   <i name="e_fr_energy">    -18.46425308 </i>
   <i name="e_wo_entrp">    -18.46425308 </i>
   <i name="e_0_energy">      0.00000000 </i>
  </energy>
  <time name="totalsc">    4.56    4.64</time>
 </calculation>
 <calculation>
  <scstep>
   <time name="dav">    0.54    0.54</time>
   <time name="total">    0.67    0.69</time>
   <energy>
    <i name="alphaZ">      3.13611264 </i>
    <i name="ewald">   1303.03316907 </i>
    <i name="hartreedc">  -1550.04809692 </i>
    <i name="XCdc">     27.59285695 </i>
    <i name="pawpsdc">    847.83262137 </i>
    <i name="pawaedc">   -849.19395358 </i>
    <i name="eentropy">      0.00000000 </i>
    <i name="bandstr">    -95.12580951 </i>
    <i name="atom">    294.30884690 </i>
    <i name="e_fr_energy">    -18.46425308 </i>
    <i name="e_wo_entrp">    -18.46425308 </i>
    <i name="e_0_energy">    -18.46425308 </i>
   </energy>
  </scstep>
  <scstep>
   <time name="dav">    0.54    0.54</time>
   <time name="total">    0.56    0.56</time>
   <energy>
    <i name="e_fr_energy">    -18.46425308 </i>
    <i name="e_wo_entrp">    -18.46425308 </i>
    <i name="e_0_energy">    -18.46425308 </i>
   </energy>
  </scstep>
  <scstep>
   <time name="dav">    0.54    0.54</time>
   <time name="total">    0.56    0.56</time>
   <energy>
    <i name="e_fr_energy">    -18.46425308 </i>
    <i name="e_wo_entrp">    -18.46425308 </i>
    <i name="e_0_energy">    -18.46425308 </i>
   </energy>
  </scstep>
  <scstep>
   <time name="dav">    0.54    0.54</time>
   <time name="total">    0.56    0.56</time>
   <energy>
    <i name="e_fr_energy">    -18.46425308 </i>
    <i name="e_wo_entrp">    -18.46425308 </i>
    <i name="e_0_energy">    -18.46425308 </i>
   </energy>
  </scstep>
  <scstep>
   <time name="dav">    0.54    0.54</time>
   <time name="total">    0.56    0.56</time>
   <energy>
    <i name="alphaZ">      3.13611264 </i>
    <i name="ewald">   1303.03316907 </i>
    <i name="hartreedc">  -1550.04809692 </i>
    <i name="XCdc">     27.59285695 </i>
    <i name="pawpsdc">    847.83262137 </i>
    <i name="pawaedc">   -849.19395358 </i>
    <i name="eentropy">      0.00000000 </i>
    <i name="bandstr">    -95.12580951 </i>
    <i name="atom">    294.30884690 </i>
    <i name="e_fr_energy">    -18.46425308 </i>
    <i name="e_wo_entrp">    -18.46425308 </i>
    <i name="e_0_energy">    -18.46425308 </i>
   </energy>
  </scstep>
  <structure>
   <crystal>
    <varray name="basis" >
     <v>       2.13000000      -1.22975600       0.00000000 </v>
     <v>       2.13000000       1.22975600       0.00000000 </v>
     <v>       0.00000000       0.00000000      20.00000000 </v>
    </varray>
    <i name="volume">    104.77521120 </i>
    <varray name="rec_basis" >
     <v>       0.23474178      -0.40658472       0.00000000 </v>
     <v>       0.23474178       0.40658472       0.00000000 </v>
     <v>       0.00000000       0.00000000       0.05000000 </v>
    </varray>
   </crystal>
   <varray name="positions" >
    <v>       0.00000000       0.00000000       0.00000000 </v>
    <v>       0.33333300       0.33333300       0.00000000 </v>
   </varray>
  </structure>
  <varray name="forces" >
   <v>      -0.00000000      -0.00000000       0.00000000 </v>
   <v>       0.00000000       0.00000000      -0.00000000 </v>
  </varray>
  <varray name="stress" >
   <v>       6.34878795       0.00000000       0.00000000 </v>
   <v>       0.00000000       6.34878720       0.00000000 </v>
   <v>      -0.00000000       0.00000000      -0.34330212 </v>
  </varray>
  <energy>
   <i name="e_fr_energy">    -18.46425308 </i>
   <i name="e_wo_entrp">    -18.46425308 </i>
   <i name="e_0_energy">      0.00000000 </i>
  </energy>
  <time name="totalsc">    5.17    5.43</time>
 </calculation>
 <calculation>
  <scstep>
   <time name="dav">    0.54    0.54</time>
   <time name="total">    0.67    0.69</time>
   <energy>
    <i name="alphaZ">      3.13611264 </i>
    <i name="ewald">   1303.03316907 </i>
    <i name="hartreedc">  -1550.04809692 </i>
    <i name="XCdc">     27.59285695 </i>
    <i name="pawpsdc">    847.83262137 </i>
    <i name="pawaedc">   -849.19395358 </i>
    <i name="eentropy">      0.00000000 </i>
    <i name="bandstr">    -95.12580951 </i>
    <i name="atom">    294.30884690 </i>
    <i name="e_fr_energy">    -18.46425308 </i>
    <i name="e_wo_entrp">    -18.46425308 </i>
    <i name="e_0_energy">    -18.46425308 </i>
   </energy>
  </scstep>
  <scstep>
   <time name="dav">    0.54    0.54</time>
   <time name="total">    0.56    0.56</time>
   <energy>
    <i name="e_fr_energy">    -18.46425308 </i>
    <i name="e_wo_entrp">    -18.46425308 </i>
    <i name="e_0_energy">    -18.46425308 </i>
   </energy>
  </scstep>
  <scstep>
   <time name="dav">    0.54    0.54</time>
   <time name="total">    0.56    0.56</time>
   <energy>
    <i name="e_fr_energy">    -18.46425308 </i>
    <i name="e_wo_entrp">    -18.46425308 </i>
    <i name="e_0_energy">    -18.46425308 </i>
   </energy>
  </scstep>
  <scstep>
   <time name="dav">    0.54    0.54</time>
   <time name="total">    0.56    0.56</time>
   <energy>
    <i name="e_fr_energy">    -18.46425308 </i>
    <i name="e_wo_entrp">    -18.46425308 </i>
    <i name="e_0_energy">    -18.46425308 </i>
   </energy>
  </scstep>
  <scstep>
   <time name="dav">    0.54    0.54</time>
   <time name="total">    0.56    0.56</time>
   <energy>
    <i name="alphaZ">      3.13611264 </i>
    <i name="ewald">   1303.03316907 </i>
    <i name="hartreedc">  -1550.04809692 </i>
    <i name="XCdc">     27.59285695 </i>
    <i name="pawpsdc">    847.83262137 </i>
    <i name="pawaedc">   -849.19395358 </i>
    <i name="eentropy">      0.00000000 </i>
    <i name="bandstr">    -95.12580951 </i>
    <i name="atom">    294.30884690 </i>
    <i name="e_fr_energy">    -18.46425308 </i>
    <i name="e_wo_entrp">    -18.46425308 </i>
    <i name="e_0_energy">    -18.46425308 </i>
   </energy>
  </scstep>
  <structure>
   <crystal>
    <varray name="basis" >
     <v>       2.13000000      -1.22975600       0.00000000 </v>
     <v>       2.13000000       1.22975600       0.00000000 </v>
     <v>       0.00000000       0.00000000      20.00000000 </v>
    </varray>
    <i name="volume">    104.77521120 </i>
[...]
       <r>    10.3097     0.0000    16.0000 </r>
       <r>    10.3137     0.0000    16.0000 </r>
       <r>    10.3177     0.0000    16.0000 </r>
       <r>    10.3217     0.0000    16.0000 </r>
       <r>    10.3256     0.0000    16.0000 </r>
       <r>    10.3296     0.0000    16.0000 </r>
       <r>    10.3336     0.0000    16.0000 </r>
       <r>    10.3376     0.0000    16.0000 </r>
       <r>    10.3415     0.0000    16.0000 </r>
       <r>    10.3455     0.0000    16.0000 </r>
       <r>    10.3495     0.0000    16.0000 </r>
       <r>    10.3535     0.0000    16.0000 </r>
       <r>    10.3574     0.0000    16.0000 </r>
       <r>    10.3614     0.0000    16.0000 </r>
       <r>    10.3654     0.0000    16.0000 </r>
       <r>    10.3694     0.0000    16.0000 </r>
       <r>    10.3733     0.0000    16.0000 </r>
       <r>    10.3773     0.0000    16.0000 </r>
       <r>    10.3813     0.0000    16.0000 </r>
       <r>    10.3853     0.0000    16.0000 </r>
       <r>    10.3892     0.0000    16.0000 </r>
       <r>    10.3932     0.0000    16.0000 </r>
       <r>    10.3972     0.0000    16.0000 </r>
       <r>    10.4012     0.0000    16.0000 </r>
       <r>    10.4051     0.0000    16.0000 </r>
       <r>    10.4091     0.0000    16.0000 </r>
       <r>    10.4131     0.0000    16.0000 </r>
       <r>    10.4171     0.0000    16.0000 </r>
       <r>    10.4210     0.0000    16.0000 </r>
       <r>    10.4250     0.0000    16.0000 </r>
       <r>    10.4290     0.0000    16.0000 </r>
       <r>    10.4329     0.0000    16.0000 </r>
       <r>    10.4369     0.0000    16.0000 </r>
       <r>    10.4409     0.0000    16.0000 </r>
       <r>    10.4449     0.0000    16.0000 </r>
       <r>    10.4488     0.0000    16.0000 </r>
       <r>    10.4528     0.0000    16.0000 </r>
       <r>    10.4568     0.0000    16.0000 </r>
       <r>    10.4608     0.0000    16.0000 </r>
       <r>    10.4647     0.0000    16.0000 </r>
       <r>    10.4687     0.0000    16.0000 </r>
       <r>    10.4727     0.0000    16.0000 </r>
       <r>    10.4767     0.0000    16.0000 </r>
       <r>    10.4806     0.0000    16.0000 </r>
       <r>    10.4846     0.0000    16.0000 </r>
       <r>    10.4886     0.0000    16.0000 </r>
       <r>    10.4926     0.0000    16.0000 </r>
       <r>    10.4965     0.0000    16.0000 </r>
       <r>    10.5005     0.0000    16.0000 </r>
       <r>    10.5045     0.0000    16.0000 </r>
       <r>    10.5085     0.0000    16.0000 </r>
       <r>    10.5124     0.0000    16.0000 </r>
       <r>    10.5164     0.0000    16.0000 </r>
       <r>    10.5204     0.0000    16.0000 </r>
       <r>    10.5244     0.0000    16.0000 </r>
       <r>    10.5283     0.0000    16.0000 </r>
       <r>    10.5323     0.0000    16.0000 </r>
       <r>    10.5363     0.0000    16.0000 </r>
       <r>    10.5403     0.0000    16.0000 </r>
       <r>    10.5442     0.0000    16.0000 </r>
       <r>    10.5482     0.0000    16.0000 </r>
       <r>    10.5522     0.0000    16.0000 </r>
       <r>    10.5562     0.0000    16.0000 </r>
       <r>    10.5601     0.0000    16.0000 </r>
       <r>    10.5641     0.0000    16.0000 </r>
       <r>    10.5681     0.0000    16.0000 </r>
       <r>    10.5721     0.0000    16.0000 </r>
       <r>    10.5760     0.0000    16.0000 </r>
       <r>    10.5800     0.0000    16.0000 </r>
       <r>    10.5840     0.0000    16.0000 </r>
       <r>    10.5879     0.0000    16.0000 </r>
       <r>    10.5919     0.0000    16.0000 </r>
       <r>    10.5959     0.0000    16.0000 </r>
       <r>    10.5999     0.0000    16.0000 </r>
       <r>    10.6038     0.0000    16.0000 </r>
       <r>    10.6078     0.0000    16.0000 </r>
       <r>    10.6118     0.0000    16.0000 </r>
       <r>    10.6158     0.0000    16.0000 </r>
       <r>    10.6197     0.0000    16.0000 </r>
       <r>    10.6237     0.0000    16.0000 </r>
       <r>    10.6277     0.0000    16.0000 </r>
       <r>    10.6317     0.0000    16.0000 </r>
       <r>    10.6356     0.0000    16.0000 </r>
       <r>    10.6396     0.0000    16.0000 </r>
       <r>    10.6436     0.0000    16.0000 </r>
       <r>    10.6476     0.0000    16.0000 </r>
       <r>    10.6515     0.0000    16.0000 </r>
       <r>    10.6555     0.0000    16.0000 </r>
       <r>    10.6595     0.0000    16.0000 </r>
       <r>    10.6635     0.0000    16.0000 </r>
       <r>    10.6674     0.0000    16.0000 </r>
       <r>    10.6714     0.0000    16.0000 </r>
       <r>    10.6754     0.0000    16.0000 </r>
       <r>    10.6794     0.0000    16.0000 </r>
       <r>    10.6833     0.0000    16.0000 </r>
       <r>    10.6873     0.0000    16.0000 </r>
       <r>    10.6913     0.0000    16.0000 </r>
       <r>    10.6953     0.0000    16.0000 </r>
       <r>    10.6992     0.0000    16.0000 </r>
       <r>    10.7032     0.0000    16.0000 </r>
       <r>    10.7072     0.0000    16.0000 </r>
       <r>    10.7112     0.0000    16.0000 </r>
       <r>    10.7151     0.0000    16.0000 </r>
       <r>    10.7191     0.0000    16.0000 </r>
       <r>    10.7231     0.0000    16.0000 </r>
       <r>    10.7270     0.0000    16.0000 </r>
       <r>    10.7310     0.0000    16.0000 </r>
       <r>    10.7350     0.0000    16.0000 </r>
       <r>    10.7390     0.0000    16.0000 </r>
       <r>    10.7429     0.0000    16.0000 </r>
       <r>    10.7469     0.0000    16.0000 </r>
       <r>    10.7509     0.0000    16.0000 </r>
       <r>    10.7549     0.0000    16.0000 </r>
       <r>    10.7588     0.0000    16.0000 </r>
       <r>    10.7628     0.0000    16.0000 </r>
       <r>    10.7668     0.0000    16.0000 </r>
       <r>    10.7708     0.0000    16.0000 </r>
       <r>    10.7747     0.0000    16.0000 </r>
       <r>    10.7787     0.0000    16.0000 </r>
       <r>    10.7827     0.0000    16.0000 </r>
       <r>    10.7867     0.0000    16.0000 </r>
       <r>    10.7906     0.0000    16.0000 </r>
       <r>    10.7946     0.0000    16.0000 </r>
       <r>    10.7986     0.0000    16.0000 </r>
       <r>    10.8026     0.0000    16.0000 </r>
       <r>    10.8065     0.0000    16.0000 </r>
       <r>    10.8105     0.0000    16.0000 </r>
       <r>    10.8145     0.0000    16.0000 </r>
       <r>    10.8185     0.0000    16.0000 </r>
       <r>    10.8224     0.0000    16.0000 </r>
       <r>    10.8264     0.0000    16.0000 </r>
       <r>    10.8304     0.0000    16.0000 </r>
       <r>    10.8344     0.0000    16.0000 </r>
       <r>    10.8383     0.0000    16.0000 </r>
       <r>    10.8423     0.0000    16.0000 </r>
       <r>    10.8463     0.0000    16.0000 </r>
       <r>    10.8503     0.0000    16.0000 </r>
       <r>    10.8542     0.0000    16.0000 </r>
       <r>    10.8582     0.0000    16.0000 </r>
       <r>    10.8622     0.0000    16.0000 </r>
       <r>    10.8661     0.0000    16.0000 </r>
       <r>    10.8701     0.0000    16.0000 </r>
       <r>    10.8741     0.0000    16.0000 </r>
       <r>    10.8781     0.0000    16.0000 </r>
       <r>    10.8820     0.0000    16.0000 </r>
       <r>    10.8860     0.0000    16.0000 </r>
       <r>    10.8900     0.0000    16.0000 </r>
       <r>    10.8940     0.0000    16.0000 </r>
       <r>    10.8979     0.0000    16.0000 </r>
       <r>    10.9019     0.0000    16.0000 </r>
       <r>    10.9059     0.0000    16.0000 </r>
       <r>    10.9099     0.0000    16.0000 </r>
       <r>    10.9138     0.0000    16.0000 </r>
       <r>    10.9178     0.0000    16.0000 </r>
       <r>    10.9218     0.0000    16.0000 </r>
       <r>    10.9258     0.0000    16.0000 </r>
       <r>    10.9297     0.0000    16.0000 </r>
       <r>    10.9337     0.0000    16.0000 </r>
       <r>    10.9377     0.0000    16.0000 </r>
       <r>    10.9417     0.0000    16.0000 </r>
       <r>    10.9456     0.0000    16.0000 </r>
       <r>    10.9496     0.0000    16.0000 </r>
       <r>    10.9536     0.0000    16.0000 </r>
       <r>    10.9576     0.0000    16.0000 </r>
       <r>    10.9615     0.0000    16.0000 </r>
       <r>    10.9655     0.0000    16.0000 </r>
       <r>    10.9695     0.0000    16.0000 </r>
       <r>    10.9735     0.0000    16.0000 </r>
       <r>    10.9774     0.0000    16.0000 </r>
       <r>    10.9814     0.0000    16.0000 </r>
       <r>    10.9854     0.0000    16.0000 </r>
       <r>    10.9894     0.0000    16.0000 </r>
       <r>    10.9933     0.0000    16.0000 </r>
       <r>    10.9973     0.0000    16.0000 </r>
       <r>    11.0013     0.0000    16.0000 </r>
       <r>    11.0053     0.0000    16.0000 </r>
       <r>    11.0092     0.0000    16.0000 </r>
       <r>    11.0132     0.0000    16.0000 </r>
       <r>    11.0172     0.0000    16.0000 </r>
       <r>    11.0211     0.0000    16.0000 </r>
       <r>    11.0251     0.0000    16.0000 </r>
       <r>    11.0291     0.0000    16.0000 </r>
       <r>    11.0331     0.0000    16.0000 </r>
       <r>    11.0370     0.0000    16.0000 </r>
       <r>    11.0410     0.0000    16.0000 </r>
       <r>    11.0450     0.0000    16.0000 </r>
       <r>    11.0490     0.0000    16.0000 </r>
       <r>    11.0529     0.0000    16.0000 </r>
       <r>    11.0569     0.0000    16.0000 </r>
       <r>    11.0609     0.0000    16.0000 </r>
       <r>    11.0649     0.0000    16.0000 </r>
       <r>    11.0688     0.0000    16.0000 </r>
       <r>    11.0728     0.0000    16.0000 </r>
       <r>    11.0768     0.0000    16.0000 </r>
       <r>    11.0808     0.0000    16.0000 </r>
       <r>    11.0847     0.0000    16.0000 </r>
       <r>    11.0887     0.0000    16.0000 </r>
       <r>    11.0927     0.0000    16.0000 </r>
       <r>    11.0967     0.0000    16.0000 </r>
       <r>    11.1006     0.0000    16.0000 </r>
       <r>    11.1046     0.0000    16.0000 </r>
       <r>    11.1086     0.0000    16.0000 </r>
       <r>    11.1126     0.0000    16.0000 </r>
       <r>    11.1165     0.0000    16.0000 </r>
       <r>    11.1205     0.0000    16.0000 </r>
       <r>    11.1245     0.0000    16.0000 </r>
       <r>    11.1285     0.0000    16.0000 </r>
       <r>    11.1324     0.0000    16.0000 </r>
       <r>    11.1364     0.0000    16.0000 </r>
       <r>    11.1404     0.0000    16.0000 </r>
       <r>    11.1444     0.0000    16.0000 </r>
       <r>    11.1483     0.0000    16.0000 </r>
       <r>    11.1523     0.0000    16.0000 </r>
       <r>    11.1563     0.0000    16.0000 </r>
       <r>    11.1602     0.0000    16.0000 </r>
       <r>    11.1642     0.0000    16.0000 </r>
       <r>    11.1682     0.0000    16.0000 </r>
       <r>    11.1722     0.0000    16.0000 </r>
       <r>    11.1761     0.0000    16.0000 </r>
       <r>    11.1801     0.0000    16.0000 </r>
       <r>    11.1841     0.0000    16.0000 </r>
       <r>    11.1881     0.0000    16.0000 </r>
       <r>    11.1920     0.0000    16.0000 </r>
       <r>    11.1960     0.0000    16.0000 </r>
       <r>    11.2000     0.0000    16.0000 </r>
       <r>    11.2040     0.0000    16.0000 </r>
       <r>    11.2079     0.0000    16.0000 </r>
       <r>    11.2119     0.0000    16.0000 </r>
       <r>    11.2159     0.0000    16.0000 </r>
       <r>    11.2199     0.0000    16.0000 </r>
       <r>    11.2238     0.0000    16.0000 </r>
       <r>    11.2278     0.0000    16.0000 </r>
       <r>    11.2318     0.0000    16.0000 </r>
       <r>    11.2358     0.0000    16.0000 </r>
       <r>    11.2397     0.0000    16.0000 </r>
       <r>    11.2437     0.0000    16.0000 </r>
       <r>    11.2477     0.0000    16.0000 </r>
       <r>    11.2517     0.0000    16.0000 </r>
       <r>    11.2556     0.0000    16.0000 </r>
       <r>    11.2596     0.0000    16.0000 </r>
       <r>    11.2636     0.0000    16.0000 </r>
       <r>    11.2676     0.0000    16.0000 </r>
       <r>    11.2715     0.0000    16.0000 </r>
       <r>    11.2755     0.0000    16.0000 </r>
       <r>    11.2795     0.0000    16.0000 </r>
       <r>    11.2835     0.0000    16.0000 </r>
       <r>    11.2874     0.0000    16.0000 </r>
       <r>    11.2914     0.0000    16.0000 </r>
       <r>    11.2954     0.0000    16.0000 </r>
       <r>    11.2993     0.0000    16.0000 </r>
       <r>    11.3033     0.0000    16.0000 </r>
       <r>    11.3073     0.0000    16.0000 </r>
       <r>    11.3113     0.0000    16.0000 </r>
       <r>    11.3152     0.0000    16.0000 </r>
       <r>    11.3192     0.0000    16.0000 </r>
       <r>    11.3232     0.0000    16.0000 </r>
       <r>    11.3272     0.0000    16.0000 </r>
       <r>    11.3311     0.0000    16.0000 </r>
       <r>    11.3351     0.0000    16.0000 </r>
       <r>    11.3391     0.0000    16.0000 </r>
       <r>    11.3431     0.0000    16.0000 </r>
       <r>    11.3470     0.0000    16.0000 </r>
       <r>    11.3510     0.0000    16.0000 </r>
       <r>    11.3550     0.0000    16.0000 </r>
       <r>    11.3590     0.0000    16.0000 </r>
       <r>    11.3629     0.0000    16.0000 </r>
       <r>    11.3669     0.0000    16.0000 </r>
       <r>    11.3709     0.0000    16.0000 </r>
       <r>    11.3749     0.0000    16.0000 </r>
       <r>    11.3788     0.0000    16.0000 </r>
       <r>    11.3828     0.0000    16.0000 </r>
       <r>    11.3868     0.0000    16.0000 </r>
       <r>    11.3908     0.0000    16.0000 </r>
       <r>    11.3947     0.0000    16.0000 </r>
       <r>    11.3987     0.0000    16.0000 </r>
       <r>    11.4027     0.0000    16.0000 </r>
       <r>    11.4067     0.0000    16.0000 </r>
       <r>    11.4106     0.0000    16.0000 </r>
       <r>    11.4146     0.0000    16.0000 </r>
       <r>    11.4186     0.0000    16.0000 </r>
       <r>    11.4226     0.0000    16.0000 </r>
       <r>    11.4265     0.0000    16.0000 </r>
       <r>    11.4305     0.0000    16.0000 </r>
       <r>    11.4345     0.0000    16.0000 </r>
       <r>    11.4385     0.0000    16.0000 </r>
       <r>    11.4424     0.0000    16.0000 </r>
       <r>    11.4464     0.0000    16.0000 </r>
       <r>    11.4504     0.0000    16.0000 </r>
       <r>    11.4543     0.0000    16.0000 </r>
       <r>    11.4583     0.0000    16.0000 </r>
       <r>    11.4623     0.0000    16.0000 </r>
       <r>    11.4663     0.0000    16.0000 </r>
       <r>    11.4702     0.0000    16.0000 </r>
       <r>    11.4742     0.0000    16.0000 </r>
       <r>    11.4782     0.0000    16.0000 </r>
       <r>    11.4822     0.0000    16.0000 </r>
       <r>    11.4861     0.0000    16.0000 </r>
       <r>    11.4901     0.0000    16.0000 </r>
       <r>    11.4941     0.0000    16.0000 </r>
       <r>    11.4981     0.0000    16.0000 </r>
       <r>    11.5020     0.0000    16.0000 </r>
       <r>    11.5060     0.0000    16.0000 </r>
       <r>    11.5100     0.0000    16.0000 </r>
       <r>    11.5140     0.0000    16.0000 </r>
       <r>    11.5179     0.0000    16.0000 </r>
       <r>    11.5219     0.0000    16.0000 </r>
       <r>    11.5259     0.0000    16.0000 </r>
       <r>    11.5299     0.0000    16.0000 </r>
       <r>    11.5338     0.0000    16.0000 </r>
       <r>    11.5378     0.0000    16.0000 </r>
       <r>    11.5418     0.0000    16.0000 </r>
       <r>    11.5458     0.0000    16.0000 </r>
       <r>    11.5497     0.0000    16.0000 </r>
       <r>    11.5537     0.0000    16.0000 </r>
       <r>    11.5577     0.0000    16.0000 </r>
       <r>    11.5617     0.0000    16.0000 </r>
       <r>    11.5656     0.0000    16.0000 </r>
       <r>    11.5696     0.0000    16.0000 </r>
       <r>    11.5736     0.0000    16.0000 </r>
       <r>    11.5776     0.0000    16.0000 </r>
       <r>    11.5815     0.0000    16.0000 </r>
       <r>    11.5855     0.0000    16.0000 </r>
       <r>    11.5895     0.0000    16.0000 </r>
       <r>    11.5934     0.0000    16.0000 </r>
       <r>    11.5974     0.0000    16.0000 </r>
       <r>    11.6014     0.0000    16.0000 </r>
       <r>    11.6054     0.0000    16.0000 </r>
       <r>    11.6093     0.0000    16.0000 </r>
       <r>    11.6133     0.0000    16.0000 </r>
       <r>    11.6173     0.0000    16.0000 </r>
       <r>    11.6213     0.0000    16.0000 </r>
       <r>    11.6252     0.0000    16.0000 </r>
       <r>    11.6292     0.0000    16.0000 </r>
       <r>    11.6332     0.0000    16.0000 </r>
       <r>    11.6372     0.0000    16.0000 </r>
       <r>    11.6411     0.0000    16.0000 </r>
       <r>    11.6451     0.0000    16.0000 </r>
       <r>    11.6491     0.0000    16.0000 </r>
       <r>    11.6531     0.0000    16.0000 </r>
       <r>    11.6570     0.0000    16.0000 </r>
       <r>    11.6610     0.0000    16.0000 </r>
       <r>    11.6650     0.0000    16.0000 </r>
       <r>    11.6690     0.0000    16.0000 </r>
       <r>    11.6729     0.0000    16.0000 </r>
       <r>    11.6769     0.0000    16.0000 </r>
       <r>    11.6809     0.0000    16.0000 </r>
       <r>    11.6849     0.0000    16.0000 </r>
       <r>    11.6888     0.0000    16.0000 </r>
       <r>    11.6928     0.0000    16.0000 </r>
       <r>    11.6968     0.0000    16.0000 </r>
       <r>    11.7008     0.0000    16.0000 </r>
       <r>    11.7047     0.0000    16.0000 </r>
       <r>    11.7087     0.0000    16.0000 </r>
       <r>    11.7127     0.0000    16.0000 </r>
       <r>    11.7167     0.0000    16.0000 </r>
       <r>    11.7206     0.0000    16.0000 </r>
       <r>    11.7246     0.0000    16.0000 </r>
       <r>    11.7286     0.0000    16.0000 </r>
       <r>    11.7326     0.0000    16.0000 </r>
       <r>    11.7365     0.0000    16.0000 </r>
       <r>    11.7405     0.0000    16.0000 </r>
       <r>    11.7445     0.0000    16.0000 </r>
       <r>    11.7484     0.0000    16.0000 </r>
       <r>    11.7524     0.0000    16.0000 </r>
       <r>    11.7564     0.0000    16.0000 </r>
       <r>    11.7604     0.0000    16.0000 </r>
       <r>    11.7643     0.0000    16.0000 </r>
       <r>    11.7683     0.0000    16.0000 </r>
       <r>    11.7723     0.0000    16.0000 </r>
       <r>    11.7763     0.0000    16.0000 </r>
       <r>    11.7802     0.0000    16.0000 </r>
       <r>    11.7842     0.0000    16.0000 </r>
       <r>    11.7882     0.0000    16.0000 </r>
       <r>    11.7922     0.0000    16.0000 </r>
       <r>    11.7961     0.0000    16.0000 </r>
       <r>    11.8001     0.0000    16.0000 </r>
       <r>    11.8041     0.0000    16.0000 </r>
       <r>    11.8081     0.0000    16.0000 </r>
       <r>    11.8120     0.0000    16.0000 </r>
       <r>    11.8160     0.0000    16.0000 </r>
       <r>    11.8200     0.0000    16.0000 </r>
       <r>    11.8240     0.0000    16.0000 </r>
       <r>    11.8279     0.0000    16.0000 </r>
       <r>    11.8319     0.0000    16.0000 </r>
       <r>    11.8359     0.0000    16.0000 </r>
       <r>    11.8399     0.0000    16.0000 </r>
       <r>    11.8438     0.0000    16.0000 </r>
      </set>
     </set>
    </array>
   </total>
  </dos>
 </calculation>
 <structure name="finalpos" >
  <crystal>
   <varray name="basis" >
    <v>       2.13000000      -1.22975600       0.00000000 </v>
    <v>       2.13000000       1.22975600       0.00000000 </v>
    <v>       0.00000000       0.00000000      20.00000000 </v>
   </varray>
   <i name="volume">    104.77521120 </i>
   <varray name="rec_basis" >
    <v>       0.23474178      -0.40658472       0.00000000 </v>
    <v>       0.23474178       0.40658472       0.00000000 </v>
    <v>       0.00000000       0.00000000       0.05000000 </v>
   </varray>
  </crystal>
  <varray name="positions" >
   <v>       0.00000000       0.00000000       0.00000000 </v>
   <v>       0.33333300       0.33333300       0.00000000 </v>
  </varray>
  <varray name="velocities" >
   <v>       0.00000000       0.00000000       0.00000000 </v>
   <v>       0.00000000       0.00000000       0.00000000 </v>
  </varray>
 </structure>
</modeling>
