  27  27   0   0
  0.6214970E+02  0.9846000E-09  0.9841284E-09  0.2000000E-08  0.5000000E-15
  1.000000000000000E-004
  CAR 
 W-1, se-2                               
      2.35145998    -17.44754084  301     -1.72383435      1.00000000
    -17.448  0.0000E+00  0.0000E+00
    -17.382  0.0000E+00  0.0000E+00
    -17.316  0.0000E+00  0.0000E+00
    -17.250  0.0000E+00  0.0000E+00
    -17.184  0.0000E+00  0.0000E+00
    -17.118  0.0000E+00  0.0000E+00
    -17.052  0.0000E+00  0.0000E+00
    -16.986  0.0000E+00  0.0000E+00
    -16.920  0.0000E+00  0.0000E+00
    -16.854  0.0000E+00  0.0000E+00
    -16.788  0.0000E+00  0.0000E+00
    -16.722  0.0000E+00  0.0000E+00
    -16.656  0.0000E+00  0.0000E+00
    -16.590  0.1180E-09  0.7787E-11
    -16.524  0.1582E+01  0.1044E+00
    -16.458  0.4367E+01  0.3926E+00
    -16.392  0.4587E+01  0.6956E+00
    -16.326  0.4199E+01  0.9731E+00
    -16.260  0.4915E+01  0.1297E+01
    -16.194  0.4725E+01  0.1610E+01
    -16.128  0.4741E+01  0.1923E+01
    -16.062  0.4907E+01  0.2247E+01
    -15.996  0.4644E+01  0.2554E+01
    -15.930  0.5258E+01  0.2901E+01
    -15.864  0.4486E+01  0.3197E+01
    -15.798  0.4802E+01  0.3515E+01
    -15.732  0.5316E+01  0.3867E+01
    -15.666  0.5941E+01  0.4259E+01
    -15.600  0.5806E+01  0.4642E+01
    -15.534  0.4930E+01  0.4968E+01
    -15.468  0.5687E+01  0.5343E+01
    -15.402  0.6574E+01  0.5777E+01
    -15.336  0.9860E+01  0.6428E+01
    -15.270  0.1373E+02  0.7335E+01
    -15.204  0.1505E+02  0.8329E+01
    -15.138  0.1584E+02  0.9375E+01
    -15.072  0.1621E+02  0.1044E+02
    -15.006  0.1575E+02  0.1148E+02
    -14.940  0.1750E+02  0.1264E+02
    -14.874  0.1879E+02  0.1388E+02
    -14.808  0.2031E+02  0.1522E+02
    -14.742  0.2120E+02  0.1662E+02
    -14.676  0.2228E+02  0.1809E+02
    -14.610  0.2671E+02  0.1986E+02
    -14.544  0.3222E+02  0.2198E+02
    -14.478  0.3837E+02  0.2452E+02
    -14.412  0.3123E+02  0.2658E+02
    -14.346  0.3696E+02  0.2902E+02
    -14.280  0.4727E+02  0.3215E+02
    -14.214  0.3106E+02  0.3420E+02
    -14.148  0.1987E+02  0.3551E+02
    -14.082  0.7349E+01  0.3600E+02
    -14.016  0.0000E+00  0.3600E+02
    -13.950  0.0000E+00  0.3600E+02
    -13.884  0.0000E+00  0.3600E+02
    -13.818  0.0000E+00  0.3600E+02
    -13.752  0.0000E+00  0.3600E+02
    -13.686  0.0000E+00  0.3600E+02
    -13.620  0.0000E+00  0.3600E+02
    -13.554  0.0000E+00  0.3600E+02
    -13.488  0.0000E+00  0.3600E+02
    -13.422  0.0000E+00  0.3600E+02
    -13.356  0.0000E+00  0.3600E+02
    -13.290  0.0000E+00  0.3600E+02
    -13.224  0.0000E+00  0.3600E+02
    -13.158  0.0000E+00  0.3600E+02
    -13.092  0.0000E+00  0.3600E+02
    -13.026  0.0000E+00  0.3600E+02
    -12.960  0.0000E+00  0.3600E+02
    -12.894  0.0000E+00  0.3600E+02
    -12.828  0.0000E+00  0.3600E+02
    -12.762  0.0000E+00  0.3600E+02
    -12.696  0.0000E+00  0.3600E+02
    -12.630  0.0000E+00  0.3600E+02
    -12.564  0.0000E+00  0.3600E+02
    -12.498  0.0000E+00  0.3600E+02
    -12.432  0.0000E+00  0.3600E+02
    -12.366  0.0000E+00  0.3600E+02
    -12.300  0.0000E+00  0.3600E+02
    -12.234  0.0000E+00  0.3600E+02
    -12.168  0.0000E+00  0.3600E+02
    -12.102  0.0000E+00  0.3600E+02
    -12.036  0.0000E+00  0.3600E+02
    -11.970  0.0000E+00  0.3600E+02
    -11.904  0.0000E+00  0.3600E+02
    -11.838  0.0000E+00  0.3600E+02
    -11.772  0.0000E+00  0.3600E+02
    -11.706  0.0000E+00  0.3600E+02
    -11.640  0.0000E+00  0.3600E+02
    -11.574  0.0000E+00  0.3600E+02
    -11.508  0.0000E+00  0.3600E+02
    -11.442  0.0000E+00  0.3600E+02
    -11.376  0.0000E+00  0.3600E+02
    -11.310  0.0000E+00  0.3600E+02
    -11.244  0.0000E+00  0.3600E+02
    -11.178  0.0000E+00  0.3600E+02
    -11.112  0.0000E+00  0.3600E+02
    -11.046  0.0000E+00  0.3600E+02
    -10.980  0.0000E+00  0.3600E+02
    -10.914  0.0000E+00  0.3600E+02
    -10.848  0.0000E+00  0.3600E+02
    -10.782  0.0000E+00  0.3600E+02
    -10.716  0.0000E+00  0.3600E+02
    -10.650  0.0000E+00  0.3600E+02
    -10.584  0.0000E+00  0.3600E+02
    -10.518  0.0000E+00  0.3600E+02
    -10.452  0.0000E+00  0.3600E+02
    -10.386  0.0000E+00  0.3600E+02
    -10.320  0.0000E+00  0.3600E+02
    -10.254  0.0000E+00  0.3600E+02
    -10.188  0.0000E+00  0.3600E+02
    -10.122  0.0000E+00  0.3600E+02
    -10.056  0.0000E+00  0.3600E+02
     -9.990  0.0000E+00  0.3600E+02
     -9.924  0.0000E+00  0.3600E+02
     -9.858  0.0000E+00  0.3600E+02
     -9.792  0.0000E+00  0.3600E+02
     -9.726  0.0000E+00  0.3600E+02
     -9.660  0.0000E+00  0.3600E+02
     -9.594  0.0000E+00  0.3600E+02
     -9.528  0.0000E+00  0.3600E+02
     -9.462  0.0000E+00  0.3600E+02
     -9.396  0.0000E+00  0.3600E+02
     -9.330  0.0000E+00  0.3600E+02
     -9.264  0.0000E+00  0.3600E+02
     -9.198  0.0000E+00  0.3600E+02
     -9.132  0.0000E+00  0.3600E+02
     -9.066  0.0000E+00  0.3600E+02
     -9.000  0.0000E+00  0.3600E+02
     -8.934  0.0000E+00  0.3600E+02
     -8.868  0.0000E+00  0.3600E+02
     -8.802  0.0000E+00  0.3600E+02
     -8.736  0.0000E+00  0.3600E+02
     -8.670  0.0000E+00  0.3600E+02
     -8.604  0.0000E+00  0.3600E+02
     -8.538  0.0000E+00  0.3600E+02
     -8.472  0.0000E+00  0.3600E+02
     -8.406  0.0000E+00  0.3600E+02
     -8.340  0.0000E+00  0.3600E+02
     -8.274  0.0000E+00  0.3600E+02
     -8.208  0.0000E+00  0.3600E+02
     -8.142  0.3763E+00  0.3602E+02
     -8.076  0.6589E+01  0.3646E+02
     -8.010  0.7768E+01  0.3697E+02
     -7.944  0.1052E+02  0.3767E+02
     -7.878  0.1092E+02  0.3839E+02
     -7.812  0.1124E+02  0.3913E+02
     -7.746  0.1039E+02  0.3982E+02
     -7.680  0.1268E+02  0.4066E+02
     -7.614  0.1283E+02  0.4150E+02
     -7.548  0.1367E+02  0.4241E+02
     -7.482  0.1266E+02  0.4324E+02
     -7.416  0.1286E+02  0.4409E+02
     -7.350  0.1729E+02  0.4523E+02
     -7.284  0.2208E+02  0.4669E+02
     -7.218  0.1865E+02  0.4793E+02
     -7.152  0.1593E+02  0.4898E+02
     -7.086  0.2286E+02  0.5049E+02
     -7.020  0.2582E+02  0.5219E+02
     -6.954  0.3105E+02  0.5424E+02
     -6.888  0.3942E+02  0.5685E+02
     -6.822  0.2407E+02  0.5844E+02
     -6.756  0.1953E+02  0.5973E+02
     -6.690  0.1158E+02  0.6050E+02
     -6.624  0.8938E+01  0.6109E+02
     -6.558  0.9179E+01  0.6169E+02
     -6.492  0.5854E+01  0.6208E+02
     -6.426  0.6492E+01  0.6251E+02
     -6.360  0.6548E+01  0.6294E+02
     -6.294  0.7605E+01  0.6344E+02
     -6.228  0.3137E+02  0.6551E+02
     -6.162  0.2336E+02  0.6706E+02
     -6.096  0.2345E+02  0.6860E+02
     -6.030  0.2538E+02  0.7028E+02
     -5.964  0.3934E+02  0.7288E+02
     -5.898  0.4228E+02  0.7567E+02
     -5.832  0.3709E+02  0.7812E+02
     -5.766  0.3488E+02  0.8042E+02
     -5.700  0.1014E+02  0.8110E+02
     -5.634  0.7416E+01  0.8159E+02
     -5.568  0.6109E+01  0.8199E+02
     -5.502  0.7570E+01  0.8249E+02
     -5.436  0.1290E+02  0.8334E+02
     -5.370  0.1125E+02  0.8409E+02
     -5.304  0.9107E+01  0.8469E+02
     -5.238  0.1378E+02  0.8560E+02
     -5.172  0.3226E+02  0.8773E+02
     -5.106  0.4446E+02  0.9066E+02
     -5.040  0.2832E+02  0.9253E+02
     -4.974  0.2234E+02  0.9401E+02
     -4.908  0.2407E+02  0.9560E+02
     -4.842  0.2098E+02  0.9699E+02
     -4.776  0.2036E+02  0.9833E+02
     -4.710  0.2777E+02  0.1002E+03
     -4.644  0.2348E+02  0.1017E+03
     -4.578  0.1812E+02  0.1029E+03
     -4.512  0.1887E+02  0.1042E+03
     -4.446  0.1488E+02  0.1051E+03
     -4.380  0.1196E+02  0.1059E+03
     -4.314  0.1626E+02  0.1070E+03
     -4.248  0.1303E+02  0.1079E+03
     -4.182  0.1067E+02  0.1086E+03
     -4.116  0.2249E+02  0.1101E+03
     -4.050  0.1762E+02  0.1112E+03
     -3.984  0.3001E+02  0.1132E+03
     -3.918  0.5347E+02  0.1167E+03
     -3.852  0.3324E+02  0.1189E+03
     -3.786  0.3635E+02  0.1213E+03
     -3.720  0.2855E+02  0.1232E+03
     -3.654  0.2807E+02  0.1251E+03
     -3.588  0.3236E+02  0.1272E+03
     -3.522  0.3233E+02  0.1293E+03
     -3.456  0.2788E+02  0.1312E+03
     -3.390  0.2369E+02  0.1328E+03
     -3.324  0.2199E+02  0.1342E+03
     -3.258  0.2403E+02  0.1358E+03
     -3.192  0.1651E+02  0.1369E+03
     -3.126  0.1990E+02  0.1382E+03
     -3.060  0.2136E+02  0.1396E+03
     -2.994  0.1935E+02  0.1409E+03
     -2.928  0.1934E+02  0.1422E+03
     -2.862  0.3027E+02  0.1442E+03
     -2.796  0.8901E+01  0.1447E+03
     -2.730  0.1066E+02  0.1455E+03
     -2.664  0.1546E+02  0.1465E+03
     -2.598  0.2598E+02  0.1482E+03
     -2.532  0.3460E+02  0.1505E+03
     -2.466  0.2965E+02  0.1524E+03
     -2.400  0.2804E+02  0.1543E+03
     -2.334  0.2689E+02  0.1561E+03
     -2.268  0.2481E+02  0.1577E+03
     -2.202  0.2316E+02  0.1592E+03
     -2.136  0.1138E+02  0.1600E+03
     -2.070  0.8820E+01  0.1606E+03
     -2.004  0.6716E+01  0.1610E+03
     -1.938  0.5288E+01  0.1614E+03
     -1.872  0.4397E+01  0.1617E+03
     -1.806  0.3721E+01  0.1619E+03
     -1.740  0.1568E+01  0.1620E+03
     -1.674  0.0000E+00  0.1620E+03
     -1.608  0.0000E+00  0.1620E+03
     -1.542  0.0000E+00  0.1620E+03
     -1.476  0.0000E+00  0.1620E+03
     -1.410  0.0000E+00  0.1620E+03
     -1.344  0.0000E+00  0.1620E+03
     -1.278  0.0000E+00  0.1620E+03
     -1.212  0.0000E+00  0.1620E+03
     -1.146  0.0000E+00  0.1620E+03
     -1.080  0.0000E+00  0.1620E+03
     -1.014  0.0000E+00  0.1620E+03
     -0.948  0.0000E+00  0.1620E+03
     -0.882  0.0000E+00  0.1620E+03
     -0.816  0.0000E+00  0.1620E+03
     -0.750  0.0000E+00  0.1620E+03
     -0.684  0.0000E+00  0.1620E+03
     -0.618  0.0000E+00  0.1620E+03
     -0.552  0.0000E+00  0.1620E+03
     -0.486  0.0000E+00  0.1620E+03
     -0.420  0.0000E+00  0.1620E+03
     -0.354  0.0000E+00  0.1620E+03
     -0.288  0.0000E+00  0.1620E+03
     -0.222  0.0000E+00  0.1620E+03
     -0.156  0.4912E+00  0.1620E+03
     -0.090  0.1273E+02  0.1629E+03
     -0.024  0.1765E+02  0.1640E+03
      0.042  0.2071E+02  0.1654E+03
      0.108  0.3014E+02  0.1674E+03
      0.174  0.2621E+02  0.1691E+03
      0.240  0.2310E+02  0.1707E+03
      0.306  0.2651E+02  0.1724E+03
      0.372  0.2163E+02  0.1738E+03
      0.438  0.1951E+02  0.1751E+03
      0.504  0.1561E+02  0.1762E+03
      0.570  0.2172E+02  0.1776E+03
      0.636  0.3776E+02  0.1801E+03
      0.702  0.6254E+02  0.1842E+03
      0.768  0.4596E+02  0.1873E+03
      0.834  0.4336E+02  0.1901E+03
      0.900  0.3738E+02  0.1926E+03
      0.966  0.3929E+02  0.1952E+03
      1.032  0.4740E+02  0.1983E+03
      1.098  0.3639E+02  0.2007E+03
      1.164  0.2593E+02  0.2024E+03
      1.230  0.1291E+02  0.2033E+03
      1.296  0.7194E+01  0.2038E+03
      1.362  0.2622E+01  0.2039E+03
      1.428  0.9764E+00  0.2040E+03
      1.494  0.6869E-01  0.2040E+03
      1.559  0.0000E+00  0.2040E+03
      1.625  0.0000E+00  0.2040E+03
      1.691  0.0000E+00  0.2040E+03
      1.757  0.0000E+00  0.2040E+03
      1.823  0.0000E+00  0.2040E+03
      1.889  0.0000E+00  0.2040E+03
      1.955  0.0000E+00  0.2040E+03
      2.021  0.0000E+00  0.2040E+03
      2.087  0.0000E+00  0.2040E+03
      2.153  0.0000E+00  0.2040E+03
      2.219  0.0000E+00  0.2040E+03
      2.285  0.0000E+00  0.2040E+03
      2.351  0.0000E+00  0.2040E+03
