...it's alive! Batch file starting...
 running on   36 total cores
 distrk:  each k-point on   36 cores,    1 groups
 distr:  one band on    6 cores,    6 groups
 using from now: INCAR     
 vasp.5.4.4.18Apr17-6-g9f103f2a35 (build May 31 2018 21:15:54) complex          
  
 POSCAR found type information on POSCAR  W  Se
 POSCAR found :  2 types and      27 ions
 scaLAPACK will be used

 ----------------------------------------------------------------------------- 
|                                                                             |
|  ADVICE TO THIS USER RUNNING 'VASP/VAMP'   (HEAR YOUR MASTER'S VOICE ...):  |
|                                                                             |
|      You have a (more or less) 'large supercell' and for larger cells       |
|      it might be more efficient to use real space projection operators      |
|      So try LREAL= Auto  in the INCAR   file.                               |
|      Mind: If you want to do a very accurate calculations keep the          |
|      reciprocal projection scheme          (i.e. LREAL=.FALSE.)             |
|                                                                             |
 ----------------------------------------------------------------------------- 

 WARNING: PSMAXN for non-local potential too small
 LDA part: xc-table for Pade appr. of Perdew
 POSCAR, INCAR and KPOINTS ok, starting setup
 FFT: planning ...
 WAVECAR not read
 entering main loop
       N       E                     dE             d eps       ncg     rms          rms(c)
DAV:   1     0.141502787929E+04    0.14150E+04   -0.68446E+04 45084   0.167E+03
DAV:   2     0.196844418651E+02   -0.13953E+04   -0.13486E+04 74460   0.255E+02
DAV:   3    -0.195060536920E+03   -0.21474E+03   -0.21312E+03 53460   0.105E+02
DAV:   4    -0.203870339292E+03   -0.88098E+01   -0.87592E+01 60396   0.242E+01
DAV:   5    -0.204167687164E+03   -0.29735E+00   -0.29686E+00 69528   0.380E+00    0.161E+01
DAV:   6    -0.196819212084E+03    0.73485E+01   -0.41407E+01 65664   0.148E+01    0.606E+00
DAV:   7    -0.195219853869E+03    0.15994E+01   -0.82550E+00 62874   0.781E+00    0.383E+00
DAV:   8    -0.194746218752E+03    0.47364E+00   -0.15669E+00 53856   0.328E+00    0.800E-01
DAV:   9    -0.194730076146E+03    0.16143E-01   -0.26218E-01 65886   0.129E+00    0.479E-01
DAV:  10    -0.194701218870E+03    0.28857E-01   -0.11475E-01 65184   0.806E-01    0.283E-01
DAV:  11    -0.194695230920E+03    0.59879E-02   -0.86143E-03 65436   0.304E-01    0.144E-01
DAV:  12    -0.194690401094E+03    0.48298E-02   -0.72709E-03 66708   0.201E-01    0.108E-01
DAV:  13    -0.194680213729E+03    0.10187E-01   -0.10181E-02 55656   0.203E-01    0.817E-02
DAV:  14    -0.194678236518E+03    0.19772E-02   -0.22355E-03 66096   0.113E-01    0.660E-02
DAV:  15    -0.194673920409E+03    0.43161E-02   -0.20830E-03 55872   0.102E-01    0.638E-02
DAV:  16    -0.194674798949E+03   -0.87854E-03   -0.69852E-04 57588   0.643E-02    0.525E-02
DAV:  17    -0.194681323866E+03   -0.65249E-02   -0.21076E-03 57696   0.807E-02    0.429E-02
DAV:  18    -0.194686108462E+03   -0.47846E-02   -0.79369E-04 57780   0.591E-02    0.289E-02
DAV:  19    -0.194688515627E+03   -0.24072E-02   -0.33318E-04 58236   0.387E-02    0.162E-02
DAV:  20    -0.194689565544E+03   -0.10499E-02   -0.90879E-05 59376   0.220E-02    0.831E-03
DAV:  21    -0.194690304675E+03   -0.73913E-03   -0.53976E-05 57288   0.136E-02    0.496E-03
DAV:  22    -0.194690440251E+03   -0.13558E-03   -0.58497E-06 60876   0.551E-03    0.307E-03
DAV:  23    -0.194690494963E+03   -0.54712E-04   -0.17518E-06 56136   0.313E-03    0.168E-03
DAV:  24    -0.194690532297E+03   -0.37334E-04   -0.17712E-06 56724   0.234E-03    0.576E-04
DAV:  25    -0.194690538970E+03   -0.66732E-05   -0.21143E-07 60708   0.928E-04    0.372E-04
DAV:  26    -0.194690541633E+03   -0.26625E-05   -0.46094E-08 56832   0.494E-04    0.261E-04
DAV:  27    -0.194690543252E+03   -0.16187E-05   -0.30103E-08 56376   0.317E-04    0.143E-04
DAV:  28    -0.194690543839E+03   -0.58779E-06   -0.47386E-09 49140   0.151E-04    0.777E-05
DAV:  29    -0.194690544220E+03   -0.38029E-06   -0.39604E-09 47568   0.127E-04    0.185E-05
DAV:  30    -0.194690544277E+03   -0.57673E-07    0.57150E-09 42528   0.506E-05    0.146E-05
DAV:  31    -0.194690544304E+03   -0.26279E-07    0.62479E-09 39312   0.262E-05    0.137E-05
DAV:  32    -0.194690544323E+03   -0.19640E-07    0.61897E-09 37644   0.225E-05    0.866E-06
DAV:  33    -0.194690544329E+03   -0.56061E-08    0.63255E-09 39516   0.169E-05
   1 F= -.19469054E+03 E0= -.19469054E+03  d E =-.194118E-15
Bstch file complete.
