<?xml version="1.0" encoding="ISO-8859-1"?>
<modeling>
 <generator>
  <i name="program" type="string">vasp </i>
  <i name="version" type="string">5.4.4.18Apr17-6-g9f103f2a35  </i>
  <i name="subversion" type="string">(build May 31 2018 21:15:54) complex            parallel </i>
  <i name="platform" type="string">c7_intel_O1 </i>
  <i name="date" type="string">2020 08 12 </i>
  <i name="time" type="string">12:21:39 </i>
 </generator>
 <incar>
  <i type="string" name="SYSTEM"> W-1, se-2</i>
  <i type="int" name="ISTART">     0</i>
  <i type="string" name="PREC">accurate</i>
  <i type="string" name="ALGO"> N</i>
  <i type="logical" name="ADDGRID"> T  </i>
  <i name="AMIN">      0.01000000</i>
  <i type="int" name="ICHARG">     2</i>
  <i type="int" name="NELMIN">     5</i>
  <i type="int" name="IBRION">    -1</i>
  <i name="EDIFF">      0.00000001</i>
  <i name="EDIFFG">     -0.00000001</i>
  <i type="int" name="NSW">     0</i>
  <i name="SYMPREC">      0.00010000</i>
  <i name="ENCUT">    800.00000000</i>
  <i type="logical" name="LREAL"> F  </i>
  <i type="int" name="ISMEAR">     0</i>
  <i name="SIGMA">      0.01000000</i>
  <i type="logical" name="LWAVE"> F  </i>
  <i type="logical" name="LCHARG"> F  </i>
  <v type="int" name="KPOINT_BSE">    -1     0     0     0</v>
 </incar>
 <structure name="primitive_cell" >
  <crystal>
   <varray name="basis" >
    <v>       9.84600000       0.00000000       0.00000000 </v>
    <v>       4.92300000       8.52144000       0.00000000 </v>
    <v>       0.00000000       0.00000000      20.00000000 </v>
   </varray>
   <i name="volume">   1678.04196480 </i>
   <varray name="rec_basis" >
    <v>       0.10156409      -0.05867553       0.00000000 </v>
    <v>       0.00000000       0.11735106       0.00000000 </v>
    <v>       0.00000000       0.00000000       0.05000000 </v>
   </varray>
  </crystal>
  <varray name="positions" >
   <v>       0.33330000       0.00051500       0.00044900 </v>
   <v>       0.44442600       0.11114900       0.08454100 </v>
   <v>       0.11109200       0.11114900       0.08454100 </v>
   <v>       0.44442600      -0.22218500       0.08454100 </v>
   <v>       0.44442600       0.11114900      -0.08454100 </v>
   <v>       0.11109200       0.11114900      -0.08454100 </v>
   <v>       0.44442600      -0.22218500      -0.08454100 </v>
   <v>       0.33330000       0.33340000       0.00000000 </v>
   <v>      -0.00003300       0.33340000       0.00000000 </v>
   <v>      -0.33336700       0.00006700       0.00000000 </v>
   <v>      -0.33336700      -0.33326700       0.00000000 </v>
   <v>      -0.00003300       0.00006700       0.00000000 </v>
   <v>       0.33330000      -0.33326700       0.00000000 </v>
   <v>       0.11109200       0.44448200       0.08454100 </v>
   <v>      -0.22224100      -0.22218500       0.08454100 </v>
   <v>       0.11109200       0.44448200      -0.08454100 </v>
   <v>       0.11109200      -0.22218500       0.08454100 </v>
   <v>      -0.22224100      -0.22218500      -0.08454100 </v>
   <v>       0.11109200      -0.22218500      -0.08454100 </v>
   <v>       0.44442600       0.44448200       0.08454100 </v>
   <v>      -0.22224100       0.44448200       0.08454100 </v>
   <v>      -0.22224100       0.11114900       0.08454100 </v>
   <v>       0.44442600       0.44448200      -0.08454100 </v>
   <v>      -0.22224100       0.44448200      -0.08454100 </v>
   <v>      -0.22224100       0.11114900      -0.08454100 </v>
   <v>      -0.00003300      -0.33326700       0.00000000 </v>
   <v>      -0.33336700       0.33340000       0.00000000 </v>
  </varray>
 </structure>
 <varray name="primitive_index" >
  <v type="int" >        1 </v>
  <v type="int" >       20 </v>
  <v type="int" >       19 </v>
  <v type="int" >       26 </v>
  <v type="int" >       11 </v>
  <v type="int" >       10 </v>
  <v type="int" >       17 </v>
  <v type="int" >        4 </v>
  <v type="int" >        6 </v>
  <v type="int" >        2 </v>
  <v type="int" >        8 </v>
  <v type="int" >        3 </v>
  <v type="int" >        7 </v>
  <v type="int" >       22 </v>
  <v type="int" >       27 </v>
  <v type="int" >       13 </v>
  <v type="int" >       25 </v>
  <v type="int" >       18 </v>
  <v type="int" >       16 </v>
  <v type="int" >       23 </v>
  <v type="int" >       24 </v>
  <v type="int" >       21 </v>
  <v type="int" >       14 </v>
  <v type="int" >       15 </v>
  <v type="int" >       12 </v>
  <v type="int" >        9 </v>
  <v type="int" >        5 </v>
 </varray>
 <kpoints>
  <generation param="Gamma">
   <v type="int" name="divisions">      21       21        1 </v>
   <v name="usershift">      0.00000000       0.00000000       0.00000000 </v>
   <v name="genvec1">      0.04761905      -0.00000000       0.00000000 </v>
   <v name="genvec2">      0.00000000       0.04761905       0.00000000 </v>
   <v name="genvec3">      0.00000000       0.00000000       1.00000000 </v>
   <v name="shift">      0.00000000       0.00000000       0.00000000 </v>
  </generation>
  <varray name="kpointlist" >
   <v>       0.00000000       0.00000000       0.00000000 </v>
   <v>       0.04761905       0.00000000       0.00000000 </v>
   <v>       0.09523810       0.00000000       0.00000000 </v>
   <v>       0.14285714       0.00000000       0.00000000 </v>
   <v>       0.19047619       0.00000000       0.00000000 </v>
   <v>       0.23809524       0.00000000       0.00000000 </v>
   <v>       0.28571429       0.00000000       0.00000000 </v>
   <v>       0.33333333       0.00000000       0.00000000 </v>
   <v>       0.38095238       0.00000000       0.00000000 </v>
   <v>       0.42857143       0.00000000       0.00000000 </v>
   <v>       0.47619048       0.00000000       0.00000000 </v>
   <v>       0.00000000       0.04761905       0.00000000 </v>
   <v>       0.04761905       0.04761905       0.00000000 </v>
   <v>       0.09523810       0.04761905       0.00000000 </v>
   <v>       0.14285714       0.04761905       0.00000000 </v>
   <v>       0.19047619       0.04761905       0.00000000 </v>
   <v>       0.23809524       0.04761905       0.00000000 </v>
   <v>       0.28571429       0.04761905       0.00000000 </v>
   <v>       0.33333333       0.04761905       0.00000000 </v>
   <v>       0.38095238       0.04761905       0.00000000 </v>
   <v>       0.42857143       0.04761905       0.00000000 </v>
   <v>       0.47619048       0.04761905       0.00000000 </v>
   <v>      -0.47619048       0.04761905       0.00000000 </v>
   <v>      -0.42857143       0.04761905       0.00000000 </v>
   <v>      -0.38095238       0.04761905       0.00000000 </v>
   <v>      -0.33333333       0.04761905       0.00000000 </v>
   <v>      -0.28571429       0.04761905       0.00000000 </v>
   <v>      -0.23809524       0.04761905       0.00000000 </v>
   <v>      -0.19047619       0.04761905       0.00000000 </v>
   <v>      -0.14285714       0.04761905       0.00000000 </v>
   <v>      -0.09523810       0.04761905       0.00000000 </v>
   <v>      -0.04761905       0.04761905       0.00000000 </v>
   <v>       0.00000000       0.09523810       0.00000000 </v>
   <v>       0.04761905       0.09523810       0.00000000 </v>
   <v>       0.09523810       0.09523810       0.00000000 </v>
   <v>       0.14285714       0.09523810       0.00000000 </v>
   <v>       0.19047619       0.09523810       0.00000000 </v>
   <v>       0.23809524       0.09523810       0.00000000 </v>
   <v>       0.28571429       0.09523810       0.00000000 </v>
   <v>       0.33333333       0.09523810       0.00000000 </v>
   <v>       0.38095238       0.09523810       0.00000000 </v>
   <v>       0.42857143       0.09523810       0.00000000 </v>
   <v>       0.47619048       0.09523810       0.00000000 </v>
   <v>      -0.47619048       0.09523810       0.00000000 </v>
   <v>      -0.42857143       0.09523810       0.00000000 </v>
   <v>      -0.38095238       0.09523810       0.00000000 </v>
   <v>      -0.33333333       0.09523810       0.00000000 </v>
   <v>      -0.28571429       0.09523810       0.00000000 </v>
   <v>      -0.23809524       0.09523810       0.00000000 </v>
   <v>      -0.19047619       0.09523810       0.00000000 </v>
   <v>      -0.14285714       0.09523810       0.00000000 </v>
   <v>      -0.09523810       0.09523810       0.00000000 </v>
   <v>      -0.04761905       0.09523810       0.00000000 </v>
   <v>       0.00000000       0.14285714       0.00000000 </v>
   <v>       0.04761905       0.14285714       0.00000000 </v>
   <v>       0.09523810       0.14285714       0.00000000 </v>
   <v>       0.14285714       0.14285714       0.00000000 </v>
   <v>       0.19047619       0.14285714       0.00000000 </v>
   <v>       0.23809524       0.14285714       0.00000000 </v>
   <v>       0.28571429       0.14285714       0.00000000 </v>
   <v>       0.33333333       0.14285714       0.00000000 </v>
   <v>       0.38095238       0.14285714       0.00000000 </v>
   <v>       0.42857143       0.14285714       0.00000000 </v>
   <v>       0.47619048       0.14285714       0.00000000 </v>
   <v>      -0.47619048       0.14285714       0.00000000 </v>
   <v>      -0.42857143       0.14285714       0.00000000 </v>
   <v>      -0.38095238       0.14285714       0.00000000 </v>
   <v>      -0.33333333       0.14285714       0.00000000 </v>
   <v>      -0.28571429       0.14285714       0.00000000 </v>
   <v>      -0.23809524       0.14285714       0.00000000 </v>
   <v>      -0.19047619       0.14285714       0.00000000 </v>
   <v>      -0.14285714       0.14285714       0.00000000 </v>
   <v>      -0.09523810       0.14285714       0.00000000 </v>
   <v>      -0.04761905       0.14285714       0.00000000 </v>
   <v>       0.00000000       0.19047619       0.00000000 </v>
   <v>       0.04761905       0.19047619       0.00000000 </v>
   <v>       0.09523810       0.19047619       0.00000000 </v>
   <v>       0.14285714       0.19047619       0.00000000 </v>
   <v>       0.19047619       0.19047619       0.00000000 </v>
   <v>       0.23809524       0.19047619       0.00000000 </v>
   <v>       0.28571429       0.19047619       0.00000000 </v>
   <v>       0.33333333       0.19047619       0.00000000 </v>
   <v>       0.38095238       0.19047619       0.00000000 </v>
   <v>       0.42857143       0.19047619       0.00000000 </v>
   <v>       0.47619048       0.19047619       0.00000000 </v>
   <v>      -0.47619048       0.19047619       0.00000000 </v>
   <v>      -0.42857143       0.19047619       0.00000000 </v>
   <v>      -0.38095238       0.19047619       0.00000000 </v>
   <v>      -0.33333333       0.19047619       0.00000000 </v>
   <v>      -0.28571429       0.19047619       0.00000000 </v>
   <v>      -0.23809524       0.19047619       0.00000000 </v>
   <v>      -0.19047619       0.19047619       0.00000000 </v>
   <v>      -0.14285714       0.19047619       0.00000000 </v>
   <v>      -0.09523810       0.19047619       0.00000000 </v>
   <v>      -0.04761905       0.19047619       0.00000000 </v>
   <v>       0.00000000       0.23809524       0.00000000 </v>
   <v>       0.04761905       0.23809524       0.00000000 </v>
   <v>       0.09523810       0.23809524       0.00000000 </v>
   <v>       0.14285714       0.23809524       0.00000000 </v>
   <v>       0.19047619       0.23809524       0.00000000 </v>
   <v>       0.23809524       0.23809524       0.00000000 </v>
   <v>       0.28571429       0.23809524       0.00000000 </v>
   <v>       0.33333333       0.23809524       0.00000000 </v>
   <v>       0.38095238       0.23809524       0.00000000 </v>
   <v>       0.42857143       0.23809524       0.00000000 </v>
   <v>       0.47619048       0.23809524       0.00000000 </v>
   <v>      -0.47619048       0.23809524       0.00000000 </v>
   <v>      -0.42857143       0.23809524       0.00000000 </v>
   <v>      -0.38095238       0.23809524       0.00000000 </v>
   <v>      -0.33333333       0.23809524       0.00000000 </v>
   <v>      -0.28571429       0.23809524       0.00000000 </v>
   <v>      -0.23809524       0.23809524       0.00000000 </v>
   <v>      -0.19047619       0.23809524       0.00000000 </v>
   <v>      -0.14285714       0.23809524       0.00000000 </v>
   <v>      -0.09523810       0.23809524       0.00000000 </v>
   <v>      -0.04761905       0.23809524       0.00000000 </v>
   <v>       0.00000000       0.28571429       0.00000000 </v>
   <v>       0.04761905       0.28571429       0.00000000 </v>
   <v>       0.09523810       0.28571429       0.00000000 </v>
   <v>       0.14285714       0.28571429       0.00000000 </v>
   <v>       0.19047619       0.28571429       0.00000000 </v>
   <v>       0.23809524       0.28571429       0.00000000 </v>
   <v>       0.28571429       0.28571429       0.00000000 </v>
   <v>       0.33333333       0.28571429       0.00000000 </v>
   <v>       0.38095238       0.28571429       0.00000000 </v>
   <v>       0.42857143       0.28571429       0.00000000 </v>
   <v>       0.47619048       0.28571429       0.00000000 </v>
   <v>      -0.47619048       0.28571429       0.00000000 </v>
   <v>      -0.42857143       0.28571429       0.00000000 </v>
   <v>      -0.38095238       0.28571429       0.00000000 </v>
   <v>      -0.33333333       0.28571429       0.00000000 </v>
   <v>      -0.28571429       0.28571429       0.00000000 </v>
   <v>      -0.23809524       0.28571429       0.00000000 </v>
   <v>      -0.19047619       0.28571429       0.00000000 </v>
   <v>      -0.14285714       0.28571429       0.00000000 </v>
   <v>      -0.09523810       0.28571429       0.00000000 </v>
   <v>      -0.04761905       0.28571429       0.00000000 </v>
   <v>       0.00000000       0.33333333       0.00000000 </v>
   <v>       0.04761905       0.33333333       0.00000000 </v>
   <v>       0.09523810       0.33333333       0.00000000 </v>
   <v>       0.14285714       0.33333333       0.00000000 </v>
   <v>       0.19047619       0.33333333       0.00000000 </v>
   <v>       0.23809524       0.33333333       0.00000000 </v>
   <v>       0.28571429       0.33333333       0.00000000 </v>
   <v>       0.33333333       0.33333333       0.00000000 </v>
   <v>       0.38095238       0.33333333       0.00000000 </v>
   <v>       0.42857143       0.33333333       0.00000000 </v>
   <v>       0.47619048       0.33333333       0.00000000 </v>
   <v>      -0.47619048       0.33333333       0.00000000 </v>
   <v>      -0.42857143       0.33333333       0.00000000 </v>
   <v>      -0.38095238       0.33333333       0.00000000 </v>
   <v>      -0.33333333       0.33333333       0.00000000 </v>
   <v>      -0.28571429       0.33333333       0.00000000 </v>
   <v>      -0.23809524       0.33333333       0.00000000 </v>
   <v>      -0.19047619       0.33333333       0.00000000 </v>
   <v>      -0.14285714       0.33333333       0.00000000 </v>
   <v>      -0.09523810       0.33333333       0.00000000 </v>
   <v>      -0.04761905       0.33333333       0.00000000 </v>
   <v>       0.00000000       0.38095238       0.00000000 </v>
   <v>       0.04761905       0.38095238       0.00000000 </v>
   <v>       0.09523810       0.38095238       0.00000000 </v>
   <v>       0.14285714       0.38095238       0.00000000 </v>
   <v>       0.19047619       0.38095238       0.00000000 </v>
   <v>       0.23809524       0.38095238       0.00000000 </v>
   <v>       0.28571429       0.38095238       0.00000000 </v>
   <v>       0.33333333       0.38095238       0.00000000 </v>
   <v>       0.38095238       0.38095238       0.00000000 </v>
   <v>       0.42857143       0.38095238       0.00000000 </v>
   <v>       0.47619048       0.38095238       0.00000000 </v>
   <v>      -0.47619048       0.38095238       0.00000000 </v>
   <v>      -0.42857143       0.38095238       0.00000000 </v>
   <v>      -0.38095238       0.38095238       0.00000000 </v>
   <v>      -0.33333333       0.38095238       0.00000000 </v>
   <v>      -0.28571429       0.38095238       0.00000000 </v>
   <v>      -0.23809524       0.38095238       0.00000000 </v>
   <v>      -0.19047619       0.38095238       0.00000000 </v>
   <v>      -0.14285714       0.38095238       0.00000000 </v>
   <v>      -0.09523810       0.38095238       0.00000000 </v>
   <v>      -0.04761905       0.38095238       0.00000000 </v>
   <v>       0.00000000       0.42857143       0.00000000 </v>
   <v>       0.04761905       0.42857143       0.00000000 </v>
   <v>       0.09523810       0.42857143       0.00000000 </v>
   <v>       0.14285714       0.42857143       0.00000000 </v>
   <v>       0.19047619       0.42857143       0.00000000 </v>
   <v>       0.23809524       0.42857143       0.00000000 </v>
   <v>       0.28571429       0.42857143       0.00000000 </v>
   <v>       0.33333333       0.42857143       0.00000000 </v>
   <v>       0.38095238       0.42857143       0.00000000 </v>
   <v>       0.42857143       0.42857143       0.00000000 </v>
   <v>       0.47619048       0.42857143       0.00000000 </v>
   <v>      -0.47619048       0.42857143       0.00000000 </v>
   <v>      -0.42857143       0.42857143       0.00000000 </v>
   <v>      -0.38095238       0.42857143       0.00000000 </v>
   <v>      -0.33333333       0.42857143       0.00000000 </v>
   <v>      -0.28571429       0.42857143       0.00000000 </v>
   <v>      -0.23809524       0.42857143       0.00000000 </v>
   <v>      -0.19047619       0.42857143       0.00000000 </v>
   <v>      -0.14285714       0.42857143       0.00000000 </v>
   <v>      -0.09523810       0.42857143       0.00000000 </v>
   <v>      -0.04761905       0.42857143       0.00000000 </v>
   <v>       0.00000000       0.47619048       0.00000000 </v>
   <v>       0.04761905       0.47619048       0.00000000 </v>
   <v>       0.09523810       0.47619048       0.00000000 </v>
   <v>       0.14285714       0.47619048       0.00000000 </v>
   <v>       0.19047619       0.47619048       0.00000000 </v>
   <v>       0.23809524       0.47619048       0.00000000 </v>
   <v>       0.28571429       0.47619048       0.00000000 </v>
   <v>       0.33333333       0.47619048       0.00000000 </v>
   <v>       0.38095238       0.47619048       0.00000000 </v>
   <v>       0.42857143       0.47619048       0.00000000 </v>
   <v>       0.47619048       0.47619048       0.00000000 </v>
   <v>      -0.47619048       0.47619048       0.00000000 </v>
   <v>      -0.42857143       0.47619048       0.00000000 </v>
   <v>      -0.38095238       0.47619048       0.00000000 </v>
   <v>      -0.33333333       0.47619048       0.00000000 </v>
   <v>      -0.28571429       0.47619048       0.00000000 </v>
   <v>      -0.23809524       0.47619048       0.00000000 </v>
   <v>      -0.19047619       0.47619048       0.00000000 </v>
   <v>      -0.14285714       0.47619048       0.00000000 </v>
   <v>      -0.09523810       0.47619048       0.00000000 </v>
   <v>      -0.04761905       0.47619048       0.00000000 </v>
  </varray>
  <varray name="weights" >
   <v>       0.00226757 </v>
   <v>       0.00453515 </v>
   <v>       0.00453515 </v>
   <v>       0.00453515 </v>
   <v>       0.00453515 </v>
   <v>       0.00453515 </v>
   <v>       0.00453515 </v>
   <v>       0.00453515 </v>
   <v>       0.00453515 </v>
   <v>       0.00453515 </v>
   <v>       0.00453515 </v>
   <v>       0.00453515 </v>
   <v>       0.00453515 </v>
   <v>       0.00453515 </v>
   <v>       0.00453515 </v>
   <v>       0.00453515 </v>
   <v>       0.00453515 </v>
   <v>       0.00453515 </v>
   <v>       0.00453515 </v>
   <v>       0.00453515 </v>
   <v>       0.00453515 </v>
   <v>       0.00453515 </v>
   <v>       0.00453515 </v>
   <v>       0.00453515 </v>
   <v>       0.00453515 </v>
   <v>       0.00453515 </v>
   <v>       0.00453515 </v>
   <v>       0.00453515 </v>
   <v>       0.00453515 </v>
   <v>       0.00453515 </v>
   <v>       0.00453515 </v>
   <v>       0.00453515 </v>
   <v>       0.00453515 </v>
   <v>       0.00453515 </v>
   <v>       0.00453515 </v>
   <v>       0.00453515 </v>
   <v>       0.00453515 </v>
   <v>       0.00453515 </v>
   <v>       0.00453515 </v>
   <v>       0.00453515 </v>
   <v>       0.00453515 </v>
   <v>       0.00453515 </v>
   <v>       0.00453515 </v>
   <v>       0.00453515 </v>
   <v>       0.00453515 </v>
   <v>       0.00453515 </v>
   <v>       0.00453515 </v>
   <v>       0.00453515 </v>
   <v>       0.00453515 </v>
   <v>       0.00453515 </v>
   <v>       0.00453515 </v>
   <v>       0.00453515 </v>
   <v>       0.00453515 </v>
   <v>       0.00453515 </v>
   <v>       0.00453515 </v>
   <v>       0.00453515 </v>
   <v>       0.00453515 </v>
   <v>       0.00453515 </v>
   <v>       0.00453515 </v>
   <v>       0.00453515 </v>
   <v>       0.00453515 </v>
   <v>       0.00453515 </v>
   <v>       0.00453515 </v>
   <v>       0.00453515 </v>
   <v>       0.00453515 </v>
   <v>       0.00453515 </v>
   <v>       0.00453515 </v>
   <v>       0.00453515 </v>
   <v>       0.00453515 </v>
   <v>       0.00453515 </v>
   <v>       0.00453515 </v>
   <v>       0.00453515 </v>
   <v>       0.00453515 </v>
   <v>       0.00453515 </v>
   <v>       0.00453515 </v>
   <v>       0.00453515 </v>
   <v>       0.00453515 </v>
   <v>       0.00453515 </v>
   <v>       0.00453515 </v>
   <v>       0.00453515 </v>
   <v>       0.00453515 </v>
   <v>       0.00453515 </v>
   <v>       0.00453515 </v>
   <v>       0.00453515 </v>
   <v>       0.00453515 </v>
   <v>       0.00453515 </v>
   <v>       0.00453515 </v>
   <v>       0.00453515 </v>
   <v>       0.00453515 </v>
   <v>       0.00453515 </v>
   <v>       0.00453515 </v>
   <v>       0.00453515 </v>
   <v>       0.00453515 </v>
   <v>       0.00453515 </v>
   <v>       0.00453515 </v>
   <v>       0.00453515 </v>
   <v>       0.00453515 </v>
   <v>       0.00453515 </v>
   <v>       0.00453515 </v>
   <v>       0.00453515 </v>
   <v>       0.00453515 </v>
   <v>       0.00453515 </v>
   <v>       0.00453515 </v>
   <v>       0.00453515 </v>
   <v>       0.00453515 </v>
   <v>       0.00453515 </v>
   <v>       0.00453515 </v>
   <v>       0.00453515 </v>
   <v>       0.00453515 </v>
   <v>       0.00453515 </v>
   <v>       0.00453515 </v>
   <v>       0.00453515 </v>
   <v>       0.00453515 </v>
   <v>       0.00453515 </v>
   <v>       0.00453515 </v>
   <v>       0.00453515 </v>
   <v>       0.00453515 </v>
   <v>       0.00453515 </v>
   <v>       0.00453515 </v>
   <v>       0.00453515 </v>
   <v>       0.00453515 </v>
   <v>       0.00453515 </v>
   <v>       0.00453515 </v>
   <v>       0.00453515 </v>
   <v>       0.00453515 </v>
   <v>       0.00453515 </v>
   <v>       0.00453515 </v>
   <v>       0.00453515 </v>
   <v>       0.00453515 </v>
   <v>       0.00453515 </v>
   <v>       0.00453515 </v>
   <v>       0.00453515 </v>
   <v>       0.00453515 </v>
   <v>       0.00453515 </v>
   <v>       0.00453515 </v>
   <v>       0.00453515 </v>
   <v>       0.00453515 </v>
   <v>       0.00453515 </v>
   <v>       0.00453515 </v>
   <v>       0.00453515 </v>
   <v>       0.00453515 </v>
   <v>       0.00453515 </v>
   <v>       0.00453515 </v>
   <v>       0.00453515 </v>
   <v>       0.00453515 </v>
   <v>       0.00453515 </v>
   <v>       0.00453515 </v>
   <v>       0.00453515 </v>
   <v>       0.00453515 </v>
   <v>       0.00453515 </v>
   <v>       0.00453515 </v>
   <v>       0.00453515 </v>
   <v>       0.00453515 </v>
   <v>       0.00453515 </v>
   <v>       0.00453515 </v>
   <v>       0.00453515 </v>
   <v>       0.00453515 </v>
   <v>       0.00453515 </v>
   <v>       0.00453515 </v>
   <v>       0.00453515 </v>
   <v>       0.00453515 </v>
   <v>       0.00453515 </v>
   <v>       0.00453515 </v>
   <v>       0.00453515 </v>
   <v>       0.00453515 </v>
   <v>       0.00453515 </v>
   <v>       0.00453515 </v>
   <v>       0.00453515 </v>
   <v>       0.00453515 </v>
   <v>       0.00453515 </v>
   <v>       0.00453515 </v>
   <v>       0.00453515 </v>
   <v>       0.00453515 </v>
   <v>       0.00453515 </v>
   <v>       0.00453515 </v>
   <v>       0.00453515 </v>
   <v>       0.00453515 </v>
   <v>       0.00453515 </v>
   <v>       0.00453515 </v>
   <v>       0.00453515 </v>
   <v>       0.00453515 </v>
   <v>       0.00453515 </v>
   <v>       0.00453515 </v>
   <v>       0.00453515 </v>
   <v>       0.00453515 </v>
   <v>       0.00453515 </v>
   <v>       0.00453515 </v>
   <v>       0.00453515 </v>
   <v>       0.00453515 </v>
   <v>       0.00453515 </v>
   <v>       0.00453515 </v>
   <v>       0.00453515 </v>
   <v>       0.00453515 </v>
   <v>       0.00453515 </v>
   <v>       0.00453515 </v>
   <v>       0.00453515 </v>
   <v>       0.00453515 </v>
   <v>       0.00453515 </v>
   <v>       0.00453515 </v>
   <v>       0.00453515 </v>
   <v>       0.00453515 </v>
   <v>       0.00453515 </v>
   <v>       0.00453515 </v>
   <v>       0.00453515 </v>
   <v>       0.00453515 </v>
   <v>       0.00453515 </v>
   <v>       0.00453515 </v>
   <v>       0.00453515 </v>
   <v>       0.00453515 </v>
   <v>       0.00453515 </v>
   <v>       0.00453515 </v>
   <v>       0.00453515 </v>
   <v>       0.00453515 </v>
   <v>       0.00453515 </v>
   <v>       0.00453515 </v>
   <v>       0.00453515 </v>
   <v>       0.00453515 </v>
   <v>       0.00453515 </v>
   <v>       0.00453515 </v>
   <v>       0.00453515 </v>
   <v>       0.00453515 </v>
  </varray>
 </kpoints>
 <parameters>
  <separator name="general" >
   <i type="string" name="SYSTEM">W-1, se-2</i>
   <i type="logical" name="LCOMPAT"> F  </i>
  </separator>
  <separator name="electronic" >
   <i type="string" name="PREC">accura</i>
   <i name="ENMAX">    800.00000000</i>
   <i name="ENAUG">    446.84200000</i>
   <i name="EDIFF">      0.00000001</i>
   <i type="int" name="IALGO">    38</i>
   <i type="int" name="IWAVPR">    10</i>
   <i type="int" name="NBANDS">   102</i>
   <i name="NELECT">    162.00000000</i>
   <i type="int" name="TURBO">     0</i>
   <i type="int" name="IRESTART">     0</i>
   <i type="int" name="NREBOOT">     0</i>
   <i type="int" name="NMIN">     0</i>
   <i name="EREF">      0.00000000</i>
   <separator name="electronic smearing" >
    <i type="int" name="ISMEAR">     0</i>
    <i name="SIGMA">      0.01000000</i>
    <i name="KSPACING">      0.50000000</i>
    <i type="logical" name="KGAMMA"> T  </i>
   </separator>
   <separator name="electronic projectors" >
    <i type="logical" name="LREAL"> F  </i>
    <v name="ROPT">      0.00000000      0.00000000</v>
    <i type="int" name="LMAXPAW">  -100</i>
    <i type="int" name="LMAXMIX">     2</i>
    <i type="logical" name="NLSPLINE"> F  </i>
   </separator>
   <separator name="electronic startup" >
    <i type="int" name="ISTART">     0</i>
    <i type="int" name="ICHARG">     2</i>
    <i type="int" name="INIWAV">     1</i>
   </separator>
   <separator name="electronic spin" >
    <i type="int" name="ISPIN">     1</i>
    <i type="logical" name="LNONCOLLINEAR"> F  </i>
    <v name="MAGMOM">      1.00000000      1.00000000      1.00000000      1.00000000      1.00000000      1.00000000      1.00000000      1.00000000      1.00000000      1.00000000      1.00000000      1.00000000      1.00000000      1.00000000      1.00000000      1.00000000      1.00000000      1.00000000      1.00000000      1.00000000
      1.00000000      1.00000000      1.00000000      1.00000000      1.00000000      1.00000000      1.00000000</v>
    <i name="NUPDOWN">     -1.00000000</i>
    <i type="logical" name="LSORBIT"> F  </i>
    <v name="SAXIS">      0.00000000      0.00000000      1.00000000</v>
    <i type="logical" name="LSPIRAL"> F  </i>
    <v name="QSPIRAL">      0.00000000      0.00000000      0.00000000</v>
    <i type="logical" name="LZEROZ"> F  </i>
   </separator>
   <separator name="electronic exchange-correlation" >
    <i type="logical" name="LASPH"> F  </i>
    <i type="logical" name="LMETAGGA"> F  </i>
   </separator>
   <separator name="electronic convergence" >
    <i type="int" name="NELM">    60</i>
    <i type="int" name="NELMDL">    -5</i>
    <i type="int" name="NELMIN">     5</i>
    <i name="ENINI">    800.00000000</i>
    <separator name="electronic convergence detail" >
     <i type="logical" name="LDIAG"> T  </i>
     <i type="logical" name="LSUBROT"> F  </i>
     <i name="WEIMIN">      0.00000000</i>
     <i name="EBREAK">      0.00000000</i>
     <i name="DEPER">      0.30000000</i>
     <i type="int" name="NRMM">     4</i>
     <i name="TIME">      0.40000000</i>
    </separator>
   </separator>
   <separator name="electronic mixer" >
    <i name="AMIX">      0.40000000</i>
    <i name="BMIX">      1.00000000</i>
    <i name="AMIN">      0.01000000</i>
    <i name="AMIX_MAG">      1.60000000</i>
    <i name="BMIX_MAG">      1.00000000</i>
    <separator name="electronic mixer details" >
     <i type="int" name="IMIX">     4</i>
     <i type="logical" name="MIXFIRST"> F  </i>
     <i type="int" name="MAXMIX">   -45</i>
     <i name="WC">    100.00000000</i>
     <i type="int" name="INIMIX">     1</i>
     <i type="int" name="MIXPRE">     1</i>
     <i type="int" name="MREMOVE">     5</i>
    </separator>
   </separator>
   <separator name="electronic dipolcorrection" >
    <i type="logical" name="LDIPOL"> F  </i>
    <i type="logical" name="LMONO"> F  </i>
    <i type="int" name="IDIPOL">     0</i>
    <i name="EPSILON">      1.00000000</i>
    <v name="DIPOL">   -100.00000000   -100.00000000   -100.00000000</v>
    <i name="EFIELD">      0.00000000</i>
   </separator>
  </separator>
  <separator name="grids" >
   <i type="int" name="NGX">    96</i>
   <i type="int" name="NGY">    96</i>
   <i type="int" name="NGZ">   192</i>
   <i type="int" name="NGXF">   192</i>
   <i type="int" name="NGYF">   192</i>
   <i type="int" name="NGZF">   384</i>
   <i type="logical" name="ADDGRID"> T  </i>
  </separator>
  <separator name="ionic" >
   <i type="int" name="NSW">     0</i>
   <i type="int" name="IBRION">    -1</i>
   <i type="int" name="MDALGO">     0</i>
   <i type="int" name="ISIF">     2</i>
   <i name="PSTRESS">      0.00000000</i>
   <i name="EDIFFG">     -0.00000001</i>
   <i type="int" name="NFREE">     0</i>
   <i name="POTIM">      0.50000000</i>
   <i name="SMASS">     -3.00000000</i>
   <i name="SCALEE">      1.00000000</i>
  </separator>
  <separator name="ionic md" >
   <i name="TEBEG">      0.00010000</i>
   <i name="TEEND">      0.00010000</i>
   <i type="int" name="NBLOCK">     1</i>
   <i type="int" name="KBLOCK">     1</i>
   <i type="int" name="NPACO">   256</i>
   <i name="APACO">     16.00000000</i>
  </separator>
  <separator name="symmetry" >
   <i type="int" name="ISYM">     2</i>
   <i name="SYMPREC">      0.00010000</i>
  </separator>
  <separator name="dos" >
   <i type="int" name="LORBIT">     0</i>
   <v name="RWIGS">     -1.00000000     -1.00000000</v>
   <i type="int" name="NEDOS">   301</i>
   <i name="EMIN">     10.00000000</i>
   <i name="EMAX">    -10.00000000</i>
   <i name="EFERMI">      0.00000000</i>
  </separator>
  <separator name="writing" >
   <i type="int" name="NWRITE">     2</i>
   <i type="logical" name="LWAVE"> F  </i>
   <i type="logical" name="LDOWNSAMPLE"> F  </i>
   <i type="logical" name="LCHARG"> F  </i>
   <i type="logical" name="LPARD"> F  </i>
   <i type="logical" name="LVTOT"> F  </i>
   <i type="logical" name="LVHAR"> F  </i>
   <i type="logical" name="LELF"> F  </i>
   <i type="logical" name="LOPTICS"> F  </i>
   <v name="STM">      0.00000000      0.00000000      0.00000000      0.00000000      0.00000000      0.00000000      0.00000000</v>
  </separator>
  <separator name="performance" >
   <i type="int" name="NPAR">     6</i>
   <i type="int" name="NSIM">     4</i>
   <i type="int" name="NBLK">    -1</i>
   <i type="logical" name="LPLANE"> T  </i>
   <i type="logical" name="LSCALAPACK"> T  </i>
   <i type="logical" name="LSCAAWARE"> F  </i>
   <i type="logical" name="LSCALU"> F  </i>
   <i type="logical" name="LASYNC"> F  </i>
   <i type="logical" name="LORBITALREAL"> F  </i>
  </separator>
  <separator name="miscellaneous" >
   <i type="int" name="IDIOT">     3</i>
   <i type="int" name="ISPECIAL">     0</i>
   <i type="logical" name="LMUSIC"> F  </i>
   <v name="POMASS">    183.85000000     78.96000000</v>
   <v name="DARWINR">      0.00000000      0.00000000</v>
   <v name="DARWINV">      1.00000000      1.00000000</v>
   <i type="logical" name="LCORR"> T  </i>
  </separator>
  <i type="logical" name="GGA_COMPAT"> T  </i>
  <i type="logical" name="LBERRY"> F  </i>
  <i type="int" name="ICORELEVEL">     0</i>
  <i type="logical" name="LDAU"> F  </i>
  <i type="int" name="I_CONSTRAINED_M">     0</i>
  <separator name="electronic exchange-correlation" >
   <i type="string" name="GGA">--</i>
   <i type="int" name="VOSKOWN">     0</i>
   <i type="logical" name="LHFCALC"> F  </i>
   <i type="string" name="PRECFOCK"></i>
   <i type="logical" name="LSYMGRAD"> F  </i>
   <i type="logical" name="LHFONE"> F  </i>
   <i type="logical" name="LRHFCALC"> F  </i>
   <i type="logical" name="LTHOMAS"> F  </i>
   <i type="logical" name="LMODELHF"> F  </i>
   <i name="ENCUT4O">     -1.00000000</i>
   <i type="int" name="EXXOEP">     0</i>
   <i type="int" name="FOURORBIT">     0</i>
   <i name="AEXX">      0.00000000</i>
   <i name="HFALPHA">      0.00000000</i>
   <i name="MCALPHA">      0.00000000</i>
   <i name="ALDAX">      1.00000000</i>
   <i name="AGGAX">      1.00000000</i>
   <i name="ALDAC">      1.00000000</i>
   <i name="AGGAC">      1.00000000</i>
   <i type="int" name="NKREDX">     1</i>
   <i type="int" name="NKREDY">     1</i>
   <i type="int" name="NKREDZ">     1</i>
   <i type="logical" name="SHIFTRED"> F  </i>
   <i type="logical" name="ODDONLY"> F  </i>
   <i type="logical" name="EVENONLY"> F  </i>
   <i type="int" name="LMAXFOCK">     0</i>
   <i type="int" name="NMAXFOCKAE">     0</i>
   <i type="logical" name="LFOCKAEDFT"> F  </i>
   <i name="HFSCREEN">      0.00000000</i>
   <i name="HFSCREENC">      0.00000000</i>
   <i type="int" name="NBANDSGWLOW">     0</i>
  </separator>
  <separator name="vdW DFT" >
   <i type="logical" name="LUSE_VDW"> F  </i>
   <i name="Zab_VDW">     -0.84910000</i>
   <i name="PARAM1">      0.12340000</i>
   <i name="PARAM2">      1.00000000</i>
   <i name="PARAM3">      0.00000000</i>
  </separator>
  <separator name="model GW" >
   <i type="int" name="MODEL_GW">     0</i>
   <i name="MODEL_EPS0">     37.28982144</i>
   <i name="MODEL_ALPHA">      1.00000000</i>
  </separator>
  <separator name="linear response parameters" >
   <i type="logical" name="LEPSILON"> F  </i>
   <i type="logical" name="LRPA"> F  </i>
   <i type="logical" name="LNABLA"> F  </i>
   <i type="logical" name="LVEL"> F  </i>
   <i type="int" name="KINTER">     0</i>
   <i name="CSHIFT">      0.10000000</i>
   <i name="OMEGAMAX">     -1.00000000</i>
   <i name="DEG_THRESHOLD">      0.00200000</i>
   <i name="RTIME">     -0.10000000</i>
   <i name="WPLASMAI">      0.00000000</i>
   <v name="DFIELD">      0.00000000      0.00000000      0.00000000</v>
   <v name="WPLASMA">      0.00000000      0.00000000      0.00000000      0.00000000      0.00000000      0.00000000      0.00000000      0.00000000      0.00000000</v>
  </separator>
  <separator name="orbital magnetization" >
   <i type="logical" name="NUCIND"> F  </i>
   <v name="MAGPOS">      0.00000000      0.00000000      0.00000000</v>
   <i type="logical" name="LNICSALL"> T  </i>
   <i type="logical" name="ORBITALMAG"> F  </i>
   <i type="logical" name="LMAGBLOCH"> F  </i>
   <i type="logical" name="LCHIMAG"> F  </i>
   <i type="logical" name="LGAUGE"> T  </i>
   <i type="int" name="MAGATOM">     0</i>
   <v name="MAGDIPOL">      0.00000000      0.00000000      0.00000000</v>
   <v name="AVECCONST">      0.00000000      0.00000000      0.00000000</v>
  </separator>
  <separator name="response functions" >
   <i type="logical" name="LADDER"> F  </i>
   <i type="logical" name="LRPAFORCE"> F  </i>
   <i type="logical" name="LFXC"> F  </i>
   <i type="logical" name="LHARTREE"> T  </i>
   <i type="int" name="IBSE">     0</i>
   <v type="int" name="KPOINT">    -1     0     0     0</v>
   <i type="logical" name="LTCTE"> F  </i>
   <i type="logical" name="LTETE"> F  </i>
   <i type="logical" name="LTRIPLET"> F  </i>
   <i type="logical" name="LFXCEPS"> F  </i>
   <i type="logical" name="LFXHEG"> F  </i>
   <i type="int" name="NATURALO">     2</i>
   <i type="logical" name="L2ORDER"> F  </i>
   <i type="logical" name="LMP2LT"> F  </i>
   <i type="logical" name="LUSEW"> F  </i>
   <i name="ENCUTGW">     -2.00000000</i>
   <i name="ENCUTGWSOFT">     -2.00000000</i>
   <i name="ENCUTLF">     -1.00000000</i>
   <i type="int" name="LMAXMP2">    -1</i>
   <i name="SCISSOR">      0.00000000</i>
   <i type="int" name="NOMEGA">     0</i>
   <i type="int" name="NOMEGAR">     0</i>
   <i type="int" name="NBANDSGW">    -1</i>
   <i type="int" name="NBANDSO">    -1</i>
   <i type="int" name="NBANDSV">    -1</i>
   <i type="int" name="NELM">     1</i>
   <i type="int" name="NELMHF">     1</i>
   <i type="int" name="DIM">     3</i>
   <i type="int" name="ANTIRES">     0</i>
   <i name="OMEGAMAX">    -30.00000000</i>
   <i name="OMEGAMIN">    -30.00000000</i>
   <i name="OMEGATL">   -200.00000000</i>
   <i type="int" name="OMEGAGRID">   140</i>
   <i name="CSHIFT">     -0.10000000</i>
   <i type="logical" name="SELFENERGY"> F  </i>
   <i type="logical" name="LSPECTRAL"> F  </i>
   <i type="logical" name="LSPECTRALGW"> F  </i>
   <i type="logical" name="LSINGLES"> F  </i>
   <i type="logical" name="LFERMIGW"> F  </i>
   <i type="logical" name="ODDONLYGW"> F  </i>
   <i type="logical" name="EVENONLYGW"> F  </i>
   <i type="int" name="NKREDLFX">     1</i>
   <i type="int" name="NKREDLFY">     1</i>
   <i type="int" name="NKREDLFZ">     1</i>
   <i type="int" name="MAXMEM">  2800</i>
   <i type="int" name="TELESCOPE">     0</i>
   <i type="int" name="TAUPAR">     1</i>
   <i type="int" name="OMEGAPAR">    -1</i>
   <i name="LAMBDA">      1.00000000</i>
  </separator>
  <separator name="External order field" >
   <i name="OFIELD_KAPPA">      0.00000000</i>
   <v name="OFIELD_K">      0.00000000      0.00000000      0.00000000</v>
   <i name="OFIELD_Q6_NEAR">      0.00000000</i>
   <i name="OFIELD_Q6_FAR">      0.00000000</i>
   <i name="OFIELD_A">      0.00000000</i>
  </separator>
 </parameters>
 <atominfo>
  <atoms>      27 </atoms>
  <types>       2 </types>
  <array name="atoms" >
   <dimension dim="1">ion</dimension>
   <field type="string">element</field>
   <field type="int">atomtype</field>
   <set>
    <rc><c>W </c><c>   1</c></rc>
    <rc><c>W </c><c>   1</c></rc>
    <rc><c>W </c><c>   1</c></rc>
    <rc><c>W </c><c>   1</c></rc>
    <rc><c>W </c><c>   1</c></rc>
    <rc><c>W </c><c>   1</c></rc>
    <rc><c>W </c><c>   1</c></rc>
    <rc><c>W </c><c>   1</c></rc>
    <rc><c>W </c><c>   1</c></rc>
    <rc><c>Se</c><c>   2</c></rc>
    <rc><c>Se</c><c>   2</c></rc>
    <rc><c>Se</c><c>   2</c></rc>
    <rc><c>Se</c><c>   2</c></rc>
    <rc><c>Se</c><c>   2</c></rc>
    <rc><c>Se</c><c>   2</c></rc>
    <rc><c>Se</c><c>   2</c></rc>
    <rc><c>Se</c><c>   2</c></rc>
    <rc><c>Se</c><c>   2</c></rc>
    <rc><c>Se</c><c>   2</c></rc>
    <rc><c>Se</c><c>   2</c></rc>
    <rc><c>Se</c><c>   2</c></rc>
    <rc><c>Se</c><c>   2</c></rc>
    <rc><c>Se</c><c>   2</c></rc>
    <rc><c>Se</c><c>   2</c></rc>
    <rc><c>Se</c><c>   2</c></rc>
    <rc><c>Se</c><c>   2</c></rc>
    <rc><c>Se</c><c>   2</c></rc>
   </set>
  </array>
  <array name="atomtypes" >
   <dimension dim="1">type</dimension>
   <field type="int">atomspertype</field>
   <field type="string">element</field>
   <field>mass</field>
   <field>valence</field>
   <field type="string">pseudopotential</field>
   <set>
    <rc><c>   9</c><c>W </c><c>    183.85000000</c><c>      6.00000000</c><c> PAW_PBE W 08Apr2002                    </c></rc>
    <rc><c>  18</c><c>Se</c><c>     78.96000000</c><c>      6.00000000</c><c> PAW_PBE Se 06Sep2000                   </c></rc>
   </set>
  </array>
 </atominfo>
 <structure name="initialpos" >
  <crystal>
   <varray name="basis" >
    <v>       9.84600000       0.00000000       0.00000000 </v>
    <v>       4.92300000       8.52144000       0.00000000 </v>
    <v>       0.00000000       0.00000000      20.00000000 </v>
   </varray>
   <i name="volume">   1678.04196480 </i>
   <varray name="rec_basis" >
    <v>       0.10156409      -0.05867553       0.00000000 </v>
    <v>       0.00000000       0.11735106       0.00000000 </v>
    <v>       0.00000000       0.00000000       0.05000000 </v>
   </varray>
  </crystal>
  <varray name="positions" >
   <v>       0.33330000       0.00051500       0.00044900 </v>
   <v>       0.66663300       0.00006700       0.00000000 </v>
   <v>       0.99996700       0.00006700       0.00000000 </v>
   <v>       0.33330000       0.33340000       0.00000000 </v>
   <v>       0.66663300       0.33340000       0.00000000 </v>
   <v>       0.99996700       0.33340000       0.00000000 </v>
   <v>       0.33330000       0.66673300       0.00000000 </v>
   <v>       0.66663300       0.66673300       0.00000000 </v>
   <v>       0.99996700       0.66673300       0.00000000 </v>
   <v>       0.11109200       0.11114900       0.91545900 </v>
   <v>       0.44442600       0.11114900       0.91545900 </v>
   <v>       0.77775900       0.11114900       0.91545900 </v>
   <v>       0.11109200       0.44448200       0.91545900 </v>
   <v>       0.44442600       0.44448200       0.91545900 </v>
   <v>       0.77775900       0.44448200       0.91545900 </v>
   <v>       0.11109200       0.77781500       0.91545900 </v>
   <v>       0.44442600       0.77781500       0.91545900 </v>
   <v>       0.77775900       0.77781500       0.91545900 </v>
   <v>       0.11109200       0.11114900       0.08454100 </v>
   <v>       0.44442600       0.11114900       0.08454100 </v>
   <v>       0.77775900       0.11114900       0.08454100 </v>
   <v>       0.11109200       0.44448200       0.08454100 </v>
   <v>       0.44442600       0.44448200       0.08454100 </v>
   <v>       0.77775900       0.44448200       0.08454100 </v>
   <v>       0.11109200       0.77781500       0.08454100 </v>
   <v>       0.44442600       0.77781500       0.08454100 </v>
   <v>       0.77775900       0.77781500       0.08454100 </v>
  </varray>
 </structure>
 <calculation>
  <scstep>
   <time name="dav">  252.81  253.42</time>
   <time name="total">  253.21  253.85</time>
   <energy>
    <i name="alphaZ">    206.49012646 </i>
    <i name="ewald">  19424.41287578 </i>
    <i name="hartreedc"> -25374.65770002 </i>
    <i name="XCdc">   -439.16814127 </i>
    <i name="pawpsdc">   3546.74135395 </i>
    <i name="pawaedc">  -2766.52518036 </i>
    <i name="eentropy">     -0.00056096 </i>
    <i name="bandstr">    350.89228679 </i>
    <i name="atom">   6466.84281893 </i>
    <i name="e_fr_energy">   1415.02787929 </i>
    <i name="e_wo_entrp">   1415.02844025 </i>
    <i name="e_0_energy">   1415.02815977 </i>
   </energy>
  </scstep>
  <scstep>
   <time name="dav">  370.11  371.03</time>
   <time name="total">  370.11  371.03</time>
   <energy>
    <i name="e_fr_energy">     19.68444187 </i>
    <i name="e_wo_entrp">     19.68444187 </i>
    <i name="e_0_energy">     19.68444187 </i>
   </energy>
  </scstep>
  <scstep>
   <time name="dav">  285.83  286.55</time>
   <time name="total">  285.83  286.55</time>
   <energy>
    <i name="e_fr_energy">   -195.06053692 </i>
    <i name="e_wo_entrp">   -195.06053692 </i>
    <i name="e_0_energy">   -195.06053692 </i>
   </energy>
  </scstep>
  <scstep>
   <time name="dav">  313.58  314.36</time>
   <time name="total">  313.58  314.37</time>
   <energy>
    <i name="e_fr_energy">   -203.87033929 </i>
    <i name="e_wo_entrp">   -203.87033929 </i>
    <i name="e_0_energy">   -203.87033929 </i>
   </energy>
  </scstep>
  <scstep>
   <time name="dav">  350.81  351.69</time>
   <time name="total">  362.12  363.02</time>
   <energy>
    <i name="e_fr_energy">   -204.16768716 </i>
    <i name="e_wo_entrp">   -204.16768716 </i>
    <i name="e_0_energy">   -204.16768716 </i>
   </energy>
  </scstep>
  <scstep>
   <time name="dav">  328.22  329.02</time>
   <time name="total">  339.87  340.72</time>
   <energy>
    <i name="e_fr_energy">   -196.81921208 </i>
    <i name="e_wo_entrp">   -196.81921208 </i>
    <i name="e_0_energy">   -196.81921208 </i>
   </energy>
  </scstep>
  <scstep>
   <time name="dav">  318.74  319.51</time>
   <time name="total">  330.40  331.22</time>
   <energy>
    <i name="e_fr_energy">   -195.21985387 </i>
    <i name="e_wo_entrp">   -195.21985387 </i>
    <i name="e_0_energy">   -195.21985387 </i>
   </energy>
  </scstep>
  <scstep>
   <time name="dav">  283.00  283.69</time>
   <time name="total">  294.66  295.40</time>
   <energy>
    <i name="e_fr_energy">   -194.74621875 </i>
    <i name="e_wo_entrp">   -194.74621875 </i>
    <i name="e_0_energy">   -194.74621875 </i>
   </energy>
  </scstep>
  <scstep>
   <time name="dav">  330.42  331.22</time>
   <time name="total">  342.05  342.90</time>
   <energy>
    <i name="e_fr_energy">   -194.73007615 </i>
    <i name="e_wo_entrp">   -194.73007615 </i>
    <i name="e_0_energy">   -194.73007615 </i>
   </energy>
  </scstep>
  <scstep>
   <time name="dav">  327.64  328.44</time>
   <time name="total">  339.30  340.14</time>
   <energy>
    <i name="e_fr_energy">   -194.70121887 </i>
    <i name="e_wo_entrp">   -194.70121887 </i>
    <i name="e_0_energy">   -194.70121887 </i>
   </energy>
  </scstep>
  <scstep>
   <time name="dav">  328.49  329.29</time>
   <time name="total">  340.12  340.97</time>
   <energy>
    <i name="e_fr_energy">   -194.69523092 </i>
    <i name="e_wo_entrp">   -194.69523092 </i>
    <i name="e_0_energy">   -194.69523092 </i>
   </energy>
  </scstep>
  <scstep>
   <time name="dav">  336.41  337.22</time>
   <time name="total">  348.62  349.49</time>
   <energy>
    <i name="e_fr_energy">   -194.69040109 </i>
    <i name="e_wo_entrp">   -194.69040109 </i>
    <i name="e_0_energy">   -194.69040109 </i>
   </energy>
  </scstep>
  <scstep>
   <time name="dav">  295.03  295.74</time>
   <time name="total">  307.28  308.04</time>
   <energy>
    <i name="e_fr_energy">   -194.68021373 </i>
    <i name="e_wo_entrp">   -194.68021373 </i>
    <i name="e_0_energy">   -194.68021373 </i>
   </energy>
  </scstep>
  <scstep>
   <time name="dav">  336.70  337.52</time>
   <time name="total">  348.85  349.72</time>
   <energy>
    <i name="e_fr_energy">   -194.67823652 </i>
    <i name="e_wo_entrp">   -194.67823652 </i>
    <i name="e_0_energy">   -194.67823652 </i>
   </energy>
  </scstep>
  <scstep>
   <time name="dav">  295.87  296.59</time>
   <time name="total">  308.09  308.86</time>
   <energy>
    <i name="e_fr_energy">   -194.67392041 </i>
    <i name="e_wo_entrp">   -194.67392041 </i>
    <i name="e_0_energy">   -194.67392041 </i>
   </energy>
  </scstep>
  <scstep>
   <time name="dav">  297.71  298.44</time>
   <time name="total">  309.34  310.12</time>
   <energy>
    <i name="e_fr_energy">   -194.67479895 </i>
    <i name="e_wo_entrp">   -194.67479895 </i>
    <i name="e_0_energy">   -194.67479895 </i>
   </energy>
  </scstep>
  <scstep>
   <time name="dav">  298.32  299.04</time>
   <time name="total">  310.02  310.79</time>
   <energy>
    <i name="e_fr_energy">   -194.68132387 </i>
    <i name="e_wo_entrp">   -194.68132387 </i>
    <i name="e_0_energy">   -194.68132387 </i>
   </energy>
  </scstep>
  <scstep>
   <time name="dav">  298.43  299.15</time>
   <time name="total">  310.14  310.91</time>
   <energy>
    <i name="e_fr_energy">   -194.68610846 </i>
    <i name="e_wo_entrp">   -194.68610846 </i>
    <i name="e_0_energy">   -194.68610846 </i>
   </energy>
  </scstep>
  <scstep>
   <time name="dav">  300.22  300.94</time>
   <time name="total">  311.99  312.76</time>
   <energy>
    <i name="e_fr_energy">   -194.68851563 </i>
    <i name="e_wo_entrp">   -194.68851563 </i>
    <i name="e_0_energy">   -194.68851563 </i>
   </energy>
  </scstep>
  <scstep>
   <time name="dav">  304.44  305.17</time>
   <time name="total">  316.20  316.98</time>
   <energy>
    <i name="e_fr_energy">   -194.68956554 </i>
    <i name="e_wo_entrp">   -194.68956554 </i>
    <i name="e_0_energy">   -194.68956554 </i>
   </energy>
  </scstep>
  <scstep>
   <time name="dav">  296.84  297.55</time>
   <time name="total">  308.80  309.57</time>
   <energy>
    <i name="e_fr_energy">   -194.69030467 </i>
    <i name="e_wo_entrp">   -194.69030467 </i>
    <i name="e_0_energy">   -194.69030467 </i>
   </energy>
  </scstep>
  <scstep>
   <time name="dav">  311.11  311.86</time>
   <time name="total">  323.07  323.87</time>
   <energy>
    <i name="e_fr_energy">   -194.69044025 </i>
    <i name="e_wo_entrp">   -194.69044025 </i>
    <i name="e_0_energy">   -194.69044025 </i>
   </energy>
  </scstep>
  <scstep>
   <time name="dav">  292.66  293.37</time>
   <time name="total">  304.63  305.39</time>
   <energy>
    <i name="e_fr_energy">   -194.69049496 </i>
    <i name="e_wo_entrp">   -194.69049496 </i>
    <i name="e_0_energy">   -194.69049496 </i>
   </energy>
  </scstep>
  <scstep>
   <time name="dav">  293.58  294.29</time>
   <time name="total">  305.54  306.30</time>
   <energy>
    <i name="e_fr_energy">   -194.69053230 </i>
    <i name="e_wo_entrp">   -194.69053230 </i>
    <i name="e_0_energy">   -194.69053230 </i>
   </energy>
  </scstep>
  <scstep>
   <time name="dav">  310.49  311.24</time>
   <time name="total">  322.47  323.28</time>
   <energy>
    <i name="e_fr_energy">   -194.69053897 </i>
    <i name="e_wo_entrp">   -194.69053897 </i>
    <i name="e_0_energy">   -194.69053897 </i>
   </energy>
  </scstep>
  <scstep>
   <time name="dav">  295.73  296.44</time>
   <time name="total">  307.53  308.29</time>
   <energy>
    <i name="e_fr_energy">   -194.69054163 </i>
    <i name="e_wo_entrp">   -194.69054163 </i>
    <i name="e_0_energy">   -194.69054163 </i>
   </energy>
  </scstep>
  <scstep>
   <time name="dav">  293.73  294.44</time>
   <time name="total">  305.54  306.30</time>
   <energy>
    <i name="e_fr_energy">   -194.69054325 </i>
    <i name="e_wo_entrp">   -194.69054325 </i>
    <i name="e_0_energy">   -194.69054325 </i>
   </energy>
  </scstep>
  <scstep>
   <time name="dav">  265.63  266.28</time>
   <time name="total">  277.46  278.15</time>
   <energy>
    <i name="e_fr_energy">   -194.69054384 </i>
    <i name="e_wo_entrp">   -194.69054384 </i>
    <i name="e_0_energy">   -194.69054384 </i>
   </energy>
  </scstep>
  <scstep>
   <time name="dav">  259.17  259.80</time>
   <time name="total">  271.00  271.68</time>
   <energy>
    <i name="e_fr_energy">   -194.69054422 </i>
    <i name="e_wo_entrp">   -194.69054422 </i>
    <i name="e_0_energy">   -194.69054422 </i>
   </energy>
  </scstep>
  <scstep>
   <time name="dav">  238.79  239.37</time>
   <time name="total">  250.63  251.26</time>
   <energy>
    <i name="e_fr_energy">   -194.69054428 </i>
    <i name="e_wo_entrp">   -194.69054428 </i>
    <i name="e_0_energy">   -194.69054428 </i>
   </energy>
  </scstep>
  <scstep>
   <time name="dav">  226.92  227.47</time>
   <time name="total">  238.79  239.41</time>
   <energy>
    <i name="e_fr_energy">   -194.69054430 </i>
    <i name="e_wo_entrp">   -194.69054430 </i>
    <i name="e_0_energy">   -194.69054430 </i>
   </energy>
  </scstep>
  <scstep>
   <time name="dav">  220.39  220.93</time>
   <time name="total">  232.21  232.79</time>
   <energy>
    <i name="e_fr_energy">   -194.69054432 </i>
    <i name="e_wo_entrp">   -194.69054432 </i>
    <i name="e_0_energy">   -194.69054432 </i>
   </energy>
  </scstep>
  <scstep>
   <time name="dav">  227.56  228.11</time>
   <time name="total">  227.92  228.50</time>
   <energy>
    <i name="alphaZ">    206.49012646 </i>
    <i name="ewald">  19424.41287578 </i>
    <i name="hartreedc"> -25485.54327184 </i>
    <i name="XCdc">   -429.53057568 </i>
    <i name="pawpsdc">   4194.74576594 </i>
    <i name="pawaedc">  -3428.72272613 </i>
    <i name="eentropy">     -0.00000000 </i>
    <i name="bandstr">  -1143.38555779 </i>
    <i name="atom">   6466.84281893 </i>
    <i name="e_fr_energy">   -194.69054433 </i>
    <i name="e_wo_entrp">   -194.69054433 </i>
    <i name="e_0_energy">   -194.69054433 </i>
   </energy>
  </scstep>
  <structure>
   <crystal>
    <varray name="basis" >
     <v>       9.84600000       0.00000000       0.00000000 </v>
     <v>       4.92300000       8.52144000       0.00000000 </v>
     <v>       0.00000000       0.00000000      20.00000000 </v>
    </varray>
    <i name="volume">   1678.04196480 </i>
    <varray name="rec_basis" >
     <v>       0.10156409      -0.05867553       0.00000000 </v>
     <v>       0.00000000       0.11735106       0.00000000 </v>
     <v>       0.00000000       0.00000000       0.05000000 </v>
    </varray>
   </crystal>
   <varray name="positions" >
    <v>       0.33330000       0.00051500       0.00044900 </v>
    <v>       0.66663300       0.00006700       0.00000000 </v>
    <v>       0.99996700       0.00006700       0.00000000 </v>
    <v>       0.33330000       0.33340000       0.00000000 </v>
    <v>       0.66663300       0.33340000       0.00000000 </v>
    <v>       0.99996700       0.33340000       0.00000000 </v>
    <v>       0.33330000       0.66673300       0.00000000 </v>
    <v>       0.66663300       0.66673300       0.00000000 </v>
    <v>       0.99996700       0.66673300       0.00000000 </v>
    <v>       0.11109200       0.11114900       0.91545900 </v>
    <v>       0.44442600       0.11114900       0.91545900 </v>
    <v>       0.77775900       0.11114900       0.91545900 </v>
    <v>       0.11109200       0.44448200       0.91545900 </v>
    <v>       0.44442600       0.44448200       0.91545900 </v>
    <v>       0.77775900       0.44448200       0.91545900 </v>
    <v>       0.11109200       0.77781500       0.91545900 </v>
    <v>       0.44442600       0.77781500       0.91545900 </v>
    <v>       0.77775900       0.77781500       0.91545900 </v>
    <v>       0.11109200       0.11114900       0.08454100 </v>
    <v>       0.44442600       0.11114900       0.08454100 </v>
    <v>       0.77775900       0.11114900       0.08454100 </v>
    <v>       0.11109200       0.44448200       0.08454100 </v>
    <v>       0.44442600       0.44448200       0.08454100 </v>
    <v>       0.77775900       0.44448200       0.08454100 </v>
    <v>       0.11109200       0.77781500       0.08454100 </v>
    <v>       0.44442600       0.77781500       0.08454100 </v>
    <v>       0.77775900       0.77781500       0.08454100 </v>
   </varray>
  </structure>
  <varray name="forces" >
   <v>      -0.04719531      -0.08150601      -0.23374092 </v>
   <v>      -0.00268486       0.00332637      -0.00388596 </v>
   <v>       0.00467969      -0.00112900      -0.00389854 </v>
   <v>       0.00494460      -0.00033281      -0.00381181 </v>
   <v>       0.00078817       0.00118860      -0.00029032 </v>
   <v>      -0.00342761       0.00377347      -0.00378250 </v>
   <v>      -0.00286563       0.00396011      -0.00383737 </v>
   <v>       0.00454179      -0.00077113      -0.00379528 </v>
   <v>       0.00059588       0.00120015      -0.00029028 </v>
   <v>       0.02920147      -0.01114261       0.03932809 </v>
   <v>      -0.01187104      -0.00398716       0.02540309 </v>
   <v>       0.00020933       0.00065724       0.00112691 </v>
   <v>      -0.00084305      -0.00004118       0.00162959 </v>
   <v>       0.00056211       0.00016107       0.00097036 </v>
   <v>      -0.00031795       0.00006569       0.00089663 </v>
   <v>       0.00235222       0.00034479       0.00277458 </v>
   <v>       0.00242221       0.04939543       0.05318959 </v>
   <v>      -0.00183556      -0.00096387       0.00225197 </v>
   <v>      -0.02503474       0.02010512       0.04012762 </v>
   <v>       0.04318177       0.02775512       0.05487058 </v>
   <v>       0.00022341      -0.00024708       0.00083840 </v>
   <v>      -0.00083501       0.00219028       0.00271760 </v>
   <v>      -0.00021503       0.00064196       0.00095913 </v>
   <v>       0.00047202       0.00053773       0.00100888 </v>
   <v>       0.00048612      -0.00072682       0.00156530 </v>
   <v>       0.00240174      -0.01241040       0.02558313 </v>
   <v>       0.00006326      -0.00204507       0.00209153 </v>
  </varray>
  <varray name="stress" >
   <v>       7.95027164       0.01496238       0.00099021 </v>
   <v>       0.01496238       8.23781460       0.00141924 </v>
   <v>       0.00099021       0.00141925      -0.00522777 </v>
  </varray>
  <energy>
   <i name="e_fr_energy">   -194.69054433 </i>
   <i name="e_wo_entrp">   -194.69054433 </i>
   <i name="e_0_energy">     -0.00000000 </i>
  </energy>
  <time name="totalsc">10434.9810461.08</time>
  <eigenvalues>
   <array>
    <dimension dim="1">band</dimension>
    <dimension dim="2">kpoint</dimension>
    <dimension dim="3">spin</dimension>
    <field>eigene</field>
    <field>occ</field>
    <set>
     <set comment="spin 1">
      <set comment="kpoint 1">
       <r>  -16.5476    1.0000 </r>
       <r>  -15.3662    1.0000 </r>
       <r>  -15.1783    1.0000 </r>
       <r>  -15.1763    1.0000 </r>
       <r>  -15.1763    1.0000 </r>
       <r>  -15.1755    1.0000 </r>
       <r>  -15.1750    1.0000 </r>
       <r>  -15.1731    1.0000 </r>
       <r>  -14.6278    1.0000 </r>
       <r>  -14.6257    1.0000 </r>
       <r>  -14.6257    1.0000 </r>
       <r>  -14.6250    1.0000 </r>
       <r>  -14.6240    1.0000 </r>
       <r>  -14.6223    1.0000 </r>
       <r>  -14.2406    1.0000 </r>
       <r>  -14.2396    1.0000 </r>
       <r>  -14.1211    1.0000 </r>
       <r>  -14.1189    1.0000 </r>
       <r>   -8.0046    1.0000 </r>
       <r>   -7.2256    1.0000 </r>
       <r>   -7.2243    1.0000 </r>
       <r>   -7.2242    1.0000 </r>
       <r>   -7.2235    1.0000 </r>
       <r>   -7.2234    1.0000 </r>
       <r>   -7.2216    1.0000 </r>
       <r>   -7.1664    1.0000 </r>
       <r>   -7.1651    1.0000 </r>
       <r>   -7.0471    1.0000 </r>
       <r>   -7.0471    1.0000 </r>
       <r>   -6.2067    1.0000 </r>
       <r>   -6.2054    1.0000 </r>
       <r>   -6.2051    1.0000 </r>
       <r>   -6.2043    1.0000 </r>
       <r>   -6.2036    1.0000 </r>
       <r>   -6.2020    1.0000 </r>
       <r>   -6.1639    1.0000 </r>
       <r>   -6.1632    1.0000 </r>
       <r>   -6.1592    1.0000 </r>
       <r>   -6.1572    1.0000 </r>
       <r>   -6.1571    1.0000 </r>
       <r>   -6.1566    1.0000 </r>
       <r>   -6.1547    1.0000 </r>
       <r>   -6.1545    1.0000 </r>
       <r>   -5.5019    1.0000 </r>
       <r>   -5.5011    1.0000 </r>
       <r>   -5.1230    1.0000 </r>
       <r>   -5.1229    1.0000 </r>
       <r>   -4.3759    1.0000 </r>
       <r>   -4.3728    1.0000 </r>
       <r>   -4.3675    1.0000 </r>
       <r>   -4.3671    1.0000 </r>
       <r>   -4.3666    1.0000 </r>
       <r>   -4.3637    1.0000 </r>
       <r>   -4.1783    1.0000 </r>
       <r>   -4.1754    1.0000 </r>
       <r>   -4.0501    1.0000 </r>
       <r>   -4.0458    1.0000 </r>
       <r>   -4.0394    1.0000 </r>
       <r>   -3.7930    1.0000 </r>
       <r>   -3.7914    1.0000 </r>
       <r>   -3.7907    1.0000 </r>
       <r>   -3.7905    1.0000 </r>
       <r>   -3.7892    1.0000 </r>
       <r>   -3.7877    1.0000 </r>
       <r>   -3.0448    1.0000 </r>
       <r>   -3.0427    1.0000 </r>
       <r>   -3.0425    1.0000 </r>
       <r>   -3.0423    1.0000 </r>
       <r>   -3.0404    1.0000 </r>
       <r>   -3.0385    1.0000 </r>
       <r>   -2.9193    1.0000 </r>
       <r>   -2.9120    1.0000 </r>
       <r>   -2.9053    1.0000 </r>
       <r>   -2.9045    1.0000 </r>
       <r>   -2.9003    1.0000 </r>
       <r>   -2.8992    1.0000 </r>
       <r>   -2.8970    1.0000 </r>
       <r>   -2.8955    1.0000 </r>
       <r>   -2.2359    1.0000 </r>
       <r>   -1.7755    1.0000 </r>
       <r>   -1.7739    1.0000 </r>
       <r>   -0.0866    0.0000 </r>
       <r>   -0.0865    0.0000 </r>
       <r>    0.3209    0.0000 </r>
       <r>    0.3241    0.0000 </r>
       <r>    0.3247    0.0000 </r>
       <r>    0.3249    0.0000 </r>
       <r>    0.3253    0.0000 </r>
       <r>    0.3285    0.0000 </r>
       <r>    0.5346    0.0000 </r>
       <r>    0.5380    0.0000 </r>
       <r>    0.5385    0.0000 </r>
       <r>    0.5392    0.0000 </r>
       <r>    0.5397    0.0000 </r>
       <r>    0.5422    0.0000 </r>
       <r>    0.9507    0.0000 </r>
       <r>    0.9509    0.0000 </r>
       <r>    1.2292    0.0000 </r>
       <r>    1.2317    0.0000 </r>
       <r>    1.3708    0.0000 </r>
       <r>    1.3898    0.0000 </r>
       <r>    1.4515    0.0000 </r>
      </set>
      <set comment="kpoint 2">
       <r>  -16.5438    1.0000 </r>
       <r>  -15.3641    1.0000 </r>
       <r>  -15.2755    1.0000 </r>
       <r>  -15.2239    1.0000 </r>
       <r>  -15.2218    1.0000 </r>
       <r>  -15.1258    1.0000 </r>
       <r>  -15.1237    1.0000 </r>
       <r>  -15.0794    1.0000 </r>
       <r>  -14.6772    1.0000 </r>
       <r>  -14.6504    1.0000 </r>
       <r>  -14.6480    1.0000 </r>
       <r>  -14.5999    1.0000 </r>
       <r>  -14.5972    1.0000 </r>
       <r>  -14.5759    1.0000 </r>
       <r>  -14.2439    1.0000 </r>
       <r>  -14.2429    1.0000 </r>
       <r>  -14.1230    1.0000 </r>
       <r>  -14.1208    1.0000 </r>
       <r>   -7.9996    1.0000 </r>
       <r>   -7.3575    1.0000 </r>
       <r>   -7.2881    1.0000 </r>
       <r>   -7.2864    1.0000 </r>
       <r>   -7.1630    1.0000 </r>
       <r>   -7.1618    1.0000 </r>
       <r>   -7.1576    1.0000 </r>
       <r>   -7.1559    1.0000 </r>
       <r>   -7.1006    1.0000 </r>
       <r>   -7.0652    1.0000 </r>
       <r>   -7.0650    1.0000 </r>
       <r>   -6.2862    1.0000 </r>
       <r>   -6.2457    1.0000 </r>
       <r>   -6.2264    1.0000 </r>
       <r>   -6.2244    1.0000 </r>
       <r>   -6.2221    1.0000 </r>
       <r>   -6.2211    1.0000 </r>
       <r>   -6.1804    1.0000 </r>
       <r>   -6.1786    1.0000 </r>
       <r>   -6.1577    1.0000 </r>
       <r>   -6.1382    1.0000 </r>
       <r>   -6.1377    1.0000 </r>
       <r>   -6.0902    1.0000 </r>
       <r>   -6.0888    1.0000 </r>
       <r>   -6.0226    1.0000 </r>
       <r>   -5.4994    1.0000 </r>
       <r>   -5.4986    1.0000 </r>
       <r>   -5.1251    1.0000 </r>
       <r>   -5.1247    1.0000 </r>
       <r>   -4.4271    1.0000 </r>
       <r>   -4.4225    1.0000 </r>
       <r>   -4.4146    1.0000 </r>
       <r>   -4.3624    1.0000 </r>
       <r>   -4.3545    1.0000 </r>
       <r>   -4.3015    1.0000 </r>
       <r>   -4.1727    1.0000 </r>
       <r>   -4.1698    1.0000 </r>
       <r>   -4.0587    1.0000 </r>
       <r>   -4.0568    1.0000 </r>
       <r>   -4.0366    1.0000 </r>
       <r>   -3.8314    1.0000 </r>
       <r>   -3.7991    1.0000 </r>
       <r>   -3.7965    1.0000 </r>
       <r>   -3.7535    1.0000 </r>
       <r>   -3.7513    1.0000 </r>
       <r>   -3.7449    1.0000 </r>
       <r>   -3.0942    1.0000 </r>
       <r>   -3.0910    1.0000 </r>
       <r>   -3.0858    1.0000 </r>
       <r>   -3.0848    1.0000 </r>
       <r>   -3.0528    1.0000 </r>
       <r>   -3.0165    1.0000 </r>
       <r>   -2.9608    1.0000 </r>
       <r>   -2.9207    1.0000 </r>
       <r>   -2.9112    1.0000 </r>
       <r>   -2.8865    1.0000 </r>
       <r>   -2.8826    1.0000 </r>
       <r>   -2.8440    1.0000 </r>
       <r>   -2.8406    1.0000 </r>
       <r>   -2.8356    1.0000 </r>
       <r>   -2.2364    1.0000 </r>
       <r>   -1.7856    1.0000 </r>
       <r>   -1.7841    1.0000 </r>
       <r>   -0.0741    0.0000 </r>
       <r>   -0.0734    0.0000 </r>
       <r>    0.2617    0.0000 </r>
       <r>    0.2771    0.0000 </r>
       <r>    0.2793    0.0000 </r>
       <r>    0.3387    0.0000 </r>
       <r>    0.3429    0.0000 </r>
       <r>    0.3935    0.0000 </r>
       <r>    0.5425    0.0000 </r>
       <r>    0.5434    0.0000 </r>
       <r>    0.5486    0.0000 </r>
       <r>    0.5528    0.0000 </r>
       <r>    0.5549    0.0000 </r>
       <r>    0.5563    0.0000 </r>
       <r>    0.9558    0.0000 </r>
       <r>    0.9559    0.0000 </r>
       <r>    1.2176    0.0000 </r>
       <r>    1.2383    0.0000 </r>
       <r>    1.3464    0.0000 </r>
       <r>    1.3708    0.0000 </r>
       <r>    1.3923    0.0000 </r>
      </set>
      <set comment="kpoint 3">
       <r>  -16.5325    1.0000 </r>
       <r>  -15.3760    1.0000 </r>
       <r>  -15.3578    1.0000 </r>
       <r>  -15.2675    1.0000 </r>
       <r>  -15.2655    1.0000 </r>
       <r>  -15.0722    1.0000 </r>
       <r>  -15.0700    1.0000 </r>
       <r>  -14.9862    1.0000 </r>
       <r>  -14.7297    1.0000 </r>
       <r>  -14.6728    1.0000 </r>
       <r>  -14.6706    1.0000 </r>
       <r>  -14.5721    1.0000 </r>
       <r>  -14.5693    1.0000 </r>
       <r>  -14.5285    1.0000 </r>
       <r>  -14.2540    1.0000 </r>
       <r>  -14.2529    1.0000 </r>
       <r>  -14.1288    1.0000 </r>
       <r>  -14.1266    1.0000 </r>
       <r>   -7.9847    1.0000 </r>
       <r>   -7.4914    1.0000 </r>
       <r>   -7.3479    1.0000 </r>
       <r>   -7.3463    1.0000 </r>
       <r>   -7.1502    1.0000 </r>
       <r>   -7.1486    1.0000 </r>
       <r>   -7.1132    1.0000 </r>
       <r>   -7.1129    1.0000 </r>
       <r>   -7.0915    1.0000 </r>
       <r>   -7.0896    1.0000 </r>
       <r>   -7.0026    1.0000 </r>
       <r>   -6.4073    1.0000 </r>
       <r>   -6.2848    1.0000 </r>
       <r>   -6.2839    1.0000 </r>
       <r>   -6.2636    1.0000 </r>
       <r>   -6.2436    1.0000 </r>
       <r>   -6.2414    1.0000 </r>
       <r>   -6.1527    1.0000 </r>
       <r>   -6.1509    1.0000 </r>
       <r>   -6.1119    1.0000 </r>
       <r>   -6.0732    1.0000 </r>
       <r>   -6.0726    1.0000 </r>
       <r>   -6.0203    1.0000 </r>
       <r>   -6.0187    1.0000 </r>
       <r>   -5.8837    1.0000 </r>
       <r>   -5.4904    1.0000 </r>
       <r>   -5.4895    1.0000 </r>
       <r>   -5.1308    1.0000 </r>
       <r>   -5.1299    1.0000 </r>
       <r>   -4.4968    1.0000 </r>
       <r>   -4.4894    1.0000 </r>
       <r>   -4.4813    1.0000 </r>
       <r>   -4.3876    1.0000 </r>
       <r>   -4.3804    1.0000 </r>
       <r>   -4.2316    1.0000 </r>
       <r>   -4.1564    1.0000 </r>
       <r>   -4.1534    1.0000 </r>
       <r>   -4.0928    1.0000 </r>
       <r>   -4.0832    1.0000 </r>
       <r>   -4.0254    1.0000 </r>
       <r>   -3.8664    1.0000 </r>
       <r>   -3.7870    1.0000 </r>
       <r>   -3.7847    1.0000 </r>
       <r>   -3.6933    1.0000 </r>
       <r>   -3.6856    1.0000 </r>
       <r>   -3.6840    1.0000 </r>
       <r>   -3.1812    1.0000 </r>
       <r>   -3.1791    1.0000 </r>
       <r>   -3.1776    1.0000 </r>
       <r>   -3.1761    1.0000 </r>
       <r>   -3.0475    1.0000 </r>
       <r>   -3.0266    1.0000 </r>
       <r>   -2.9751    1.0000 </r>
       <r>   -2.9397    1.0000 </r>
       <r>   -2.9086    1.0000 </r>
       <r>   -2.8316    1.0000 </r>
       <r>   -2.8287    1.0000 </r>
       <r>   -2.7933    1.0000 </r>
       <r>   -2.7579    1.0000 </r>
       <r>   -2.7534    1.0000 </r>
       <r>   -2.2380    1.0000 </r>
       <r>   -1.8148    1.0000 </r>
       <r>   -1.8132    1.0000 </r>
       <r>   -0.0377    0.0000 </r>
       <r>   -0.0365    0.0000 </r>
       <r>    0.2065    0.0000 </r>
       <r>    0.2157    0.0000 </r>
       <r>    0.2173    0.0000 </r>
       <r>    0.3265    0.0000 </r>
       <r>    0.3314    0.0000 </r>
       <r>    0.4672    0.0000 </r>
       <r>    0.5537    0.0000 </r>
       <r>    0.5541    0.0000 </r>
       <r>    0.5735    0.0000 </r>
       <r>    0.5787    0.0000 </r>
       <r>    0.6008    0.0000 </r>
       <r>    0.6017    0.0000 </r>
       <r>    0.9708    0.0000 </r>
       <r>    0.9709    0.0000 </r>
       <r>    1.1836    0.0000 </r>
       <r>    1.2607    0.0000 </r>
       <r>    1.2833    0.0000 </r>
       <r>    1.2884    0.0000 </r>
       <r>    1.3419    0.0000 </r>
      </set>
      <set comment="kpoint 4">
       <r>  -16.5136    1.0000 </r>
       <r>  -15.4763    1.0000 </r>
       <r>  -15.3474    1.0000 </r>
       <r>  -15.3071    1.0000 </r>
       <r>  -15.3051    1.0000 </r>
       <r>  -15.0161    1.0000 </r>
       <r>  -15.0138    1.0000 </r>
       <r>  -14.8980    1.0000 </r>
       <r>  -14.7827    1.0000 </r>
       <r>  -14.6931    1.0000 </r>
       <r>  -14.6910    1.0000 </r>
       <r>  -14.5429    1.0000 </r>
       <r>  -14.5400    1.0000 </r>
       <r>  -14.4841    1.0000 </r>
       <r>  -14.2707    1.0000 </r>
       <r>  -14.2695    1.0000 </r>
       <r>  -14.1384    1.0000 </r>
       <r>  -14.1360    1.0000 </r>
       <r>   -7.9599    1.0000 </r>
       <r>   -7.6202    1.0000 </r>
       <r>   -7.4027    1.0000 </r>
       <r>   -7.4013    1.0000 </r>
       <r>   -7.1784    1.0000 </r>
       <r>   -7.1781    1.0000 </r>
       <r>   -7.1299    1.0000 </r>
       <r>   -7.1281    1.0000 </r>
       <r>   -7.0258    1.0000 </r>
       <r>   -7.0238    1.0000 </r>
       <r>   -6.9508    1.0000 </r>
       <r>   -6.5194    1.0000 </r>
       <r>   -6.3458    1.0000 </r>
       <r>   -6.3448    1.0000 </r>
       <r>   -6.2569    1.0000 </r>
       <r>   -6.2547    1.0000 </r>
       <r>   -6.2378    1.0000 </r>
       <r>   -6.1221    1.0000 </r>
       <r>   -6.1204    1.0000 </r>
       <r>   -6.0717    1.0000 </r>
       <r>   -5.9862    1.0000 </r>
       <r>   -5.9854    1.0000 </r>
       <r>   -5.9477    1.0000 </r>
       <r>   -5.9458    1.0000 </r>
       <r>   -5.7423    1.0000 </r>
       <r>   -5.4693    1.0000 </r>
       <r>   -5.4683    1.0000 </r>
       <r>   -5.1389    1.0000 </r>
       <r>   -5.1376    1.0000 </r>
       <r>   -4.5836    1.0000 </r>
       <r>   -4.5768    1.0000 </r>
       <r>   -4.5306    1.0000 </r>
       <r>   -4.4405    1.0000 </r>
       <r>   -4.4340    1.0000 </r>
       <r>   -4.1573    1.0000 </r>
       <r>   -4.1521    1.0000 </r>
       <r>   -4.1304    1.0000 </r>
       <r>   -4.1275    1.0000 </r>
       <r>   -4.1229    1.0000 </r>
       <r>   -4.0066    1.0000 </r>
       <r>   -3.8964    1.0000 </r>
       <r>   -3.7675    1.0000 </r>
       <r>   -3.7654    1.0000 </r>
       <r>   -3.6356    1.0000 </r>
       <r>   -3.5984    1.0000 </r>
       <r>   -3.5972    1.0000 </r>
       <r>   -3.2843    1.0000 </r>
       <r>   -3.2823    1.0000 </r>
       <r>   -3.2778    1.0000 </r>
       <r>   -3.2754    1.0000 </r>
       <r>   -3.0968    1.0000 </r>
       <r>   -3.0277    1.0000 </r>
       <r>   -2.9732    1.0000 </r>
       <r>   -2.9211    1.0000 </r>
       <r>   -2.9046    1.0000 </r>
       <r>   -2.7768    1.0000 </r>
       <r>   -2.7739    1.0000 </r>
       <r>   -2.7492    1.0000 </r>
       <r>   -2.6780    1.0000 </r>
       <r>   -2.6742    1.0000 </r>
       <r>   -2.2410    1.0000 </r>
       <r>   -1.8590    1.0000 </r>
       <r>   -1.8574    1.0000 </r>
       <r>    0.0178    0.0000 </r>
       <r>    0.0195    0.0000 </r>
       <r>    0.1498    0.0000 </r>
       <r>    0.1510    0.0000 </r>
       <r>    0.1606    0.0000 </r>
       <r>    0.3057    0.0000 </r>
       <r>    0.3107    0.0000 </r>
       <r>    0.5442    0.0000 </r>
       <r>    0.5693    0.0000 </r>
       <r>    0.5733    0.0000 </r>
       <r>    0.6001    0.0000 </r>
       <r>    0.6054    0.0000 </r>
       <r>    0.6590    0.0000 </r>
       <r>    0.6612    0.0000 </r>
       <r>    0.9954    0.0000 </r>
       <r>    0.9956    0.0000 </r>
       <r>    1.1315    0.0000 </r>
       <r>    1.1830    0.0000 </r>
       <r>    1.2040    0.0000 </r>
       <r>    1.2691    0.0000 </r>
       <r>    1.2839    0.0000 </r>
      </set>
      <set comment="kpoint 5">
       <r>  -16.4874    1.0000 </r>
       <r>  -15.5758    1.0000 </r>
       <r>  -15.3426    1.0000 </r>
       <r>  -15.3407    1.0000 </r>
       <r>  -15.3324    1.0000 </r>
       <r>  -14.9580    1.0000 </r>
       <r>  -14.9557    1.0000 </r>
       <r>  -14.8356    1.0000 </r>
       <r>  -14.8161    1.0000 </r>
       <r>  -14.7110    1.0000 </r>
       <r>  -14.7092    1.0000 </r>
       <r>  -14.5126    1.0000 </r>
       <r>  -14.5095    1.0000 </r>
       <r>  -14.4433    1.0000 </r>
       <r>  -14.2938    1.0000 </r>
       <r>  -14.2924    1.0000 </r>
       <r>  -14.1516    1.0000 </r>
       <r>  -14.1491    1.0000 </r>
       <r>   -7.9254    1.0000 </r>
       <r>   -7.7401    1.0000 </r>
       <r>   -7.4514    1.0000 </r>
       <r>   -7.4501    1.0000 </r>
       <r>   -7.2498    1.0000 </r>
       <r>   -7.2495    1.0000 </r>
       <r>   -7.1021    1.0000 </r>
       <r>   -7.1000    1.0000 </r>
       <r>   -6.9632    1.0000 </r>
       <r>   -6.9612    1.0000 </r>
       <r>   -6.9549    1.0000 </r>
       <r>   -6.6209    1.0000 </r>
       <r>   -6.4055    1.0000 </r>
       <r>   -6.4043    1.0000 </r>
       <r>   -6.2660    1.0000 </r>
       <r>   -6.2637    1.0000 </r>
       <r>   -6.1578    1.0000 </r>
       <r>   -6.0893    1.0000 </r>
       <r>   -6.0877    1.0000 </r>
       <r>   -6.0388    1.0000 </r>
       <r>   -5.8997    1.0000 </r>
       <r>   -5.8987    1.0000 </r>
       <r>   -5.8727    1.0000 </r>
       <r>   -5.8705    1.0000 </r>
       <r>   -5.6001    1.0000 </r>
       <r>   -5.4250    1.0000 </r>
       <r>   -5.4238    1.0000 </r>
       <r>   -5.1477    1.0000 </r>
       <r>   -5.1461    1.0000 </r>
       <r>   -4.6741    1.0000 </r>
       <r>   -4.6678    1.0000 </r>
       <r>   -4.5741    1.0000 </r>
       <r>   -4.5109    1.0000 </r>
       <r>   -4.5050    1.0000 </r>
       <r>   -4.2324    1.0000 </r>
       <r>   -4.1765    1.0000 </r>
       <r>   -4.0965    1.0000 </r>
       <r>   -4.0935    1.0000 </r>
       <r>   -4.0788    1.0000 </r>
       <r>   -3.9804    1.0000 </r>
       <r>   -3.9218    1.0000 </r>
       <r>   -3.7489    1.0000 </r>
       <r>   -3.7469    1.0000 </r>
       <r>   -3.5724    1.0000 </r>
       <r>   -3.5029    1.0000 </r>
       <r>   -3.5019    1.0000 </r>
       <r>   -3.4012    1.0000 </r>
       <r>   -3.3994    1.0000 </r>
       <r>   -3.3763    1.0000 </r>
       <r>   -3.3736    1.0000 </r>
       <r>   -3.1699    1.0000 </r>
       <r>   -3.0188    1.0000 </r>
       <r>   -2.9966    1.0000 </r>
       <r>   -2.9033    1.0000 </r>
       <r>   -2.8560    1.0000 </r>
       <r>   -2.7273    1.0000 </r>
       <r>   -2.7244    1.0000 </r>
       <r>   -2.7113    1.0000 </r>
       <r>   -2.6057    1.0000 </r>
       <r>   -2.6024    1.0000 </r>
       <r>   -2.2462    1.0000 </r>
       <r>   -1.9137    1.0000 </r>
       <r>   -1.9121    1.0000 </r>
       <r>    0.0846    0.0000 </r>
       <r>    0.0854    0.0000 </r>
       <r>    0.0868    0.0000 </r>
       <r>    0.0884    0.0000 </r>
       <r>    0.1257    0.0000 </r>
       <r>    0.2890    0.0000 </r>
       <r>    0.2939    0.0000 </r>
       <r>    0.5879    0.0000 </r>
       <r>    0.6003    0.0000 </r>
       <r>    0.6235    0.0000 </r>
       <r>    0.6248    0.0000 </r>
       <r>    0.6293    0.0000 </r>
       <r>    0.7201    0.0000 </r>
       <r>    0.7233    0.0000 </r>
       <r>    1.0291    0.0000 </r>
       <r>    1.0293    0.0000 </r>
       <r>    1.0626    0.0000 </r>
       <r>    1.0693    0.0000 </r>
       <r>    1.1045    0.0000 </r>
       <r>    1.1811    0.0000 </r>
       <r>    1.1840    0.0000 </r>
      </set>
      <set comment="kpoint 6">
       <r>  -16.4538    1.0000 </r>
       <r>  -15.6735    1.0000 </r>
       <r>  -15.3731    1.0000 </r>
       <r>  -15.3712    1.0000 </r>
       <r>  -15.3142    1.0000 </r>
       <r>  -14.8984    1.0000 </r>
       <r>  -14.8961    1.0000 </r>
       <r>  -14.8878    1.0000 </r>
       <r>  -14.7424    1.0000 </r>
       <r>  -14.7267    1.0000 </r>
       <r>  -14.7250    1.0000 </r>
       <r>  -14.4813    1.0000 </r>
       <r>  -14.4781    1.0000 </r>
       <r>  -14.4070    1.0000 </r>
       <r>  -14.3229    1.0000 </r>
       <r>  -14.3214    1.0000 </r>
       <r>  -14.1681    1.0000 </r>
       <r>  -14.1655    1.0000 </r>
       <r>   -7.8815    1.0000 </r>
       <r>   -7.8482    1.0000 </r>
       <r>   -7.4929    1.0000 </r>
       <r>   -7.4918    1.0000 </r>
       <r>   -7.3201    1.0000 </r>
       <r>   -7.3198    1.0000 </r>
       <r>   -7.0673    1.0000 </r>
       <r>   -7.0649    1.0000 </r>
       <r>   -7.0035    1.0000 </r>
       <r>   -6.9056    1.0000 </r>
       <r>   -6.9035    1.0000 </r>
       <r>   -6.7105    1.0000 </r>
       <r>   -6.4646    1.0000 </r>
       <r>   -6.4630    1.0000 </r>
       <r>   -6.2709    1.0000 </r>
       <r>   -6.2687    1.0000 </r>
       <r>   -6.0547    1.0000 </r>
       <r>   -6.0531    1.0000 </r>
       <r>   -6.0344    1.0000 </r>
       <r>   -6.0134    1.0000 </r>
       <r>   -5.8354    1.0000 </r>
       <r>   -5.8342    1.0000 </r>
       <r>   -5.7957    1.0000 </r>
       <r>   -5.7933    1.0000 </r>
       <r>   -5.4588    1.0000 </r>
       <r>   -5.3440    1.0000 </r>
       <r>   -5.3427    1.0000 </r>
       <r>   -5.1555    1.0000 </r>
       <r>   -5.1535    1.0000 </r>
       <r>   -4.7625    1.0000 </r>
       <r>   -4.7567    1.0000 </r>
       <r>   -4.6116    1.0000 </r>
       <r>   -4.5915    1.0000 </r>
       <r>   -4.5861    1.0000 </r>
       <r>   -4.3323    1.0000 </r>
       <r>   -4.2415    1.0000 </r>
       <r>   -4.0566    1.0000 </r>
       <r>   -4.0536    1.0000 </r>
       <r>   -3.9969    1.0000 </r>
       <r>   -3.9469    1.0000 </r>
       <r>   -3.9428    1.0000 </r>
       <r>   -3.7360    1.0000 </r>
       <r>   -3.7340    1.0000 </r>
       <r>   -3.5316    1.0000 </r>
       <r>   -3.5299    1.0000 </r>
       <r>   -3.5042    1.0000 </r>
       <r>   -3.4691    1.0000 </r>
       <r>   -3.4664    1.0000 </r>
       <r>   -3.4073    1.0000 </r>
       <r>   -3.4063    1.0000 </r>
       <r>   -3.2451    1.0000 </r>
       <r>   -3.0752    1.0000 </r>
       <r>   -2.9576    1.0000 </r>
       <r>   -2.9067    1.0000 </r>
       <r>   -2.7840    1.0000 </r>
       <r>   -2.6842    1.0000 </r>
       <r>   -2.6813    1.0000 </r>
       <r>   -2.6793    1.0000 </r>
       <r>   -2.5420    1.0000 </r>
       <r>   -2.5391    1.0000 </r>
       <r>   -2.2543    1.0000 </r>
       <r>   -1.9741    1.0000 </r>
       <r>   -1.9725    1.0000 </r>
       <r>    0.0245    0.0000 </r>
       <r>    0.0254    0.0000 </r>
       <r>    0.1036    0.0000 </r>
       <r>    0.1598    0.0000 </r>
       <r>    0.1621    0.0000 </r>
       <r>    0.2824    0.0000 </r>
       <r>    0.2870    0.0000 </r>
       <r>    0.6089    0.0000 </r>
       <r>    0.6348    0.0000 </r>
       <r>    0.6436    0.0000 </r>
       <r>    0.6486    0.0000 </r>
       <r>    0.7046    0.0000 </r>
       <r>    0.7793    0.0000 </r>
       <r>    0.7833    0.0000 </r>
       <r>    0.9356    0.0000 </r>
       <r>    0.9980    0.0000 </r>
       <r>    1.0242    0.0000 </r>
       <r>    1.0713    0.0000 </r>
       <r>    1.0715    0.0000 </r>
       <r>    1.0946    0.0000 </r>
       <r>    1.0977    0.0000 </r>
      </set>
      <set comment="kpoint 7">
       <r>  -16.4131    1.0000 </r>
       <r>  -15.7686    1.0000 </r>
       <r>  -15.3990    1.0000 </r>
       <r>  -15.3971    1.0000 </r>
       <r>  -15.2917    1.0000 </r>
       <r>  -14.9390    1.0000 </r>
       <r>  -14.8379    1.0000 </r>
       <r>  -14.8357    1.0000 </r>
       <r>  -14.7398    1.0000 </r>
       <r>  -14.7383    1.0000 </r>
[...]
       <r>   -5.8626    1.0000 </r>
       <r>   -5.8611    1.0000 </r>
       <r>   -5.5873    1.0000 </r>
       <r>   -5.3562    1.0000 </r>
       <r>   -5.1318    1.0000 </r>
       <r>   -5.1309    1.0000 </r>
       <r>   -5.1264    1.0000 </r>
       <r>   -5.1254    1.0000 </r>
       <r>   -5.0664    1.0000 </r>
       <r>   -5.0647    1.0000 </r>
       <r>   -5.0272    1.0000 </r>
       <r>   -4.8497    1.0000 </r>
       <r>   -4.7529    1.0000 </r>
       <r>   -4.7497    1.0000 </r>
       <r>   -4.7205    1.0000 </r>
       <r>   -4.5087    1.0000 </r>
       <r>   -4.5080    1.0000 </r>
       <r>   -4.3601    1.0000 </r>
       <r>   -4.3594    1.0000 </r>
       <r>   -3.9879    1.0000 </r>
       <r>   -3.8563    1.0000 </r>
       <r>   -3.8549    1.0000 </r>
       <r>   -3.8336    1.0000 </r>
       <r>   -3.7718    1.0000 </r>
       <r>   -3.7707    1.0000 </r>
       <r>   -3.6716    1.0000 </r>
       <r>   -3.6586    1.0000 </r>
       <r>   -3.6559    1.0000 </r>
       <r>   -3.5407    1.0000 </r>
       <r>   -3.5375    1.0000 </r>
       <r>   -3.1535    1.0000 </r>
       <r>   -3.0836    1.0000 </r>
       <r>   -3.0827    1.0000 </r>
       <r>   -3.0648    1.0000 </r>
       <r>   -2.8473    1.0000 </r>
       <r>   -2.5827    1.0000 </r>
       <r>   -2.5705    1.0000 </r>
       <r>   -2.5499    1.0000 </r>
       <r>   -2.4048    1.0000 </r>
       <r>   -2.4042    1.0000 </r>
       <r>   -2.3024    1.0000 </r>
       <r>   -2.3022    1.0000 </r>
       <r>   -2.2662    1.0000 </r>
       <r>   -2.2657    1.0000 </r>
       <r>   -0.1548    0.0000 </r>
       <r>   -0.1276    0.0000 </r>
       <r>    0.2865    0.0000 </r>
       <r>    0.2890    0.0000 </r>
       <r>    0.3422    0.0000 </r>
       <r>    0.3437    0.0000 </r>
       <r>    0.4278    0.0000 </r>
       <r>    0.4295    0.0000 </r>
       <r>    0.6591    0.0000 </r>
       <r>    0.6845    0.0000 </r>
       <r>    0.7154    0.0000 </r>
       <r>    0.7658    0.0000 </r>
       <r>    0.7689    0.0000 </r>
       <r>    0.7707    0.0000 </r>
       <r>    0.8488    0.0000 </r>
       <r>    0.9150    0.0000 </r>
       <r>    0.9175    0.0000 </r>
       <r>    1.0073    0.0000 </r>
       <r>    1.0406    0.0000 </r>
       <r>    1.0451    0.0000 </r>
       <r>    1.0798    0.0000 </r>
      </set>
     </set>
    </set>
   </array>
  </eigenvalues>
  <separator name="orbital magnetization" >
   <v name="MAGDIPOLOUT">      0.00000000      0.00000000      0.00000000</v>
  </separator>
  <dos>
   <i name="efermi">     -1.72383435 </i>
   <total>
    <array>
     <dimension dim="1">gridpoints</dimension>
     <dimension dim="2">spin</dimension>
     <field>energy</field>
     <field>total</field>
     <field>integrated</field>
     <set>
      <set comment="spin 1">
       <r>   -17.4475     0.0000     0.0000 </r>
       <r>   -17.3815     0.0000     0.0000 </r>
       <r>   -17.3155     0.0000     0.0000 </r>
       <r>   -17.2496     0.0000     0.0000 </r>
       <r>   -17.1836     0.0000     0.0000 </r>
       <r>   -17.1176     0.0000     0.0000 </r>
       <r>   -17.0516     0.0000     0.0000 </r>
       <r>   -16.9856     0.0000     0.0000 </r>
       <r>   -16.9196     0.0000     0.0000 </r>
       <r>   -16.8536     0.0000     0.0000 </r>
       <r>   -16.7876     0.0000     0.0000 </r>
       <r>   -16.7216     0.0000     0.0000 </r>
       <r>   -16.6556     0.0000     0.0000 </r>
       <r>   -16.5896     0.0000     0.0000 </r>
       <r>   -16.5236     1.5818     0.1044 </r>
       <r>   -16.4576     4.3666     0.3926 </r>
       <r>   -16.3916     4.5870     0.6956 </r>
       <r>   -16.3256     4.1991     0.9731 </r>
       <r>   -16.2596     4.9151     1.2974 </r>
       <r>   -16.1936     4.7255     1.6095 </r>
       <r>   -16.1276     4.7407     1.9230 </r>
       <r>   -16.0616     4.9074     2.2473 </r>
       <r>   -15.9956     4.6436     2.5539 </r>
       <r>   -15.9296     5.2585     2.9010 </r>
       <r>   -15.8636     4.4856     3.1975 </r>
       <r>   -15.7976     4.8023     3.5146 </r>
       <r>   -15.7316     5.3161     3.8666 </r>
       <r>   -15.6656     5.9413     4.2587 </r>
       <r>   -15.5996     5.8056     4.6421 </r>
       <r>   -15.5336     4.9305     4.9677 </r>
       <r>   -15.4676     5.6875     5.3431 </r>
       <r>   -15.4016     6.5741     5.7769 </r>
       <r>   -15.3356     9.8599     6.4281 </r>
       <r>   -15.2697    13.7258     7.3351 </r>
       <r>   -15.2037    15.0499     8.3292 </r>
       <r>   -15.1377    15.8364     9.3745 </r>
       <r>   -15.0717    16.2094    10.4444 </r>
       <r>   -15.0057    15.7461    11.4840 </r>
       <r>   -14.9397    17.5017    12.6392 </r>
       <r>   -14.8737    18.7937    13.8800 </r>
       <r>   -14.8077    20.3052    15.2218 </r>
       <r>   -14.7417    21.1951    16.6208 </r>
       <r>   -14.6757    22.2773    18.0932 </r>
       <r>   -14.6097    26.7054    19.8565 </r>
       <r>   -14.5437    32.2192    21.9849 </r>
       <r>   -14.4777    38.3742    24.5191 </r>
       <r>   -14.4117    31.2308    26.5836 </r>
       <r>   -14.3457    36.9636    29.0245 </r>
       <r>   -14.2797    47.2715    32.1463 </r>
       <r>   -14.2137    31.0570    34.1990 </r>
       <r>   -14.1477    19.8706    35.5131 </r>
       <r>   -14.0817     7.3486    36.0000 </r>
       <r>   -14.0157     0.0000    36.0000 </r>
       <r>   -13.9497     0.0000    36.0000 </r>
       <r>   -13.8837     0.0000    36.0000 </r>
       <r>   -13.8177     0.0000    36.0000 </r>
       <r>   -13.7517     0.0000    36.0000 </r>
       <r>   -13.6857     0.0000    36.0000 </r>
       <r>   -13.6197     0.0000    36.0000 </r>
       <r>   -13.5537     0.0000    36.0000 </r>
       <r>   -13.4877     0.0000    36.0000 </r>
       <r>   -13.4217     0.0000    36.0000 </r>
       <r>   -13.3557     0.0000    36.0000 </r>
       <r>   -13.2898     0.0000    36.0000 </r>
       <r>   -13.2238     0.0000    36.0000 </r>
       <r>   -13.1578     0.0000    36.0000 </r>
       <r>   -13.0918     0.0000    36.0000 </r>
       <r>   -13.0258     0.0000    36.0000 </r>
       <r>   -12.9598     0.0000    36.0000 </r>
       <r>   -12.8938     0.0000    36.0000 </r>
       <r>   -12.8278     0.0000    36.0000 </r>
       <r>   -12.7618     0.0000    36.0000 </r>
       <r>   -12.6958     0.0000    36.0000 </r>
       <r>   -12.6298     0.0000    36.0000 </r>
       <r>   -12.5638     0.0000    36.0000 </r>
       <r>   -12.4978     0.0000    36.0000 </r>
       <r>   -12.4318     0.0000    36.0000 </r>
       <r>   -12.3658     0.0000    36.0000 </r>
       <r>   -12.2998     0.0000    36.0000 </r>
       <r>   -12.2338     0.0000    36.0000 </r>
       <r>   -12.1678     0.0000    36.0000 </r>
       <r>   -12.1018     0.0000    36.0000 </r>
       <r>   -12.0358     0.0000    36.0000 </r>
       <r>   -11.9698     0.0000    36.0000 </r>
       <r>   -11.9038     0.0000    36.0000 </r>
       <r>   -11.8378     0.0000    36.0000 </r>
       <r>   -11.7718     0.0000    36.0000 </r>
       <r>   -11.7058     0.0000    36.0000 </r>
       <r>   -11.6398     0.0000    36.0000 </r>
       <r>   -11.5738     0.0000    36.0000 </r>
       <r>   -11.5078     0.0000    36.0000 </r>
       <r>   -11.4418     0.0000    36.0000 </r>
       <r>   -11.3758     0.0000    36.0000 </r>
       <r>   -11.3099     0.0000    36.0000 </r>
       <r>   -11.2439     0.0000    36.0000 </r>
       <r>   -11.1779     0.0000    36.0000 </r>
       <r>   -11.1119     0.0000    36.0000 </r>
       <r>   -11.0459     0.0000    36.0000 </r>
       <r>   -10.9799     0.0000    36.0000 </r>
       <r>   -10.9139     0.0000    36.0000 </r>
       <r>   -10.8479     0.0000    36.0000 </r>
       <r>   -10.7819     0.0000    36.0000 </r>
       <r>   -10.7159     0.0000    36.0000 </r>
       <r>   -10.6499     0.0000    36.0000 </r>
       <r>   -10.5839     0.0000    36.0000 </r>
       <r>   -10.5179     0.0000    36.0000 </r>
       <r>   -10.4519     0.0000    36.0000 </r>
       <r>   -10.3859     0.0000    36.0000 </r>
       <r>   -10.3199     0.0000    36.0000 </r>
       <r>   -10.2539     0.0000    36.0000 </r>
       <r>   -10.1879     0.0000    36.0000 </r>
       <r>   -10.1219     0.0000    36.0000 </r>
       <r>   -10.0559     0.0000    36.0000 </r>
       <r>    -9.9899     0.0000    36.0000 </r>
       <r>    -9.9239     0.0000    36.0000 </r>
       <r>    -9.8579     0.0000    36.0000 </r>
       <r>    -9.7919     0.0000    36.0000 </r>
       <r>    -9.7259     0.0000    36.0000 </r>
       <r>    -9.6599     0.0000    36.0000 </r>
       <r>    -9.5939     0.0000    36.0000 </r>
       <r>    -9.5279     0.0000    36.0000 </r>
       <r>    -9.4619     0.0000    36.0000 </r>
       <r>    -9.3959     0.0000    36.0000 </r>
       <r>    -9.3300     0.0000    36.0000 </r>
       <r>    -9.2640     0.0000    36.0000 </r>
       <r>    -9.1980     0.0000    36.0000 </r>
       <r>    -9.1320     0.0000    36.0000 </r>
       <r>    -9.0660     0.0000    36.0000 </r>
       <r>    -9.0000     0.0000    36.0000 </r>
       <r>    -8.9340     0.0000    36.0000 </r>
       <r>    -8.8680     0.0000    36.0000 </r>
       <r>    -8.8020     0.0000    36.0000 </r>
       <r>    -8.7360     0.0000    36.0000 </r>
       <r>    -8.6700     0.0000    36.0000 </r>
       <r>    -8.6040     0.0000    36.0000 </r>
       <r>    -8.5380     0.0000    36.0000 </r>
       <r>    -8.4720     0.0000    36.0000 </r>
       <r>    -8.4060     0.0000    36.0000 </r>
       <r>    -8.3400     0.0000    36.0000 </r>
       <r>    -8.2740     0.0000    36.0000 </r>
       <r>    -8.2080     0.0000    36.0000 </r>
       <r>    -8.1420     0.3763    36.0248 </r>
       <r>    -8.0760     6.5890    36.4597 </r>
       <r>    -8.0100     7.7684    36.9724 </r>
       <r>    -7.9440    10.5229    37.6669 </r>
       <r>    -7.8780    10.9236    38.3886 </r>
       <r>    -7.8120    11.2416    39.1323 </r>
       <r>    -7.7460    10.3925    39.8190 </r>
       <r>    -7.6800    12.6806    40.6561 </r>
       <r>    -7.6140    12.8296    41.5039 </r>
       <r>    -7.5480    13.6739    42.4071 </r>
       <r>    -7.4820    12.6585    43.2440 </r>
       <r>    -7.4160    12.8578    44.0929 </r>
       <r>    -7.3501    17.2950    45.2347 </r>
       <r>    -7.2841    22.0776    46.6926 </r>
       <r>    -7.2181    18.6540    47.9252 </r>
       <r>    -7.1521    15.9284    48.9780 </r>
       <r>    -7.0861    22.8628    50.4874 </r>
       <r>    -7.0201    25.8178    52.1932 </r>
       <r>    -6.9541    31.0542    54.2444 </r>
       <r>    -6.8881    39.4225    56.8488 </r>
       <r>    -6.8221    24.0673    58.4403 </r>
       <r>    -6.7561    19.5305    59.7305 </r>
       <r>    -6.6901    11.5781    60.4950 </r>
       <r>    -6.6241     8.9380    61.0852 </r>
       <r>    -6.5581     9.1792    61.6916 </r>
       <r>    -6.4921     5.8542    62.0792 </r>
       <r>    -6.4261     6.4916    62.5077 </r>
       <r>    -6.3601     6.5485    62.9399 </r>
       <r>    -6.2941     7.6046    63.4420 </r>
       <r>    -6.2281    31.3746    65.5126 </r>
       <r>    -6.1621    23.3618    67.0557 </r>
       <r>    -6.0961    23.4504    68.6044 </r>
       <r>    -6.0301    25.3820    70.2809 </r>
       <r>    -5.9641    39.3441    72.8786 </r>
       <r>    -5.8981    42.2787    75.6712 </r>
       <r>    -5.8321    37.0903    78.1207 </r>
       <r>    -5.7661    34.8790    80.4249 </r>
       <r>    -5.7001    10.1405    81.0954 </r>
       <r>    -5.6341     7.4156    81.5864 </r>
       <r>    -5.5681     6.1085    81.9903 </r>
       <r>    -5.5021     7.5697    82.4906 </r>
       <r>    -5.4361    12.9037    83.3430 </r>
       <r>    -5.3702    11.2499    84.0859 </r>
       <r>    -5.3042     9.1071    84.6881 </r>
       <r>    -5.2382    13.7838    85.5982 </r>
       <r>    -5.1722    32.2599    87.7284 </r>
       <r>    -5.1062    44.4620    90.6634 </r>
       <r>    -5.0402    28.3245    92.5344 </r>
       <r>    -4.9742    22.3418    94.0102 </r>
       <r>    -4.9082    24.0743    95.6012 </r>
       <r>    -4.8422    20.9774    96.9874 </r>
       <r>    -4.7762    20.3572    98.3324 </r>
       <r>    -4.7102    27.7672   100.1657 </r>
       <r>    -4.6442    23.4797   101.7165 </r>
       <r>    -4.5782    18.1222   102.9135 </r>
       <r>    -4.5122    18.8671   104.1590 </r>
       <r>    -4.4462    14.8753   105.1416 </r>
       <r>    -4.3802    11.9553   105.9316 </r>
       <r>    -4.3142    16.2559   107.0052 </r>
       <r>    -4.2482    13.0313   107.8659 </r>
       <r>    -4.1822    10.6658   108.5712 </r>
       <r>    -4.1162    22.4861   110.0565 </r>
       <r>    -4.0502    17.6222   111.2202 </r>
       <r>    -3.9842    30.0125   113.2018 </r>
       <r>    -3.9182    53.4741   116.7322 </r>
       <r>    -3.8522    33.2428   118.9295 </r>
       <r>    -3.7862    36.3539   121.3300 </r>
       <r>    -3.7202    28.5467   123.2150 </r>
       <r>    -3.6542    28.0693   125.0709 </r>
       <r>    -3.5882    32.3650   127.2099 </r>
       <r>    -3.5222    32.3306   129.3470 </r>
       <r>    -3.4562    27.8842   131.1879 </r>
       <r>    -3.3903    23.6889   132.7522 </r>
       <r>    -3.3243    21.9853   134.2051 </r>
       <r>    -3.2583    24.0299   135.7912 </r>
       <r>    -3.1923    16.5073   136.8830 </r>
       <r>    -3.1263    19.9027   138.1973 </r>
       <r>    -3.0603    21.3553   139.6070 </r>
       <r>    -2.9943    19.3526   140.8856 </r>
       <r>    -2.9283    19.3422   142.1624 </r>
       <r>    -2.8623    30.2683   144.1604 </r>
       <r>    -2.7963     8.9014   144.7492 </r>
       <r>    -2.7303    10.6618   145.4541 </r>
       <r>    -2.6643    15.4637   146.4758 </r>
       <r>    -2.5983    25.9822   148.1919 </r>
       <r>    -2.5323    34.5963   150.4764 </r>
       <r>    -2.4663    29.6531   152.4348 </r>
       <r>    -2.4003    28.0434   154.2861 </r>
       <r>    -2.3343    26.8939   156.0628 </r>
       <r>    -2.2683    24.8149   157.7019 </r>
       <r>    -2.2023    23.1569   159.2323 </r>
       <r>    -2.1363    11.3828   159.9841 </r>
       <r>    -2.0703     8.8205   160.5665 </r>
       <r>    -2.0043     6.7158   161.0108 </r>
       <r>    -1.9383     5.2876   161.3604 </r>
       <r>    -1.8723     4.3975   161.6508 </r>
       <r>    -1.8063     3.7212   161.8965 </r>
       <r>    -1.7403     1.5684   162.0000 </r>
       <r>    -1.6743     0.0000   162.0000 </r>
       <r>    -1.6083     0.0000   162.0000 </r>
       <r>    -1.5423     0.0000   162.0000 </r>
       <r>    -1.4763     0.0000   162.0000 </r>
       <r>    -1.4104     0.0000   162.0000 </r>
       <r>    -1.3444     0.0000   162.0000 </r>
       <r>    -1.2784     0.0000   162.0000 </r>
       <r>    -1.2124     0.0000   162.0000 </r>
       <r>    -1.1464     0.0000   162.0000 </r>
       <r>    -1.0804     0.0000   162.0000 </r>
       <r>    -1.0144     0.0000   162.0000 </r>
       <r>    -0.9484     0.0000   162.0000 </r>
       <r>    -0.8824     0.0000   162.0000 </r>
       <r>    -0.8164     0.0000   162.0000 </r>
       <r>    -0.7504     0.0000   162.0000 </r>
       <r>    -0.6844     0.0000   162.0000 </r>
       <r>    -0.6184     0.0000   162.0000 </r>
       <r>    -0.5524     0.0000   162.0000 </r>
       <r>    -0.4864     0.0000   162.0000 </r>
       <r>    -0.4204     0.0000   162.0000 </r>
       <r>    -0.3544     0.0000   162.0000 </r>
       <r>    -0.2884     0.0000   162.0000 </r>
       <r>    -0.2224     0.0000   162.0000 </r>
       <r>    -0.1564     0.4912   162.0324 </r>
       <r>    -0.0904    12.7343   162.8728 </r>
       <r>    -0.0244    17.6451   164.0387 </r>
       <r>     0.0416    20.7132   165.4075 </r>
       <r>     0.1076    30.1383   167.3978 </r>
       <r>     0.1736    26.2097   169.1303 </r>
       <r>     0.2396    23.0952   170.6558 </r>
       <r>     0.3056    26.5101   172.4064 </r>
       <r>     0.3716    21.6253   173.8356 </r>
       <r>     0.4376    19.5129   175.1256 </r>
       <r>     0.5036    15.6091   176.1566 </r>
       <r>     0.5695    21.7177   177.5905 </r>
       <r>     0.6355    37.7585   180.0855 </r>
       <r>     0.7015    62.5358   184.2147 </r>
       <r>     0.7675    45.9645   187.2517 </r>
       <r>     0.8335    43.3571   190.1162 </r>
       <r>     0.8995    37.3820   192.5863 </r>
       <r>     0.9655    39.2873   195.1809 </r>
       <r>     1.0315    47.3986   198.3114 </r>
       <r>     1.0975    36.3856   200.7162 </r>
       <r>     1.1635    25.9258   202.4293 </r>
       <r>     1.2295    12.9092   203.2818 </r>
       <r>     1.2955     7.1940   203.7566 </r>
       <r>     1.3615     2.6215   203.9306 </r>
       <r>     1.4275     0.9764   203.9955 </r>
       <r>     1.4935     0.0687   204.0000 </r>
       <r>     1.5595     0.0000   204.0000 </r>
       <r>     1.6255     0.0000   204.0000 </r>
       <r>     1.6915     0.0000   204.0000 </r>
       <r>     1.7575     0.0000   204.0000 </r>
       <r>     1.8235     0.0000   204.0000 </r>
       <r>     1.8895     0.0000   204.0000 </r>
       <r>     1.9555     0.0000   204.0000 </r>
       <r>     2.0215     0.0000   204.0000 </r>
       <r>     2.0875     0.0000   204.0000 </r>
       <r>     2.1535     0.0000   204.0000 </r>
       <r>     2.2195     0.0000   204.0000 </r>
       <r>     2.2855     0.0000   204.0000 </r>
       <r>     2.3515     0.0000   204.0000 </r>
      </set>
     </set>
    </array>
   </total>
  </dos>
 </calculation>
 <structure name="finalpos" >
  <crystal>
   <varray name="basis" >
    <v>       9.84600000       0.00000000       0.00000000 </v>
    <v>       4.92300000       8.52144000       0.00000000 </v>
    <v>       0.00000000       0.00000000      20.00000000 </v>
   </varray>
   <i name="volume">   1678.04196480 </i>
   <varray name="rec_basis" >
    <v>       0.10156409      -0.05867553       0.00000000 </v>
    <v>       0.00000000       0.11735106       0.00000000 </v>
    <v>       0.00000000       0.00000000       0.05000000 </v>
   </varray>
  </crystal>
  <varray name="positions" >
   <v>       0.33330000       0.00051500       0.00044900 </v>
   <v>       0.66663300       0.00006700       0.00000000 </v>
   <v>       0.99996700       0.00006700       0.00000000 </v>
   <v>       0.33330000       0.33340000       0.00000000 </v>
   <v>       0.66663300       0.33340000       0.00000000 </v>
   <v>       0.99996700       0.33340000       0.00000000 </v>
   <v>       0.33330000       0.66673300       0.00000000 </v>
   <v>       0.66663300       0.66673300       0.00000000 </v>
   <v>       0.99996700       0.66673300       0.00000000 </v>
   <v>       0.11109200       0.11114900       0.91545900 </v>
   <v>       0.44442600       0.11114900       0.91545900 </v>
   <v>       0.77775900       0.11114900       0.91545900 </v>
   <v>       0.11109200       0.44448200       0.91545900 </v>
   <v>       0.44442600       0.44448200       0.91545900 </v>
   <v>       0.77775900       0.44448200       0.91545900 </v>
   <v>       0.11109200       0.77781500       0.91545900 </v>
   <v>       0.44442600       0.77781500       0.91545900 </v>
   <v>       0.77775900       0.77781500       0.91545900 </v>
   <v>       0.11109200       0.11114900       0.08454100 </v>
   <v>       0.44442600       0.11114900       0.08454100 </v>
   <v>       0.77775900       0.11114900       0.08454100 </v>
   <v>       0.11109200       0.44448200       0.08454100 </v>
   <v>       0.44442600       0.44448200       0.08454100 </v>
   <v>       0.77775900       0.44448200       0.08454100 </v>
   <v>       0.11109200       0.77781500       0.08454100 </v>
   <v>       0.44442600       0.77781500       0.08454100 </v>
   <v>       0.77775900       0.77781500       0.08454100 </v>
  </varray>
 </structure>
</modeling>
