W-1, se-2                               
           1
     9.846000    0.000000    0.000000
     4.923000    8.521440    0.000000
     0.000000    0.000000   20.000000
   W    Se
   9  18
Direct configuration=     1
   0.33330000  0.00051500  0.00044900
   0.66663300  0.00006700  0.00000000
   0.99996700  0.00006700  0.00000000
   0.33330000  0.33340000  0.00000000
   0.66663300  0.33340000  0.00000000
   0.99996700  0.33340000  0.00000000
   0.33330000  0.66673300  0.00000000
   0.66663300  0.66673300  0.00000000
   0.99996700  0.66673300  0.00000000
   0.11109200  0.11114900  0.91545900
   0.44442600  0.11114900  0.91545900
   0.77775900  0.11114900  0.91545900
   0.11109200  0.44448200  0.91545900
   0.44442600  0.44448200  0.91545900
   0.77775900  0.44448200  0.91545900
   0.11109200  0.77781500  0.91545900
   0.44442600  0.77781500  0.91545900
   0.77775900  0.77781500  0.91545900
   0.11109200  0.11114900  0.08454100
   0.44442600  0.11114900  0.08454100
   0.77775900  0.11114900  0.08454100
   0.11109200  0.44448200  0.08454100
   0.44442600  0.44448200  0.08454100
   0.77775900  0.44448200  0.08454100
   0.11109200  0.77781500  0.08454100
   0.44442600  0.77781500  0.08454100
   0.77775900  0.77781500  0.08454100
