   2   2   0   0
  0.5238761E+02  0.2459512E-09  0.2459512E-09  0.2000000E-08  0.5000000E-15
  1.000000000000000E-004
  CAR 
 C:graphene                              
     11.84383077    -23.92498778 9001     -2.72500774      1.00000000
    -23.925  0.0000E+00  0.0000E+00
    -23.921  0.0000E+00  0.0000E+00
    -23.917  0.0000E+00  0.0000E+00
    -23.913  0.0000E+00  0.0000E+00
    -23.909  0.0000E+00  0.0000E+00
    -23.905  0.0000E+00  0.0000E+00
    -23.901  0.0000E+00  0.0000E+00
    -23.897  0.0000E+00  0.0000E+00
    -23.893  0.0000E+00  0.0000E+00
    -23.889  0.0000E+00  0.0000E+00
    -23.885  0.0000E+00  0.0000E+00
    -23.881  0.0000E+00  0.0000E+00
    -23.877  0.0000E+00  0.0000E+00
    -23.873  0.0000E+00  0.0000E+00
    -23.869  0.0000E+00  0.0000E+00
    -23.865  0.0000E+00  0.0000E+00
    -23.861  0.0000E+00  0.0000E+00
    -23.857  0.0000E+00  0.0000E+00
    -23.853  0.0000E+00  0.0000E+00
    -23.849  0.0000E+00  0.0000E+00
    -23.846  0.0000E+00  0.0000E+00
    -23.842  0.0000E+00  0.0000E+00
    -23.838  0.0000E+00  0.0000E+00
    -23.834  0.0000E+00  0.0000E+00
    -23.830  0.0000E+00  0.0000E+00
    -23.826  0.0000E+00  0.0000E+00
    -23.822  0.0000E+00  0.0000E+00
    -23.818  0.0000E+00  0.0000E+00
    -23.814  0.0000E+00  0.0000E+00
    -23.810  0.0000E+00  0.0000E+00
    -23.806  0.0000E+00  0.0000E+00
    -23.802  0.0000E+00  0.0000E+00
    -23.798  0.0000E+00  0.0000E+00
    -23.794  0.0000E+00  0.0000E+00
    -23.790  0.0000E+00  0.0000E+00
    -23.786  0.0000E+00  0.0000E+00
    -23.782  0.0000E+00  0.0000E+00
    -23.778  0.0000E+00  0.0000E+00
    -23.774  0.0000E+00  0.0000E+00
    -23.770  0.0000E+00  0.0000E+00
    -23.766  0.0000E+00  0.0000E+00
    -23.762  0.0000E+00  0.0000E+00
    -23.758  0.0000E+00  0.0000E+00
    -23.754  0.0000E+00  0.0000E+00
    -23.750  0.0000E+00  0.0000E+00
    -23.746  0.0000E+00  0.0000E+00
    -23.742  0.0000E+00  0.0000E+00
    -23.738  0.0000E+00  0.0000E+00
    -23.734  0.0000E+00  0.0000E+00
    -23.730  0.0000E+00  0.0000E+00
    -23.726  0.0000E+00  0.0000E+00
    -23.722  0.0000E+00  0.0000E+00
    -23.718  0.0000E+00  0.0000E+00
    -23.714  0.0000E+00  0.0000E+00
    -23.710  0.0000E+00  0.0000E+00
    -23.706  0.0000E+00  0.0000E+00
    -23.702  0.0000E+00  0.0000E+00
    -23.698  0.0000E+00  0.0000E+00
    -23.694  0.0000E+00  0.0000E+00
    -23.691  0.0000E+00  0.0000E+00
    -23.687  0.0000E+00  0.0000E+00
    -23.683  0.0000E+00  0.0000E+00
    -23.679  0.0000E+00  0.0000E+00
    -23.675  0.0000E+00  0.0000E+00
    -23.671  0.0000E+00  0.0000E+00
    -23.667  0.0000E+00  0.0000E+00
    -23.663  0.0000E+00  0.0000E+00
    -23.659  0.0000E+00  0.0000E+00
    -23.655  0.0000E+00  0.0000E+00
    -23.651  0.0000E+00  0.0000E+00
    -23.647  0.0000E+00  0.0000E+00
    -23.643  0.0000E+00  0.0000E+00
    -23.639  0.0000E+00  0.0000E+00
    -23.635  0.0000E+00  0.0000E+00
    -23.631  0.0000E+00  0.0000E+00
    -23.627  0.0000E+00  0.0000E+00
    -23.623  0.0000E+00  0.0000E+00
    -23.619  0.0000E+00  0.0000E+00
    -23.615  0.0000E+00  0.0000E+00
    -23.611  0.0000E+00  0.0000E+00
    -23.607  0.0000E+00  0.0000E+00
    -23.603  0.0000E+00  0.0000E+00
    -23.599  0.0000E+00  0.0000E+00
    -23.595  0.0000E+00  0.0000E+00
    -23.591  0.0000E+00  0.0000E+00
    -23.587  0.0000E+00  0.0000E+00
    -23.583  0.0000E+00  0.0000E+00
    -23.579  0.0000E+00  0.0000E+00
    -23.575  0.0000E+00  0.0000E+00
    -23.571  0.0000E+00  0.0000E+00
    -23.567  0.0000E+00  0.0000E+00
    -23.563  0.0000E+00  0.0000E+00
    -23.559  0.0000E+00  0.0000E+00
    -23.555  0.0000E+00  0.0000E+00
    -23.551  0.0000E+00  0.0000E+00
    -23.547  0.0000E+00  0.0000E+00
    -23.543  0.0000E+00  0.0000E+00
    -23.539  0.0000E+00  0.0000E+00
    -23.536  0.0000E+00  0.0000E+00
    -23.532  0.0000E+00  0.0000E+00
    -23.528  0.0000E+00  0.0000E+00
    -23.524  0.0000E+00  0.0000E+00
    -23.520  0.0000E+00  0.0000E+00
    -23.516  0.0000E+00  0.0000E+00
    -23.512  0.0000E+00  0.0000E+00
    -23.508  0.0000E+00  0.0000E+00
    -23.504  0.0000E+00  0.0000E+00
    -23.500  0.0000E+00  0.0000E+00
    -23.496  0.0000E+00  0.0000E+00
    -23.492  0.0000E+00  0.0000E+00
    -23.488  0.0000E+00  0.0000E+00
    -23.484  0.0000E+00  0.0000E+00
    -23.480  0.0000E+00  0.0000E+00
    -23.476  0.0000E+00  0.0000E+00
    -23.472  0.0000E+00  0.0000E+00
    -23.468  0.0000E+00  0.0000E+00
    -23.464  0.0000E+00  0.0000E+00
    -23.460  0.0000E+00  0.0000E+00
    -23.456  0.0000E+00  0.0000E+00
    -23.452  0.0000E+00  0.0000E+00
    -23.448  0.0000E+00  0.0000E+00
    -23.444  0.0000E+00  0.0000E+00
    -23.440  0.0000E+00  0.0000E+00
    -23.436  0.0000E+00  0.0000E+00
    -23.432  0.0000E+00  0.0000E+00
    -23.428  0.0000E+00  0.0000E+00
    -23.424  0.0000E+00  0.0000E+00
    -23.420  0.0000E+00  0.0000E+00
    -23.416  0.0000E+00  0.0000E+00
    -23.412  0.0000E+00  0.0000E+00
    -23.408  0.0000E+00  0.0000E+00
    -23.404  0.0000E+00  0.0000E+00
    -23.400  0.0000E+00  0.0000E+00
    -23.396  0.0000E+00  0.0000E+00
    -23.392  0.0000E+00  0.0000E+00
    -23.388  0.0000E+00  0.0000E+00
    -23.384  0.0000E+00  0.0000E+00
    -23.381  0.0000E+00  0.0000E+00
    -23.377  0.0000E+00  0.0000E+00
    -23.373  0.0000E+00  0.0000E+00
    -23.369  0.0000E+00  0.0000E+00
    -23.365  0.0000E+00  0.0000E+00
    -23.361  0.0000E+00  0.0000E+00
    -23.357  0.0000E+00  0.0000E+00
    -23.353  0.0000E+00  0.0000E+00
    -23.349  0.0000E+00  0.0000E+00
    -23.345  0.0000E+00  0.0000E+00
    -23.341  0.0000E+00  0.0000E+00
    -23.337  0.0000E+00  0.0000E+00
    -23.333  0.0000E+00  0.0000E+00
    -23.329  0.0000E+00  0.0000E+00
    -23.325  0.0000E+00  0.0000E+00
    -23.321  0.0000E+00  0.0000E+00
    -23.317  0.0000E+00  0.0000E+00
    -23.313  0.0000E+00  0.0000E+00
    -23.309  0.0000E+00  0.0000E+00
    -23.305  0.0000E+00  0.0000E+00
    -23.301  0.0000E+00  0.0000E+00
    -23.297  0.0000E+00  0.0000E+00
    -23.293  0.0000E+00  0.0000E+00
    -23.289  0.0000E+00  0.0000E+00
    -23.285  0.0000E+00  0.0000E+00
    -23.281  0.0000E+00  0.0000E+00
    -23.277  0.0000E+00  0.0000E+00
    -23.273  0.0000E+00  0.0000E+00
    -23.269  0.0000E+00  0.0000E+00
    -23.265  0.0000E+00  0.0000E+00
    -23.261  0.0000E+00  0.0000E+00
    -23.257  0.0000E+00  0.0000E+00
    -23.253  0.0000E+00  0.0000E+00
    -23.249  0.0000E+00  0.0000E+00
    -23.245  0.0000E+00  0.0000E+00
    -23.241  0.0000E+00  0.0000E+00
    -23.237  0.0000E+00  0.0000E+00
    -23.233  0.0000E+00  0.0000E+00
    -23.229  0.0000E+00  0.0000E+00
    -23.226  0.0000E+00  0.0000E+00
    -23.222  0.0000E+00  0.0000E+00
    -23.218  0.0000E+00  0.0000E+00
    -23.214  0.0000E+00  0.0000E+00
    -23.210  0.0000E+00  0.0000E+00
    -23.206  0.0000E+00  0.0000E+00
    -23.202  0.0000E+00  0.0000E+00
    -23.198  0.0000E+00  0.0000E+00
    -23.194  0.0000E+00  0.0000E+00
    -23.190  0.0000E+00  0.0000E+00
    -23.186  0.0000E+00  0.0000E+00
    -23.182  0.0000E+00  0.0000E+00
    -23.178  0.0000E+00  0.0000E+00
    -23.174  0.0000E+00  0.0000E+00
    -23.170  0.0000E+00  0.0000E+00
    -23.166  0.0000E+00  0.0000E+00
    -23.162  0.0000E+00  0.0000E+00
    -23.158  0.0000E+00  0.0000E+00
    -23.154  0.0000E+00  0.0000E+00
    -23.150  0.0000E+00  0.0000E+00
    -23.146  0.0000E+00  0.0000E+00
    -23.142  0.0000E+00  0.0000E+00
    -23.138  0.0000E+00  0.0000E+00
    -23.134  0.0000E+00  0.0000E+00
    -23.130  0.0000E+00  0.0000E+00
    -23.126  0.0000E+00  0.0000E+00
    -23.122  0.0000E+00  0.0000E+00
    -23.118  0.0000E+00  0.0000E+00
    -23.114  0.0000E+00  0.0000E+00
    -23.110  0.0000E+00  0.0000E+00
    -23.106  0.0000E+00  0.0000E+00
    -23.102  0.0000E+00  0.0000E+00
    -23.098  0.0000E+00  0.0000E+00
    -23.094  0.0000E+00  0.0000E+00
    -23.090  0.0000E+00  0.0000E+00
    -23.086  0.0000E+00  0.0000E+00
    -23.082  0.0000E+00  0.0000E+00
    -23.078  0.0000E+00  0.0000E+00
    -23.074  0.0000E+00  0.0000E+00
    -23.071  0.0000E+00  0.0000E+00
    -23.067  0.0000E+00  0.0000E+00
    -23.063  0.0000E+00  0.0000E+00
    -23.059  0.0000E+00  0.0000E+00
    -23.055  0.0000E+00  0.0000E+00
    -23.051  0.0000E+00  0.0000E+00
    -23.047  0.0000E+00  0.0000E+00
    -23.043  0.0000E+00  0.0000E+00
    -23.039  0.0000E+00  0.0000E+00
    -23.035  0.0000E+00  0.0000E+00
    -23.031  0.0000E+00  0.0000E+00
    -23.027  0.0000E+00  0.0000E+00
    -23.023  0.0000E+00  0.0000E+00
    -23.019  0.0000E+00  0.0000E+00
    -23.015  0.0000E+00  0.0000E+00
    -23.011  0.0000E+00  0.0000E+00
    -23.007  0.0000E+00  0.0000E+00
    -23.003  0.0000E+00  0.0000E+00
    -22.999  0.0000E+00  0.0000E+00
    -22.995  0.0000E+00  0.0000E+00
    -22.991  0.0000E+00  0.0000E+00
    -22.987  0.0000E+00  0.0000E+00
    -22.983  0.0000E+00  0.0000E+00
    -22.979  0.0000E+00  0.0000E+00
    -22.975  0.0000E+00  0.0000E+00
    -22.971  0.0000E+00  0.0000E+00
    -22.967  0.0000E+00  0.0000E+00
    -22.963  0.0000E+00  0.0000E+00
    -22.959  0.0000E+00  0.0000E+00
    -22.955  0.0000E+00  0.0000E+00
    -22.951  0.0000E+00  0.0000E+00
    -22.947  0.0000E+00  0.0000E+00
    -22.943  0.0000E+00  0.0000E+00
    -22.939  0.0000E+00  0.0000E+00
    -22.935  0.0000E+00  0.0000E+00
    -22.931  0.0000E+00  0.0000E+00
    -22.927  0.0000E+00  0.0000E+00
    -22.923  0.0000E+00  0.0000E+00
    -22.919  0.0000E+00  0.0000E+00
    -22.916  0.0000E+00  0.0000E+00
    -22.912  0.0000E+00  0.0000E+00
    -22.908  0.0000E+00  0.0000E+00
    -22.904  0.0000E+00  0.0000E+00
    -22.900  0.0000E+00  0.0000E+00
    -22.896  0.0000E+00  0.0000E+00
    -22.892  0.0000E+00  0.0000E+00
    -22.888  0.0000E+00  0.0000E+00
    -22.884  0.0000E+00  0.0000E+00
    -22.880  0.0000E+00  0.0000E+00
    -22.876  0.0000E+00  0.0000E+00
    -22.872  0.0000E+00  0.0000E+00
    -22.868  0.0000E+00  0.0000E+00
    -22.864  0.0000E+00  0.0000E+00
    -22.860  0.0000E+00  0.0000E+00
    -22.856  0.0000E+00  0.0000E+00
    -22.852  0.0000E+00  0.0000E+00
    -22.848  0.0000E+00  0.0000E+00
    -22.844  0.0000E+00  0.0000E+00
    -22.840  0.0000E+00  0.0000E+00
    -22.836  0.0000E+00  0.0000E+00
    -22.832  0.0000E+00  0.0000E+00
    -22.828  0.0000E+00  0.0000E+00
    -22.824  0.0000E+00  0.0000E+00
    -22.820  0.0000E+00  0.0000E+00
    -22.816  0.0000E+00  0.0000E+00
    -22.812  0.0000E+00  0.0000E+00
    -22.808  0.0000E+00  0.0000E+00
    -22.804  0.0000E+00  0.0000E+00
    -22.800  0.0000E+00  0.0000E+00
    -22.796  0.0000E+00  0.0000E+00
    -22.792  0.0000E+00  0.0000E+00
    -22.788  0.0000E+00  0.0000E+00
    -22.784  0.0000E+00  0.0000E+00
    -22.780  0.0000E+00  0.0000E+00
    -22.776  0.0000E+00  0.0000E+00
    -22.772  0.0000E+00  0.0000E+00
    -22.768  0.0000E+00  0.0000E+00
    -22.764  0.0000E+00  0.0000E+00
    -22.761  0.0000E+00  0.0000E+00
    -22.757  0.0000E+00  0.0000E+00
    -22.753  0.0000E+00  0.0000E+00
    -22.749  0.0000E+00  0.0000E+00
    -22.745  0.0000E+00  0.0000E+00
    -22.741  0.0000E+00  0.0000E+00
    -22.737  0.0000E+00  0.0000E+00
    -22.733  0.0000E+00  0.0000E+00
    -22.729  0.0000E+00  0.0000E+00
    -22.725  0.0000E+00  0.0000E+00
    -22.721  0.0000E+00  0.0000E+00
    -22.717  0.0000E+00  0.0000E+00
    -22.713  0.0000E+00  0.0000E+00
    -22.709  0.0000E+00  0.0000E+00
    -22.705  0.0000E+00  0.0000E+00
    -22.701  0.0000E+00  0.0000E+00
    -22.697  0.0000E+00  0.0000E+00
    -22.693  0.0000E+00  0.0000E+00
    -22.689  0.0000E+00  0.0000E+00
    -22.685  0.0000E+00  0.0000E+00
    -22.681  0.0000E+00  0.0000E+00
    -22.677  0.0000E+00  0.0000E+00
    -22.673  0.0000E+00  0.0000E+00
    -22.669  0.0000E+00  0.0000E+00
    -22.665  0.0000E+00  0.0000E+00
    -22.661  0.0000E+00  0.0000E+00
    -22.657  0.0000E+00  0.0000E+00
    -22.653  0.0000E+00  0.0000E+00
    -22.649  0.0000E+00  0.0000E+00
    -22.645  0.0000E+00  0.0000E+00
    -22.641  0.0000E+00  0.0000E+00
    -22.637  0.0000E+00  0.0000E+00
    -22.633  0.0000E+00  0.0000E+00
    -22.629  0.0000E+00  0.0000E+00
    -22.625  0.0000E+00  0.0000E+00
    -22.621  0.0000E+00  0.0000E+00
    -22.617  0.0000E+00  0.0000E+00
    -22.613  0.0000E+00  0.0000E+00
    -22.609  0.0000E+00  0.0000E+00
    -22.606  0.0000E+00  0.0000E+00
    -22.602  0.0000E+00  0.0000E+00
    -22.598  0.0000E+00  0.0000E+00
    -22.594  0.0000E+00  0.0000E+00
    -22.590  0.0000E+00  0.0000E+00
    -22.586  0.0000E+00  0.0000E+00
    -22.582  0.0000E+00  0.0000E+00
    -22.578  0.0000E+00  0.0000E+00
    -22.574  0.0000E+00  0.0000E+00
    -22.570  0.0000E+00  0.0000E+00
    -22.566  0.0000E+00  0.0000E+00
    -22.562  0.0000E+00  0.0000E+00
    -22.558  0.0000E+00  0.0000E+00
    -22.554  0.0000E+00  0.0000E+00
    -22.550  0.0000E+00  0.0000E+00
    -22.546  0.0000E+00  0.0000E+00
    -22.542  0.0000E+00  0.0000E+00
    -22.538  0.0000E+00  0.0000E+00
    -22.534  0.0000E+00  0.0000E+00
    -22.530  0.0000E+00  0.0000E+00
    -22.526  0.0000E+00  0.0000E+00
    -22.522  0.0000E+00  0.0000E+00
    -22.518  0.0000E+00  0.0000E+00
    -22.514  0.0000E+00  0.0000E+00
    -22.510  0.0000E+00  0.0000E+00
    -22.506  0.0000E+00  0.0000E+00
    -22.502  0.0000E+00  0.0000E+00
    -22.498  0.0000E+00  0.0000E+00
    -22.494  0.0000E+00  0.0000E+00
    -22.490  0.0000E+00  0.0000E+00
    -22.486  0.0000E+00  0.0000E+00
    -22.482  0.0000E+00  0.0000E+00
    -22.478  0.0000E+00  0.0000E+00
    -22.474  0.0000E+00  0.0000E+00
    -22.470  0.0000E+00  0.0000E+00
    -22.466  0.0000E+00  0.0000E+00
    -22.462  0.0000E+00  0.0000E+00
    -22.458  0.0000E+00  0.0000E+00
    -22.454  0.0000E+00  0.0000E+00
    -22.451  0.0000E+00  0.0000E+00
    -22.447  0.0000E+00  0.0000E+00
    -22.443  0.0000E+00  0.0000E+00
    -22.439  0.0000E+00  0.0000E+00
    -22.435  0.0000E+00  0.0000E+00
    -22.431  0.0000E+00  0.0000E+00
    -22.427  0.0000E+00  0.0000E+00
    -22.423  0.0000E+00  0.0000E+00
    -22.419  0.0000E+00  0.0000E+00
    -22.415  0.0000E+00  0.0000E+00
    -22.411  0.0000E+00  0.0000E+00
    -22.407  0.0000E+00  0.0000E+00
    -22.403  0.0000E+00  0.0000E+00
    -22.399  0.0000E+00  0.0000E+00
    -22.395  0.0000E+00  0.0000E+00
    -22.391  0.0000E+00  0.0000E+00
    -22.387  0.0000E+00  0.0000E+00
    -22.383  0.0000E+00  0.0000E+00
    -22.379  0.0000E+00  0.0000E+00
    -22.375  0.0000E+00  0.0000E+00
    -22.371  0.0000E+00  0.0000E+00
    -22.367  0.0000E+00  0.0000E+00
    -22.363  0.0000E+00  0.0000E+00
    -22.359  0.0000E+00  0.0000E+00
    -22.355  0.0000E+00  0.0000E+00
    -22.351  0.0000E+00  0.0000E+00
    -22.347  0.0000E+00  0.0000E+00
    -22.343  0.0000E+00  0.0000E+00
    -22.339  0.0000E+00  0.0000E+00
    -22.335  0.0000E+00  0.0000E+00
    -22.331  0.0000E+00  0.0000E+00
    -22.327  0.0000E+00  0.0000E+00
    -22.323  0.0000E+00  0.0000E+00
    -22.319  0.0000E+00  0.0000E+00
    -22.315  0.0000E+00  0.0000E+00
    -22.311  0.0000E+00  0.0000E+00
    -22.307  0.0000E+00  0.0000E+00
    -22.303  0.0000E+00  0.0000E+00
    -22.299  0.0000E+00  0.0000E+00
    -22.296  0.4240E-03  0.7660E-06
    -22.292  0.8905E-03  0.3378E-05
    -22.288  0.1357E-02  0.7844E-05
    -22.284  0.1823E-02  0.1416E-04
    -22.280  0.2290E-02  0.2234E-04
    -22.276  0.2756E-02  0.3236E-04
    -22.272  0.3223E-02  0.4425E-04
    -22.268  0.3689E-02  0.5798E-04
    -22.264  0.4156E-02  0.7357E-04
    -22.260  0.4622E-02  0.9101E-04
    -22.256  0.5088E-02  0.1103E-03
    -22.252  0.5555E-02  0.1315E-03
    -22.248  0.6021E-02  0.1545E-03
    -22.244  0.3176E-02  0.1746E-03
    -22.240  0.3215E-02  0.1873E-03
    -22.236  0.3254E-02  0.2002E-03
    -22.232  0.3293E-02  0.2132E-03
    -22.228  0.3332E-02  0.2264E-03
    -22.224  0.3371E-02  0.2397E-03
    -22.220  0.3410E-02  0.2532E-03
    -22.216  0.3449E-02  0.2668E-03
    -22.212  0.3488E-02  0.2806E-03
    -22.208  0.3527E-02  0.2945E-03
    -22.204  0.3566E-02  0.3086E-03
    -22.200  0.3605E-02  0.3229E-03
    -22.196  0.3644E-02  0.3373E-03
    -22.192  0.3683E-02  0.3518E-03
    -22.188  0.3722E-02  0.3665E-03
    -22.184  0.3761E-02  0.3814E-03
    -22.180  0.3800E-02  0.3964E-03
    -22.176  0.3839E-02  0.4116E-03
    -22.172  0.3878E-02  0.4269E-03
    -22.168  0.3916E-02  0.4424E-03
    -22.164  0.3955E-02  0.4581E-03
    -22.160  0.3994E-02  0.4739E-03
    -22.156  0.4033E-02  0.4898E-03
    -22.152  0.4072E-02  0.5059E-03
    -22.148  0.4111E-02  0.5222E-03
    -22.144  0.4150E-02  0.5386E-03
    -22.141  0.4189E-02  0.5552E-03
    -22.137  0.4203E-02  0.5719E-03
    -22.133  0.4154E-02  0.5885E-03
    -22.129  0.4106E-02  0.6049E-03
    -22.125  0.4058E-02  0.6211E-03
    -22.121  0.4009E-02  0.6372E-03
    -22.117  0.3961E-02  0.6530E-03
    -22.113  0.3913E-02  0.6686E-03
    -22.109  0.3864E-02  0.6841E-03
    -22.105  0.3816E-02  0.6994E-03
    -22.101  0.3768E-02  0.7144E-03
    -22.097  0.3719E-02  0.7293E-03
    -22.093  0.3671E-02  0.7440E-03
    -22.089  0.3623E-02  0.7585E-03
    -22.085  0.3575E-02  0.7728E-03
    -22.081  0.3574E-02  0.7870E-03
    -22.077  0.3588E-02  0.8012E-03
    -22.073  0.3602E-02  0.8155E-03
    -22.069  0.3615E-02  0.8298E-03
    -22.065  0.3629E-02  0.8442E-03
    -22.061  0.3643E-02  0.8587E-03
    -22.057  0.3656E-02  0.8732E-03
    -22.053  0.3670E-02  0.8878E-03
    -22.049  0.3684E-02  0.9024E-03
    -22.045  0.3698E-02  0.9170E-03
    -22.041  0.3711E-02  0.9318E-03
    -22.037  0.3725E-02  0.9465E-03
    -22.033  0.3739E-02  0.9614E-03
    -22.029  0.3753E-02  0.9763E-03
    -22.025  0.3766E-02  0.9912E-03
    -22.021  0.3780E-02  0.1006E-02
    -22.017  0.3794E-02  0.1021E-02
    -22.013  0.3807E-02  0.1036E-02
    -22.009  0.3821E-02  0.1052E-02
    -22.005  0.3835E-02  0.1067E-02
    -22.001  0.3849E-02  0.1082E-02
    -21.997  0.3862E-02  0.1097E-02
    -21.993  0.3876E-02  0.1113E-02
    -21.989  0.3890E-02  0.1128E-02
    -21.986  0.3904E-02  0.1144E-02
    -21.982  0.3917E-02  0.1159E-02
    -21.978  0.3931E-02  0.1175E-02
    -21.974  0.3945E-02  0.1190E-02
    -21.970  0.3958E-02  0.1206E-02
    -21.966  0.3972E-02  0.1222E-02
    -21.962  0.3986E-02  0.1238E-02
    -21.958  0.4000E-02  0.1254E-02
    -21.954  0.4013E-02  0.1269E-02
    -21.950  0.4027E-02  0.1285E-02
    -21.946  0.4041E-02  0.1301E-02
    -21.942  0.4054E-02  0.1318E-02
    -21.938  0.4068E-02  0.1334E-02
    -21.934  0.4082E-02  0.1350E-02
    -21.930  0.4096E-02  0.1366E-02
    -21.926  0.4109E-02  0.1382E-02
    -21.922  0.3806E-02  0.1398E-02
    -21.918  0.3803E-02  0.1414E-02
    -21.914  0.3800E-02  0.1429E-02
    -21.910  0.3797E-02  0.1444E-02
    -21.906  0.3794E-02  0.1459E-02
    -21.902  0.3791E-02  0.1474E-02
    -21.898  0.3788E-02  0.1489E-02
    -21.894  0.3785E-02  0.1504E-02
    -21.890  0.3782E-02  0.1519E-02
    -21.886  0.3779E-02  0.1534E-02
    -21.882  0.3776E-02  0.1549E-02
    -21.878  0.3774E-02  0.1564E-02
    -21.874  0.3771E-02  0.1579E-02
    -21.870  0.3768E-02  0.1594E-02
    -21.866  0.3765E-02  0.1609E-02
    -21.862  0.3762E-02  0.1624E-02
    -21.858  0.3759E-02  0.1639E-02
    -21.854  0.3756E-02  0.1654E-02
    -21.850  0.3753E-02  0.1669E-02
    -21.846  0.3750E-02  0.1684E-02
    -21.842  0.3747E-02  0.1699E-02
    -21.838  0.3744E-02  0.1714E-02
    -21.834  0.3741E-02  0.1728E-02
    -21.831  0.3739E-02  0.1743E-02
    -21.827  0.3736E-02  0.1758E-02
    -21.823  0.3733E-02  0.1773E-02
    -21.819  0.3730E-02  0.1788E-02
    -21.815  0.3730E-02  0.1803E-02
    -21.811  0.3737E-02  0.1817E-02
    -21.807  0.3744E-02  0.1832E-02
    -21.803  0.3751E-02  0.1847E-02
    -21.799  0.3758E-02  0.1862E-02
    -21.795  0.3765E-02  0.1877E-02
    -21.791  0.3772E-02  0.1892E-02
    -21.787  0.3779E-02  0.1907E-02
    -21.783  0.3786E-02  0.1922E-02
    -21.779  0.3793E-02  0.1937E-02
    -21.775  0.3800E-02  0.1952E-02
    -21.771  0.3807E-02  0.1967E-02
    -21.767  0.3814E-02  0.1983E-02
    -21.763  0.3821E-02  0.1998E-02
    -21.759  0.3828E-02  0.2013E-02
    -21.755  0.3835E-02  0.2028E-02
    -21.751  0.3842E-02  0.2043E-02
    -21.747  0.3849E-02  0.2059E-02
    -21.743  0.3856E-02  0.2074E-02
    -21.739  0.3863E-02  0.2089E-02
    -21.735  0.3870E-02  0.2105E-02
    -21.731  0.3877E-02  0.2120E-02
    -21.727  0.3884E-02  0.2135E-02
    -21.723  0.3891E-02  0.2151E-02
    -21.719  0.3898E-02  0.2166E-02
    -21.715  0.3905E-02  0.2182E-02
    -21.711  0.3912E-02  0.2197E-02
    -21.707  0.3919E-02  0.2213E-02
    -21.703  0.3926E-02  0.2229E-02
    -21.699  0.3933E-02  0.2244E-02
    -21.695  0.3940E-02  0.2260E-02
    -21.691  0.3947E-02  0.2276E-02
    -21.687  0.3954E-02  0.2291E-02
    -21.683  0.3961E-02  0.2307E-02
    -21.680  0.3968E-02  0.2323E-02
    -21.676  0.3975E-02  0.2338E-02
    -21.672  0.3982E-02  0.2354E-02
    -21.668  0.3989E-02  0.2370E-02
    -21.664  0.3996E-02  0.2386E-02
    -21.660  0.4003E-02  0.2402E-02
    -21.656  0.4010E-02  0.2418E-02
    -21.652  0.3995E-02  0.2434E-02
    -21.648  0.3977E-02  0.2450E-02
    -21.644  0.3959E-02  0.2465E-02
    -21.640  0.3941E-02  0.2481E-02
    -21.636  0.3924E-02  0.2497E-02
    -21.632  0.3906E-02  0.2512E-02
    -21.628  0.3888E-02  0.2528E-02
    -21.624  0.3870E-02  0.2543E-02
    -21.620  0.3852E-02  0.2558E-02
    -21.616  0.3834E-02  0.2574E-02
    -21.612  0.3816E-02  0.2589E-02
    -21.608  0.3798E-02  0.2604E-02
    -21.604  0.3781E-02  0.2619E-02
    -21.600  0.3771E-02  0.2634E-02
    -21.596  0.3772E-02  0.2649E-02
    -21.592  0.3774E-02  0.2664E-02
    -21.588  0.3775E-02  0.2679E-02
    -21.584  0.3776E-02  0.2694E-02
    -21.580  0.3778E-02  0.2709E-02
    -21.576  0.3779E-02  0.2724E-02
    -21.572  0.3780E-02  0.2739E-02
    -21.568  0.3782E-02  0.2754E-02
    -21.564  0.3783E-02  0.2769E-02
    -21.560  0.3785E-02  0.2784E-02
    -21.556  0.3786E-02  0.2799E-02
    -21.552  0.3787E-02  0.2814E-02
    -21.548  0.3789E-02  0.2829E-02
    -21.544  0.3790E-02  0.2845E-02
    -21.540  0.3791E-02  0.2860E-02
    -21.536  0.3793E-02  0.2875E-02
    -21.532  0.3794E-02  0.2890E-02
    -21.528  0.3795E-02  0.2905E-02
    -21.525  0.3797E-02  0.2920E-02
    -21.521  0.3798E-02  0.2935E-02
    -21.517  0.3800E-02  0.2950E-02
    -21.513  0.3801E-02  0.2965E-02
    -21.509  0.3802E-02  0.2980E-02
    -21.505  0.3804E-02  0.2995E-02
    -21.501  0.3805E-02  0.3011E-02
    -21.497  0.3806E-02  0.3026E-02
    -21.493  0.3808E-02  0.3041E-02
    -21.489  0.3809E-02  0.3056E-02
    -21.485  0.3810E-02  0.3071E-02
    -21.481  0.3812E-02  0.3086E-02
    -21.477  0.3813E-02  0.3101E-02
    -21.473  0.3814E-02  0.3117E-02
    -21.469  0.3816E-02  0.3132E-02
    -21.465  0.3817E-02  0.3147E-02
    -21.461  0.3819E-02  0.3162E-02
    -21.457  0.3820E-02  0.3177E-02
    -21.453  0.3821E-02  0.3192E-02
    -21.449  0.3823E-02  0.3208E-02
    -21.445  0.3824E-02  0.3223E-02
    -21.441  0.3826E-02  0.3238E-02
    -21.437  0.3830E-02  0.3253E-02
    -21.433  0.3834E-02  0.3268E-02
    -21.429  0.3839E-02  0.3284E-02
    -21.425  0.3843E-02  0.3299E-02
    -21.421  0.3847E-02  0.3314E-02
    -21.417  0.3851E-02  0.3329E-02
    -21.413  0.3856E-02  0.3345E-02
    -21.409  0.3860E-02  0.3360E-02
    -21.405  0.3864E-02  0.3375E-02
    -21.401  0.3869E-02  0.3391E-02
    -21.397  0.3873E-02  0.3406E-02
    -21.393  0.3877E-02  0.3422E-02
    -21.389  0.3881E-02  0.3437E-02
    -21.385  0.3886E-02  0.3452E-02
    -21.381  0.3890E-02  0.3468E-02
    -21.377  0.3894E-02  0.3483E-02
    -21.373  0.3899E-02  0.3499E-02
    -21.370  0.3903E-02  0.3514E-02
    -21.366  0.3907E-02  0.3530E-02
    -21.362  0.3911E-02  0.3545E-02
    -21.358  0.3916E-02  0.3561E-02
    -21.354  0.3920E-02  0.3577E-02
    -21.350  0.3924E-02  0.3592E-02
    -21.346  0.3929E-02  0.3608E-02
    -21.342  0.3933E-02  0.3623E-02
    -21.338  0.3937E-02  0.3639E-02
    -21.334  0.3941E-02  0.3655E-02
    -21.330  0.3946E-02  0.3670E-02
    -21.326  0.3950E-02  0.3686E-02
    -21.322  0.3954E-02  0.3702E-02
    -21.318  0.3959E-02  0.3717E-02
    -21.314  0.3963E-02  0.3733E-02
    -21.310  0.3967E-02  0.3749E-02
    -21.306  0.3971E-02  0.3765E-02
    -21.302  0.3976E-02  0.3781E-02
    -21.298  0.3980E-02  0.3796E-02
    -21.294  0.3984E-02  0.3812E-02
    -21.290  0.3989E-02  0.3828E-02
    -21.286  0.3993E-02  0.3844E-02
    -21.282  0.3997E-02  0.3860E-02
    -21.278  0.3885E-02  0.3875E-02
    -21.274  0.3882E-02  0.3891E-02
    -21.270  0.3879E-02  0.3906E-02
    -21.266  0.3875E-02  0.3922E-02
    -21.262  0.3872E-02  0.3937E-02
    -21.258  0.3869E-02  0.3952E-02
    -21.254  0.3866E-02  0.3968E-02
    -21.250  0.3863E-02  0.3983E-02
    -21.246  0.3860E-02  0.3998E-02
    -21.242  0.3857E-02  0.4014E-02
    -21.238  0.3854E-02  0.4029E-02
    -21.234  0.3850E-02  0.4044E-02
    -21.230  0.3847E-02  0.4060E-02
    -21.226  0.3844E-02  0.4075E-02
    -21.222  0.3841E-02  0.4090E-02
    -21.218  0.3838E-02  0.4105E-02
    -21.215  0.3835E-02  0.4121E-02
    -21.211  0.3832E-02  0.4136E-02
    -21.207  0.3828E-02  0.4151E-02
    -21.203  0.3825E-02  0.4166E-02
    -21.199  0.3822E-02  0.4182E-02
    -21.195  0.3819E-02  0.4197E-02
    -21.191  0.3816E-02  0.4212E-02
    -21.187  0.3813E-02  0.4227E-02
    -21.183  0.3810E-02  0.4242E-02
    -21.179  0.3806E-02  0.4257E-02
    -21.175  0.3804E-02  0.4272E-02
    -21.171  0.3806E-02  0.4288E-02
    -21.167  0.3808E-02  0.4303E-02
    -21.163  0.3809E-02  0.4318E-02
    -21.159  0.3811E-02  0.4333E-02
    -21.155  0.3813E-02  0.4348E-02
    -21.151  0.3815E-02  0.4363E-02
    -21.147  0.3816E-02  0.4378E-02
    -21.143  0.3818E-02  0.4394E-02
    -21.139  0.3820E-02  0.4409E-02
    -21.135  0.3822E-02  0.4424E-02
    -21.131  0.3824E-02  0.4439E-02
    -21.127  0.3825E-02  0.4454E-02
    -21.123  0.3827E-02  0.4470E-02
    -21.119  0.3829E-02  0.4485E-02
    -21.115  0.3831E-02  0.4500E-02
    -21.111  0.3832E-02  0.4515E-02
    -21.107  0.3834E-02  0.4531E-02
    -21.103  0.3836E-02  0.4546E-02
    -21.099  0.3838E-02  0.4561E-02
    -21.095  0.3839E-02  0.4576E-02
    -21.091  0.3841E-02  0.4592E-02
    -21.087  0.3843E-02  0.4607E-02
    -21.083  0.3845E-02  0.4622E-02
    -21.079  0.3847E-02  0.4637E-02
    -21.075  0.3848E-02  0.4653E-02
    -21.071  0.3850E-02  0.4668E-02
    -21.067  0.3852E-02  0.4683E-02
    -21.063  0.3854E-02  0.4699E-02
    -21.060  0.3855E-02  0.4714E-02
    -21.056  0.3857E-02  0.4729E-02
    -21.052  0.3859E-02  0.4745E-02
    -21.048  0.3861E-02  0.4760E-02
    -21.044  0.3862E-02  0.4775E-02
    -21.040  0.3864E-02  0.4791E-02
    -21.036  0.3866E-02  0.4806E-02
    -21.032  0.3868E-02  0.4821E-02
    -21.028  0.3869E-02  0.4837E-02
    -21.024  0.3871E-02  0.4852E-02
    -21.020  0.3873E-02  0.4867E-02
    -21.016  0.3875E-02  0.4883E-02
    -21.012  0.3877E-02  0.4898E-02
    -21.008  0.3878E-02  0.4914E-02
    -21.004  0.3880E-02  0.4929E-02
    -21.000  0.3882E-02  0.4944E-02
    -20.996  0.3884E-02  0.4960E-02
    -20.992  0.3885E-02  0.4975E-02
    -20.988  0.3887E-02  0.4991E-02
    -20.984  0.3889E-02  0.5006E-02
    -20.980  0.3891E-02  0.5022E-02
    -20.976  0.3892E-02  0.5037E-02
    -20.972  0.3894E-02  0.5053E-02
    -20.968  0.3896E-02  0.5068E-02
    -20.964  0.3898E-02  0.5084E-02
    -20.960  0.3900E-02  0.5099E-02
    -20.956  0.3903E-02  0.5115E-02
    -20.952  0.3906E-02  0.5130E-02
    -20.948  0.3909E-02  0.5146E-02
    -20.944  0.3912E-02  0.5161E-02
    -20.940  0.3915E-02  0.5177E-02
    -20.936  0.3918E-02  0.5192E-02
    -20.932  0.3921E-02  0.5208E-02
    -20.928  0.3924E-02  0.5224E-02
    -20.924  0.3927E-02  0.5239E-02
    -20.920  0.3930E-02  0.5255E-02
    -20.916  0.3932E-02  0.5270E-02
    -20.912  0.3935E-02  0.5286E-02
    -20.908  0.3938E-02  0.5302E-02
    -20.905  0.3941E-02  0.5317E-02
    -20.901  0.3944E-02  0.5333E-02
    -20.897  0.3947E-02  0.5349E-02
    -20.893  0.3950E-02  0.5364E-02
    -20.889  0.3953E-02  0.5380E-02
    -20.885  0.3956E-02  0.5396E-02
    -20.881  0.3959E-02  0.5411E-02
    -20.877  0.3962E-02  0.5427E-02
    -20.873  0.3965E-02  0.5443E-02
    -20.869  0.3967E-02  0.5459E-02
    -20.865  0.3970E-02  0.5474E-02
    -20.861  0.3973E-02  0.5490E-02
    -20.857  0.3975E-02  0.5506E-02
    -20.853  0.3967E-02  0.5522E-02
    -20.849  0.3959E-02  0.5538E-02
    -20.845  0.3951E-02  0.5553E-02
    -20.841  0.3942E-02  0.5569E-02
    -20.837  0.3934E-02  0.5585E-02
    -20.833  0.3926E-02  0.5600E-02
    -20.829  0.3918E-02  0.5616E-02
    -20.825  0.3910E-02  0.5631E-02
    -20.821  0.3902E-02  0.5647E-02
    -20.817  0.3894E-02  0.5662E-02
    -20.813  0.3886E-02  0.5678E-02
    -20.809  0.3878E-02  0.5693E-02
    -20.805  0.3870E-02  0.5709E-02
    -20.801  0.3868E-02  0.5724E-02
    -20.797  0.3868E-02  0.5739E-02
    -20.793  0.3867E-02  0.5755E-02
    -20.789  0.3867E-02  0.5770E-02
    -20.785  0.3867E-02  0.5786E-02
    -20.781  0.3866E-02  0.5801E-02
    -20.777  0.3866E-02  0.5816E-02
    -20.773  0.3866E-02  0.5832E-02
    -20.769  0.3866E-02  0.5847E-02
    -20.765  0.3865E-02  0.5862E-02
    -20.761  0.3865E-02  0.5878E-02
    -20.757  0.3865E-02  0.5893E-02
    -20.753  0.3865E-02  0.5908E-02
    -20.750  0.3864E-02  0.5924E-02
    -20.746  0.3864E-02  0.5939E-02
    -20.742  0.3864E-02  0.5955E-02
    -20.738  0.3863E-02  0.5970E-02
    -20.734  0.3863E-02  0.5985E-02
    -20.730  0.3863E-02  0.6001E-02
    -20.726  0.3863E-02  0.6016E-02
    -20.722  0.3862E-02  0.6031E-02
    -20.718  0.3862E-02  0.6047E-02
    -20.714  0.3862E-02  0.6062E-02
    -20.710  0.3862E-02  0.6077E-02
    -20.706  0.3861E-02  0.6093E-02
    -20.702  0.3861E-02  0.6108E-02
    -20.698  0.3861E-02  0.6123E-02
    -20.694  0.3861E-02  0.6139E-02
    -20.690  0.3860E-02  0.6154E-02
    -20.686  0.3860E-02  0.6169E-02
    -20.682  0.3860E-02  0.6185E-02
    -20.678  0.3859E-02  0.6200E-02
    -20.674  0.3859E-02  0.6215E-02
    -20.670  0.3859E-02  0.6231E-02
    -20.666  0.3859E-02  0.6246E-02
    -20.662  0.3858E-02  0.6261E-02
    -20.658  0.3858E-02  0.6277E-02
    -20.654  0.3858E-02  0.6292E-02
    -20.650  0.3858E-02  0.6307E-02
    -20.646  0.3857E-02  0.6323E-02