C:graphene                              
           1
     2.130000   -1.229756    0.000000
     2.130000    1.229756    0.000000
     0.000000    0.000000   20.000000
   C 
   2
Direct configuration=     1
   0.00000000  0.00000000  0.00000000
   0.33333300  0.33333300  0.00000000
Direct configuration=     2
   0.00000000  0.00000000  0.00000000
   0.33333300  0.33333300  0.00000000
Direct configuration=     3
   0.00000000  0.00000000  0.00000000
   0.33333300  0.33333300  0.00000000
Direct configuration=     4
   0.00000000  0.00000000  0.00000000
   0.33333300  0.33333300  0.00000000
Direct configuration=     5
   0.00000000  0.00000000  0.00000000
   0.33333300  0.33333300  0.00000000
Direct configuration=     6
   0.00000000  0.00000000  0.00000000
   0.33333300  0.33333300  0.00000000
Direct configuration=     7
   0.00000000  0.00000000  0.00000000
   0.33333300  0.33333300  0.00000000
Direct configuration=     8
   0.00000000  0.00000000  0.00000000
   0.33333300  0.33333300  0.00000000
Direct configuration=     9
   0.00000000  0.00000000  0.00000000
   0.33333300  0.33333300  0.00000000
Direct configuration=    10
   0.00000000  0.00000000  0.00000000
   0.33333300  0.33333300  0.00000000
Direct configuration=    11
   0.00000000  0.00000000  0.00000000
   0.33333300  0.33333300  0.00000000
Direct configuration=    12
   0.00000000  0.00000000  0.00000000
   0.33333300  0.33333300  0.00000000
Direct configuration=    13
   0.00000000  0.00000000  0.00000000
   0.33333300  0.33333300  0.00000000
Direct configuration=    14
   0.00000000  0.00000000  0.00000000
   0.33333300  0.33333300  0.00000000
Direct configuration=    15
   0.00000000  0.00000000  0.00000000
   0.33333300  0.33333300  0.00000000
Direct configuration=    16
   0.00000000  0.00000000  0.00000000
   0.33333300  0.33333300  0.00000000
Direct configuration=    17
   0.00000000  0.00000000  0.00000000
   0.33333300  0.33333300  0.00000000
Direct configuration=    18
   0.00000000  0.00000000  0.00000000
   0.33333300  0.33333300  0.00000000
Direct configuration=    19
   0.00000000  0.00000000  0.00000000
   0.33333300  0.33333300  0.00000000
Direct configuration=    20
   0.00000000  0.00000000  0.00000000
   0.33333300  0.33333300  0.00000000
Direct configuration=    21
   0.00000000  0.00000000  0.00000000
   0.33333300  0.33333300  0.00000000
Direct configuration=    22
   0.00000000  0.00000000  0.00000000
   0.33333300  0.33333300  0.00000000
Direct configuration=    23
   0.00000000  0.00000000  0.00000000
   0.33333300  0.33333300  0.00000000
Direct configuration=    24
   0.00000000  0.00000000  0.00000000
   0.33333300  0.33333300  0.00000000
Direct configuration=    25
   0.00000000  0.00000000  0.00000000
   0.33333300  0.33333300  0.00000000
Direct configuration=    26
   0.00000000  0.00000000  0.00000000
   0.33333300  0.33333300  0.00000000
Direct configuration=    27
   0.00000000  0.00000000  0.00000000
   0.33333300  0.33333300  0.00000000
Direct configuration=    28
   0.00000000  0.00000000  0.00000000
   0.33333300  0.33333300  0.00000000
Direct configuration=    29
   0.00000000  0.00000000  0.00000000
   0.33333300  0.33333300  0.00000000
Direct configuration=    30
   0.00000000  0.00000000  0.00000000
   0.33333300  0.33333300  0.00000000
Direct configuration=    31
   0.00000000  0.00000000  0.00000000
   0.33333300  0.33333300  0.00000000
Direct configuration=    32
   0.00000000  0.00000000  0.00000000
   0.33333300  0.33333300  0.00000000
Direct configuration=    33
   0.00000000  0.00000000  0.00000000
   0.33333300  0.33333300  0.00000000
Direct configuration=    34
   0.00000000  0.00000000  0.00000000
   0.33333300  0.33333300  0.00000000
Direct configuration=    35
   0.00000000  0.00000000  0.00000000
   0.33333300  0.33333300  0.00000000
Direct configuration=    36
   0.00000000  0.00000000  0.00000000
   0.33333300  0.33333300  0.00000000
Direct configuration=    37
   0.00000000  0.00000000  0.00000000
   0.33333300  0.33333300  0.00000000
Direct configuration=    38
   0.00000000  0.00000000  0.00000000
   0.33333300  0.33333300  0.00000000
Direct configuration=    39
   0.00000000  0.00000000  0.00000000
   0.33333300  0.33333300  0.00000000
Direct configuration=    40
   0.00000000  0.00000000  0.00000000
   0.33333300  0.33333300  0.00000000
Direct configuration=    41
   0.00000000  0.00000000  0.00000000
   0.33333300  0.33333300  0.00000000
Direct configuration=    42
   0.00000000  0.00000000  0.00000000
   0.33333300  0.33333300  0.00000000
Direct configuration=    43
   0.00000000  0.00000000  0.00000000
   0.33333300  0.33333300  0.00000000
Direct configuration=    44
   0.00000000  0.00000000  0.00000000
   0.33333300  0.33333300  0.00000000
Direct configuration=    45
   0.00000000  0.00000000  0.00000000
   0.33333300  0.33333300  0.00000000
Direct configuration=    46
   0.00000000  0.00000000  0.00000000
   0.33333300  0.33333300  0.00000000
Direct configuration=    47
   0.00000000  0.00000000  0.00000000
   0.33333300  0.33333300  0.00000000
Direct configuration=    48
   0.00000000  0.00000000  0.00000000
   0.33333300  0.33333300  0.00000000
Direct configuration=    49
   0.00000000  0.00000000  0.00000000
   0.33333300  0.33333300  0.00000000
Direct configuration=    50
   0.00000000  0.00000000  0.00000000
   0.33333300  0.33333300  0.00000000
Direct configuration=    51
   0.00000000  0.00000000  0.00000000
   0.33333300  0.33333300  0.00000000
Direct configuration=    52
   0.00000000  0.00000000  0.00000000
   0.33333300  0.33333300  0.00000000
Direct configuration=    53
   0.00000000  0.00000000  0.00000000
   0.33333300  0.33333300  0.00000000
Direct configuration=    54
   0.00000000  0.00000000  0.00000000
   0.33333300  0.33333300  0.00000000
Direct configuration=    55
   0.00000000  0.00000000  0.00000000
   0.33333300  0.33333300  0.00000000
Direct configuration=    56
   0.00000000  0.00000000  0.00000000
   0.33333300  0.33333300  0.00000000
Direct configuration=    57
   0.00000000  0.00000000  0.00000000
   0.33333300  0.33333300  0.00000000
Direct configuration=    58
   0.00000000  0.00000000  0.00000000
   0.33333300  0.33333300  0.00000000
Direct configuration=    59
   0.00000000  0.00000000  0.00000000
   0.33333300  0.33333300  0.00000000
Direct configuration=    60
   0.00000000  0.00000000  0.00000000
   0.33333300  0.33333300  0.00000000
Direct configuration=    61
   0.00000000  0.00000000  0.00000000
   0.33333300  0.33333300  0.00000000
Direct configuration=    62
   0.00000000  0.00000000  0.00000000
   0.33333300  0.33333300  0.00000000
Direct configuration=    63
   0.00000000  0.00000000  0.00000000
   0.33333300  0.33333300  0.00000000
Direct configuration=    64
   0.00000000  0.00000000  0.00000000
   0.33333300  0.33333300  0.00000000
Direct configuration=    65
   0.00000000  0.00000000  0.00000000
   0.33333300  0.33333300  0.00000000
Direct configuration=    66
   0.00000000  0.00000000  0.00000000
   0.33333300  0.33333300  0.00000000
Direct configuration=    67
   0.00000000  0.00000000  0.00000000
   0.33333300  0.33333300  0.00000000
Direct configuration=    68
   0.00000000  0.00000000  0.00000000
   0.33333300  0.33333300  0.00000000
Direct configuration=    69
   0.00000000  0.00000000  0.00000000
   0.33333300  0.33333300  0.00000000
Direct configuration=    70
   0.00000000  0.00000000  0.00000000
   0.33333300  0.33333300  0.00000000
Direct configuration=    71
   0.00000000  0.00000000  0.00000000
   0.33333300  0.33333300  0.00000000
Direct configuration=    72
   0.00000000  0.00000000  0.00000000
   0.33333300  0.33333300  0.00000000
Direct configuration=    73
   0.00000000  0.00000000  0.00000000
   0.33333300  0.33333300  0.00000000
Direct configuration=    74
   0.00000000  0.00000000  0.00000000
   0.33333300  0.33333300  0.00000000
Direct configuration=    75
   0.00000000  0.00000000  0.00000000
   0.33333300  0.33333300  0.00000000
Direct configuration=    76
   0.00000000  0.00000000  0.00000000
   0.33333300  0.33333300  0.00000000
Direct configuration=    77
   0.00000000  0.00000000  0.00000000
   0.33333300  0.33333300  0.00000000
Direct configuration=    78
   0.00000000  0.00000000  0.00000000
   0.33333300  0.33333300  0.00000000
Direct configuration=    79
   0.00000000  0.00000000  0.00000000
   0.33333300  0.33333300  0.00000000
Direct configuration=    80
   0.00000000  0.00000000  0.00000000
   0.33333300  0.33333300  0.00000000
