nqpoint: 303    
npath: 3      
segment_nqpoint:
- 101
- 101
- 101
reciprocal_lattice:
- [   0.23474178,  -0.40658472,   0.00000000 ] # a*
- [   0.23474178,   0.40658472,   0.00000000 ] # b*
- [   0.00000000,   0.00000000,   0.05000000 ] # c*
natom: 2      
lattice:
- [     2.130000000000000,    -1.229756000000000,     0.000000000000000 ] # a
- [     2.130000000000000,     1.229756000000000,     0.000000000000000 ] # b
- [     0.000000000000000,     0.000000000000000,    20.000000000000000 ] # c
points:
- symbol: C  # 1
  coordinates: [  0.000000000000000,  0.000000000000000,  0.000000000000000 ]
  mass: 12.010700
- symbol: C  # 2
  coordinates: [  0.333333000000000,  0.333333000000000,  0.000000000000000 ]
  mass: 12.010700
supercell_matrix:
- [    9,    0,    0 ]
- [    0,    9,    0 ]
- [    0,    0,    1 ]

phonon:
- q-position: [    0.0000000,    0.0000000,    0.0000000 ]
  distance:    0.0000000
  band:
  - # 1
    frequency:   -0.0000014493
  - # 2
    frequency:   -0.0000011817
  - # 3
    frequency:    0.0046571623
  - # 4
    frequency:   26.1521435309
  - # 5
    frequency:   45.4647886724
  - # 6
    frequency:   45.4647910217

- q-position: [    0.0050000,    0.0050000,    0.0000000 ]
  distance:    0.0023474
  band:
  - # 1
    frequency:   -0.0648479215
  - # 2
    frequency:    0.3131249392
  - # 3
    frequency:    0.5222664674
  - # 4
    frequency:   26.1517831911
  - # 5
    frequency:   45.4650929769
  - # 6
    frequency:   45.4664944948

- q-position: [    0.0100000,    0.0100000,    0.0000000 ]
  distance:    0.0046948
  band:
  - # 1
    frequency:   -0.1296838007
  - # 2
    frequency:    0.6261360511
  - # 3
    frequency:    1.0444160327
  - # 4
    frequency:   26.1507006184
  - # 5
    frequency:   45.4659954089
  - # 6
    frequency:   45.4716050473

- q-position: [    0.0150000,    0.0150000,    0.0000000 ]
  distance:    0.0070423
  band:
  - # 1
    frequency:   -0.1939376172
  - # 2
    frequency:    0.9389196407
  - # 3
    frequency:    1.5663319370
  - # 4
    frequency:   26.1488911579
  - # 5
    frequency:   45.4674864568
  - # 6
    frequency:   45.4801011889

- q-position: [    0.0200000,    0.0200000,    0.0000000 ]
  distance:    0.0093897
  band:
  - # 1
    frequency:   -0.2573845564
  - # 2
    frequency:    1.2513622774
  - # 3
    frequency:    2.0878977084
  - # 4
    frequency:   26.1463470690
  - # 5
    frequency:   45.4695466766
  - # 6
    frequency:   45.4919508396

- q-position: [    0.0250000,    0.0250000,    0.0000000 ]
  distance:    0.0117371
  band:
  - # 1
    frequency:   -0.3197620358
  - # 2
    frequency:    1.5633509279
  - # 3
    frequency:    2.6089973048
  - # 4
    frequency:   26.1430575501
  - # 5
    frequency:   45.4721489736
  - # 6
    frequency:   45.5071092655

- q-position: [    0.0300000,    0.0300000,    0.0000000 ]
  distance:    0.0140845
  band:
  - # 1
    frequency:   -0.3807959914
  - # 2
    frequency:    1.8747730895
  - # 3
    frequency:    3.1295152566
  - # 4
    frequency:   26.1390087750
  - # 5
    frequency:   45.4752587276
  - # 6
    frequency:   45.5255192557

- q-position: [    0.0350000,    0.0350000,    0.0000000 ]
  distance:    0.0164319
  band:
  - # 1
    frequency:   -0.4402030379
  - # 2
    frequency:    2.1855169242
  - # 3
    frequency:    3.6493368087
  - # 4
    frequency:   26.1341839379
  - # 5
    frequency:   45.4788339539
  - # 6
    frequency:   45.5471113466

- q-position: [    0.0400000,    0.0400000,    0.0000000 ]
  distance:    0.0187793
  band:
  - # 1
    frequency:   -0.4976893908
  - # 2
    frequency:    2.4954713929
  - # 3
    frequency:    4.1683480626
  - # 4
    frequency:   26.1285633087
  - # 5
    frequency:   45.4828254972
  - # 6
    frequency:   45.5718040931

- q-position: [    0.0450000,    0.0450000,    0.0000000 ]
  distance:    0.0211268
  band:
  - # 1
    frequency:   -0.5529487847
  - # 2
    frequency:    2.8045263919
  - # 3
    frequency:    4.6864361165
  - # 4
    frequency:   26.1221242970
  - # 5
    frequency:   45.4871772583
  - # 6
    frequency:   45.5995043850

- q-position: [    0.0500000,    0.0500000,    0.0000000 ]
  distance:    0.0234742
  band:
  - # 1
    frequency:   -0.6056597417
  - # 2
    frequency:    3.1125728888
  - # 3
    frequency:    5.2034892056
  - # 4
    frequency:   26.1148415262
  - # 5
    frequency:   45.4918264517
  - # 6
    frequency:   45.6301078052

- q-position: [    0.0550000,    0.0550000,    0.0000000 ]
  distance:    0.0258216
  band:
  - # 1
    frequency:   -0.6554821694
  - # 2
    frequency:    3.4195030604
  - # 3
    frequency:    5.7193968402
  - # 4
    frequency:   26.1066869150
  - # 5
    frequency:   45.4967038933
  - # 6
    frequency:   45.6634990277

- q-position: [    0.0600000,    0.0600000,    0.0000000 ]
  distance:    0.0281690
  band:
  - # 1
    frequency:   -0.7020531297
  - # 2
    frequency:    3.7252104312
  - # 3
    frequency:    6.2340499434
  - # 4
    frequency:   26.0976297682
  - # 5
    frequency:   45.5017343158
  - # 6
    frequency:   45.6995522530

- q-position: [    0.0650000,    0.0650000,    0.0000000 ]
  distance:    0.0305164
  band:
  - # 1
    frequency:   -0.7449815214
  - # 2
    frequency:    4.0295900121
  - # 3
    frequency:    6.7473409862
  - # 4
    frequency:   26.0876368746
  - # 5
    frequency:   45.5068367108
  - # 6
    frequency:   45.7381316780

- q-position: [    0.0700000,    0.0700000,    0.0000000 ]
  distance:    0.0328638
  band:
  - # 1
    frequency:   -0.7838412880
  - # 2
    frequency:    4.3325384408
  - # 3
    frequency:    7.2591641220
  - # 4
    frequency:   26.0766726127
  - # 5
    frequency:   45.5119246944
  - # 6
    frequency:   45.7790919963

- q-position: [    0.0750000,    0.0750000,    0.0000000 ]
  distance:    0.0352113
  band:
  - # 1
    frequency:   -0.8181625894
  - # 2
    frequency:    4.6339541217
  - # 3
    frequency:    7.7694153176
  - # 4
    frequency:   26.0646990636
  - # 5
    frequency:   45.5169068964
  - # 6
    frequency:   45.8222789271

- q-position: [    0.0800000,    0.0800000,    0.0000000 ]
  distance:    0.0375587
  band:
  - # 1
    frequency:   -0.8474200882
  - # 2
    frequency:    4.9337373664
  - # 3
    frequency:    8.2779924832
  - # 4
    frequency:   26.0516761292
  - # 5
    frequency:   45.5216873694
  - # 6
    frequency:   45.8675297681

- q-position: [    0.0850000,    0.0850000,    0.0000000 ]
  distance:    0.0399061
  band:
  - # 1
    frequency:   -0.8710170545
  - # 2
    frequency:    5.2317905337
  - # 3
    frequency:    8.7847955988
  - # 4
    frequency:   26.0375616577
  - # 5
    frequency:   45.5261660154
  - # 6
    frequency:   45.9146739702

- q-position: [    0.0900000,    0.0900000,    0.0000000 ]
  distance:    0.0422535
  band:
  - # 1
    frequency:   -0.8882632285
  - # 2
    frequency:    5.5280181690
  - # 3
    frequency:    9.2897268384
  - # 4
    frequency:   26.0223115735
  - # 5
    frequency:   45.5302390300
  - # 6
    frequency:   45.9635337295

- q-position: [    0.0950000,    0.0950000,    0.0000000 ]
  distance:    0.0446009
  band:
  - # 1
    frequency:   -0.8983430508
  - # 2
    frequency:    5.8223271432
  - # 3
    frequency:    9.7926906899
  - # 4
    frequency:   26.0058800123
  - # 5
    frequency:   45.5337993596
  - # 6
    frequency:   46.0139245936

- q-position: [    0.1000000,    0.1000000,    0.0000000 ]
  distance:    0.0469484
  band:
  - # 1
    frequency:   -0.9002684217
  - # 2
    frequency:    6.1146267888
  - # 3
    frequency:   10.2935940727
  - # 4
    frequency:   25.9882194606
  - # 5
    frequency:   45.5367371705
  - # 6
    frequency:   46.0656560798

- q-position: [    0.1050000,    0.1050000,    0.0000000 ]
  distance:    0.0492958
  band:
  - # 1
    frequency:   -0.8928053788
  - # 2
    frequency:    6.4048290350
  - # 3
    frequency:   10.7923464501
  - # 4
    frequency:   25.9692808989
  - # 5
    frequency:   45.5389403286
  - # 6
    frequency:   46.1185323004

- q-position: [    0.1100000,    0.1100000,    0.0000000 ]
  distance:    0.0516432
  band:
  - # 1
    frequency:   -0.8743541103
  - # 2
    frequency:    6.6928485390
  - # 3
    frequency:   11.2888599383
  - # 4
    frequency:   25.9490139483
  - # 5
    frequency:   45.5402948853
  - # 6
    frequency:   46.1723525926

- q-position: [    0.1150000,    0.1150000,    0.0000000 ]
  distance:    0.0539906
  band:
  - # 1
    frequency:   -0.8427389219
  - # 2
    frequency:    6.9786028146
  - # 3
    frequency:   11.7830494102
  - # 4
    frequency:   25.9273670197
  - # 5
    frequency:   45.5406855709
  - # 6
    frequency:   46.2269121501

- q-position: [    0.1200000,    0.1200000,    0.0000000 ]
  distance:    0.0563380
  band:
  - # 1
    frequency:   -0.7948063400
  - # 2
    frequency:    7.2620123560
  - # 3
    frequency:   12.2748325941
  - # 4
    frequency:   25.9042874658
  - # 5
    frequency:   45.5399962898
  - # 6
    frequency:   46.2820026539

- q-position: [    0.1250000,    0.1250000,    0.0000000 ]
  distance:    0.0586854
  band:
  - # 1
    frequency:   -0.7255543953
  - # 2
    frequency:    7.5430007564
  - # 3
    frequency:   12.7641301670
  - # 4
    frequency:   25.8797217343
  - # 5
    frequency:   45.5381106186
  - # 6
    frequency:   46.3374128979

- q-position: [    0.1300000,    0.1300000,    0.0000000 ]
  distance:    0.0610329
  band:
  - # 1
    frequency:   -0.6258554426
  - # 2
    frequency:    7.8214948209
  - # 3
    frequency:   13.2508658421
  - # 4
    frequency:   25.8536155230
  - # 5
    frequency:   45.5349123040
  - # 6
    frequency:   46.3929294084

- q-position: [    0.1350000,    0.1350000,    0.0000000 ]
  distance:    0.0633803
  band:
  - # 1
    frequency:   -0.4741422246
  - # 2
    frequency:    8.0974246731
  - # 3
    frequency:   13.7349664502
  - # 4
    frequency:   25.8259139357
  - # 5
    frequency:   45.5302857587
  - # 6
    frequency:   46.4483370545

- q-position: [    0.1400000,    0.1400000,    0.0000000 ]
  distance:    0.0657277
  band:
  - # 1
    frequency:   -0.1517391141
  - # 2
    frequency:    8.3707238531
  - # 3
    frequency:   14.2163620136
  - # 4
    frequency:   25.7965616387
  - # 5
    frequency:   45.5241165537
  - # 6
    frequency:   46.5034196472

- q-position: [    0.1450000,    0.1450000,    0.0000000 ]
  distance:    0.0680751
  band:
  - # 1
    frequency:    0.4652496766
  - # 2
    frequency:    8.6413294073
  - # 3
    frequency:   14.6949858143
  - # 4
    frequency:   25.7655030178
  - # 5
    frequency:   45.5162919063
  - # 6
    frequency:   46.5579605241

- q-position: [    0.1500000,    0.1500000,    0.0000000 ]
  distance:    0.0704225
  band:
  - # 1
    frequency:    0.7046030251
  - # 2
    frequency:    8.9091819691
  - # 3
    frequency:   15.1707744533
  - # 4
    frequency:   25.7326823346
  - # 5
    frequency:   45.5067011616
  - # 6
    frequency:   46.6117431203

- q-position: [    0.1550000,    0.1550000,    0.0000000 ]
  distance:    0.0727700
  band:
  - # 1
    frequency:    0.9054612338
  - # 2
    frequency:    9.1742258284
  - # 3
    frequency:   15.6436679035
  - # 4
    frequency:   25.6980438829
  - # 5
    frequency:   45.4952362656
  - # 6
    frequency:   46.6645515210

- q-position: [    0.1600000,    0.1600000,    0.0000000 ]
  distance:    0.0751174
  band:
  - # 1
    frequency:    1.0906536512
  - # 2
    frequency:    9.4364089895
  - # 3
    frequency:   16.1136095532
  - # 4
    frequency:   25.6615321443
  - # 5
    frequency:   45.4817922308
  - # 6
    frequency:   46.7161709968

- q-position: [    0.1650000,    0.1650000,    0.0000000 ]
  distance:    0.0774648
  band:
  - # 1
    frequency:    1.2682126687
  - # 2
    frequency:    9.6956832178
  - # 3
    frequency:   16.5805462423
  - # 4
    frequency:   25.6230919427
  - # 5
    frequency:   45.4662675912
  - # 6
    frequency:   46.7663885184

- q-position: [    0.1700000,    0.1700000,    0.0000000 ]
  distance:    0.0798122
  band:
  - # 1
    frequency:    1.4419733865
  - # 2
    frequency:    9.9520040711
  - # 3
    frequency:   17.0444282887
  - # 4
    frequency:   25.5826685981
  - # 5
    frequency:   45.4485648461
  - # 6
    frequency:   46.8149932511

- q-position: [    0.1750000,    0.1750000,    0.0000000 ]
  distance:    0.0821596
  band:
  - # 1
    frequency:    1.6140678819
  - # 2
    frequency:   10.2053309182
  - # 3
    frequency:   17.5052095063
  - # 4
    frequency:   25.5402080783
  - # 5
    frequency:   45.4285908930
  - # 6
    frequency:   46.8617770273

- q-position: [    0.1800000,    0.1800000,    0.0000000 ]
  distance:    0.0845070
  band:
  - # 1
    frequency:    1.7857949151
  - # 2
    frequency:   10.4556269412
  - # 3
    frequency:   17.9628472133
  - # 4
    frequency:   25.4956571503
  - # 5
    frequency:   45.4062574476
  - # 6
    frequency:   46.9065347969

- q-position: [    0.1850000,    0.1850000,    0.0000000 ]
  distance:    0.0868545
  band:
  - # 1
    frequency:    1.9579940005
  - # 2
    frequency:   10.7028591217
  - # 3
    frequency:   18.4173022309
  - # 4
    frequency:   25.4489635294
  - # 5
    frequency:   45.3814814509
  - # 6
    frequency:   46.9490650539

- q-position: [    0.1900000,    0.1900000,    0.0000000 ]
  distance:    0.0892019
  band:
  - # 1
    frequency:    2.1312295650
  - # 2
    frequency:   10.9469982100
  - # 3
    frequency:   18.8685388728
  - # 4
    frequency:   25.4000760270
  - # 5
    frequency:   45.3541854621
  - # 6
    frequency:   46.9891702405

- q-position: [    0.1950000,    0.1950000,    0.0000000 ]
  distance:    0.0915493
  band:
  - # 1
    frequency:    2.3058906860
  - # 2
    frequency:   11.1880186762
  - # 3
    frequency:   19.3165249235
  - # 4
    frequency:   25.3489446967
  - # 5
    frequency:   45.3242980379
  - # 6
    frequency:   47.0266571263

- q-position: [    0.2000000,    0.2000000,    0.0000000 ]
  distance:    0.0938967
  band:
  - # 1
    frequency:    2.4822491065
  - # 2
    frequency:   11.4258986423
  - # 3
    frequency:   19.7612316078
  - # 4
    frequency:   25.2955209795
  - # 5
    frequency:   45.2917540972
  - # 6
    frequency:   47.0613371643

- q-position: [    0.2050000,    0.2050000,    0.0000000 ]
  distance:    0.0962441
  band:
  - # 1
    frequency:    2.6604949095
  - # 2
    frequency:   11.6606197948
  - # 3
    frequency:   20.2026335492
  - # 4
    frequency:   25.2397578469
  - # 5
    frequency:   45.2564952702
  - # 6
    frequency:   47.0930268223

- q-position: [    0.2100000,    0.2100000,    0.0000000 ]
  distance:    0.0985915
  band:
  - # 1
    frequency:    2.8407594563
  - # 2
    frequency:   11.8921672772
  - # 3
    frequency:   20.6407087181
  - # 4
    frequency:   25.1816099433
  - # 5
    frequency:   45.2184702331
  - # 6
    frequency:   47.1215478902

- q-position: [    0.2150000,    0.2150000,    0.0000000 ]
  distance:    0.1009390
  band:
  - # 1
    frequency:    3.0231306829
  - # 2
    frequency:   12.1205295617
  - # 3
    frequency:   21.0754383698
  - # 4
    frequency:   25.1210337268
  - # 5
    frequency:   45.1776350271
  - # 6
    frequency:   47.1467277639

- q-position: [    0.2200000,    0.2200000,    0.0000000 ]
  distance:    0.1032864
  band:
  - # 1
    frequency:    3.2076636169
  - # 2
    frequency:   12.3456982989
  - # 3
    frequency:   21.5068069723
  - # 4
    frequency:   25.0579876099
  - # 5
    frequency:   45.1339533616
  - # 6
    frequency:   47.1683997048

- q-position: [    0.2250000,    0.2250000,    0.0000000 ]
  distance:    0.1056338
  band:
  - # 1
    frequency:    3.3943877949
  - # 2
    frequency:   12.5676681465
  - # 3
    frequency:   21.9348021233
  - # 4
    frequency:   24.9924320991
  - # 5
    frequency:   45.0873969018
  - # 6
    frequency:   47.1864030759

- q-position: [    0.2300000,    0.2300000,    0.0000000 ]
  distance:    0.1079812
  band:
  - # 1
    frequency:    3.5833126102
  - # 2
    frequency:   12.7864365755
  - # 3
    frequency:   22.3594144568
  - # 4
    frequency:   24.9243299349
  - # 5
    frequency:   45.0379455406
  - # 6
    frequency:   47.2005835555

- q-position: [    0.2350000,    0.2350000,    0.0000000 ]
  distance:    0.1103286
  band:
  - # 1
    frequency:    3.7744312395
  - # 2
    frequency:   13.0020036539
  - # 3
    frequency:   22.7806375409
  - # 4
    frequency:   24.8536462319
  - # 5
    frequency:   44.9855876545
  - # 6
    frequency:   47.2107933270

- q-position: [    0.2400000,    0.2400000,    0.0000000 ]
  distance:    0.1126761
  band:
  - # 1
    frequency:    3.9677235722
  - # 2
    frequency:   13.2143718083
  - # 3
    frequency:   23.1984677637
  - # 4
    frequency:   24.7803486198
  - # 5
    frequency:   44.9303203430
  - # 6
    frequency:   47.2168912475

- q-position: [    0.2450000,    0.2450000,    0.0000000 ]
  distance:    0.1150235
  band:
  - # 1
    frequency:    4.1631584241
  - # 2
    frequency:   13.4235455632
  - # 3
    frequency:   23.6129042105
  - # 4
    frequency:   24.7044073864
  - # 5
    frequency:   44.8721496529
  - # 6
    frequency:   47.2187429943

- q-position: [    0.2500000,    0.2500000,    0.0000000 ]
  distance:    0.1173709
  band:
  - # 1
    frequency:    4.3606952285
  - # 2
    frequency:   13.6295312582
  - # 3
    frequency:   24.0239485318
  - # 4
    frequency:   24.6257956222
  - # 5
    frequency:   44.8110907848
  - # 6
    frequency:   47.2162211902

- q-position: [    0.2550000,    0.2550000,    0.0000000 ]
  distance:    0.1197183
  band:
  - # 1
    frequency:    4.5602853378
  - # 2
    frequency:   13.8323367430
  - # 3
    frequency:   24.4316048006
  - # 4
    frequency:   24.5444893691
  - # 5
    frequency:   44.7471682848
  - # 6
    frequency:   47.2092055082

- q-position: [    0.2600000,    0.2600000,    0.0000000 ]
  distance:    0.1220657
  band:
  - # 1
    frequency:    4.7618730309
  - # 2
    frequency:   14.0319710524
  - # 3
    frequency:   24.4604677725
  - # 4
    frequency:   24.8358793622
  - # 5
    frequency:   44.6804162185
  - # 6
    frequency:   47.1975827563

- q-position: [    0.2650000,    0.2650000,    0.0000000 ]
  distance:    0.1244131
  band:
  - # 1
    frequency:    4.9653962929
  - # 2
    frequency:   14.2284440598
  - # 3
    frequency:   24.3737132390
  - # 4
    frequency:   25.2367806744
  - # 5
    frequency:   44.6108783284
  - # 6
    frequency:   47.1812469430

- q-position: [    0.2700000,    0.2700000,    0.0000000 ]
  distance:    0.1267606
  band:
  - # 1
    frequency:    5.1707874179
  - # 2
    frequency:   14.4217661124
  - # 3
    frequency:   24.2842116011
  - # 4
    frequency:   25.6343191394
  - # 5
    frequency:   44.5386081739
  - # 6
    frequency:   47.1600993244

- q-position: [    0.2750000,    0.2750000,    0.0000000 ]
  distance:    0.1291080
  band:
  - # 1
    frequency:    5.3779734696
  - # 2
    frequency:   14.6119476477
  - # 3
    frequency:   24.1919522898
  - # 4
    frequency:   26.0285069283
  - # 5
    frequency:   44.4636692545
  - # 6
    frequency:   47.1340484329

- q-position: [    0.2800000,    0.2800000,    0.0000000 ]
  distance:    0.1314554
  band:
  - # 1
    frequency:    5.5868766260
  - # 2
    frequency:   14.7989987937
  - # 3
    frequency:   24.0969285174
  - # 4
    frequency:   26.4193577979
  - # 5
    frequency:   44.3861351135
  - # 6
    frequency:   47.1030100891

- q-position: [    0.2850000,    0.2850000,    0.0000000 ]
  distance:    0.1338028
  band:
  - # 1
    frequency:    5.7974144278
  - # 2
    frequency:   14.9829289541
  - # 3
    frequency:   23.9991374725
  - # 4
    frequency:   26.8068868995
  - # 5
    frequency:   44.3060894240
  - # 6
    frequency:   47.0669073971

- q-position: [    0.2900000,    0.2900000,    0.0000000 ]
  distance:    0.1361502
  band:
  - # 1
    frequency:    6.0094999452
  - # 2
    frequency:   15.1637463808
  - # 3
    frequency:   23.8985805291
  - # 4
    frequency:   27.1911105827
  - # 5
    frequency:   44.2236260550
  - # 6
    frequency:   47.0256707244

- q-position: [    0.2950000,    0.2950000,    0.0000000 ]
  distance:    0.1384977
  band:
  - # 1
    frequency:    6.2230418717
  - # 2
    frequency:   15.3414577358
  - # 3
    frequency:   23.7952634737
  - # 4
    frequency:   27.5720461910
  - # 5
    frequency:   44.1388491164
  - # 6
    frequency:   46.9792376667

- q-position: [    0.3000000,    0.3000000,    0.0000000 ]
  distance:    0.1408451
  band:
  - # 1
    frequency:    6.4379445520
  - # 2
    frequency:   15.5160676455
  - # 3
    frequency:   23.6891967526
  - # 4
    frequency:   27.9497118533
  - # 5
    frequency:   44.0518729836
  - # 6
    frequency:   46.9275529991

- q-position: [    0.3050000,    0.3050000,    0.0000000 ]
  distance:    0.1431925
  band:
  - # 1
    frequency:    6.6541079489
  - # 2
    frequency:   15.6875782491
  - # 3
    frequency:   23.5803957434
  - # 4
    frequency:   28.3241262684
  - # 5
    frequency:   43.9628222976
  - # 6
    frequency:   46.8705686138

- q-position: [    0.3100000,    0.3100000,    0.0000000 ]
  distance:    0.1455399
  band:
  - # 1
    frequency:    6.8714275500
  - # 2
    frequency:   15.8559887468
  - # 3
    frequency:   23.4688810561
  - # 4
    frequency:   28.6953084855
  - # 5
    frequency:   43.8718319420
  - # 6
    frequency:   46.8082434467

- q-position: [    0.3150000,    0.3150000,    0.0000000 ]
  distance:    0.1478873
  band:
  - # 1
    frequency:    7.0897942146
  - # 2
    frequency:   16.0212949485
  - # 3
    frequency:   23.3546788670
  - # 4
    frequency:   29.0632776789
  - # 5
    frequency:   43.7790469930
  - # 6
    frequency:   46.7405433919

- q-position: [    0.3200000,    0.3200000,    0.0000000 ]
  distance:    0.1502347
  band:
  - # 1
    frequency:    7.3090939587
  - # 2
    frequency:   16.1834888291
  - # 3
    frequency:   23.2378212942
  - # 4
    frequency:   29.4280529187
  - # 5
    frequency:   43.6846226414
  - # 6
    frequency:   46.6674412075

- q-position: [    0.3250000,    0.3250000,    0.0000000 ]
  distance:    0.1525822
  band:
  - # 1
    frequency:    7.5292076738
  - # 2
    frequency:   16.3425580941
  - # 3
    frequency:   23.1183468191
  - # 4
    frequency:   29.7896529365
  - # 5
    frequency:   43.5887240844
  - # 6
    frequency:   46.5889164122

- q-position: [    0.3300000,    0.3300000,    0.0000000 ]
  distance:    0.1549296
  band:
  - # 1
    frequency:    7.7500107741
  - # 2
    frequency:   16.4984857596
  - # 3
    frequency:   22.9963007645
  - # 4
    frequency:   30.1480958867
  - # 5
    frequency:   43.4915263836
  - # 6
    frequency:   46.5049551754

- q-position: [    0.3350000,    0.3350000,    0.0000000 ]
  distance:    0.1572770
  band:
  - # 1
    frequency:    7.9713727648
  - # 2
    frequency:   16.6512497528
  - # 3
    frequency:   22.8717358383
  - # 4
    frequency:   30.5033991022
  - # 5
    frequency:   43.3932142886
  - # 6
    frequency:   46.4155502020

- q-position: [    0.3400000,    0.3400000,    0.0000000 ]
  distance:    0.1596244
  band:
  - # 1
    frequency:    8.1931567203
  - # 2
    frequency:   16.8008225373
  - # 3
    frequency:   22.7447127546
  - # 4
    frequency:   30.8555788453
  - # 5
    frequency:   43.2939820202
  - # 6
    frequency:   46.3207006131

- q-position: [    0.3450000,    0.3450000,    0.0000000 ]
  distance:    0.1619718
  band:
  - # 1
    frequency:    8.4152186616
  - # 2
    frequency:   16.9471707698
  - # 3
    frequency:   22.6153009465
  - # 4
    frequency:   31.2046500518
  - # 5
    frequency:   43.1940330123
  - # 6
    frequency:   46.2204118266

- q-position: [    0.3500000,    0.3500000,    0.0000000 ]
  distance:    0.1643192
  band:
  - # 1
    frequency:    8.6374068150
  - # 2
    frequency:   17.0902549940
  - # 3
    frequency:   22.4835793872
  - # 4
    frequency:   31.5506260671
  - # 5
    frequency:   43.0935796081
  - # 6
    frequency:   46.1146954389

- q-position: [    0.3550000,    0.3550000,    0.0000000 ]
  distance:    0.1666667
  band:
  - # 1
    frequency:    8.8595607368
  - # 2
    frequency:   17.2300293769
  - # 3
    frequency:   22.3496375389
  - # 4
    frequency:   31.8935183736
  - # 5
    frequency:   42.9928427058
  - # 6
    frequency:   46.0035691114

- q-position: [    0.3600000,    0.3600000,    0.0000000 ]
  distance:    0.1690141
  band:
  - # 1
    frequency:    9.0815102785
  - # 2
    frequency:   17.3664414963
  - # 3
    frequency:   22.2135764533
  - # 4
    frequency:   32.2333363040
  - # 5
    frequency:   42.8920513512
  - # 6
    frequency:   45.8870564669

- q-position: [    0.3650000,    0.3650000,    0.0000000 ]
  distance:    0.1713615
  band:
  - # 1
    frequency:    9.3030743669
  - # 2
    frequency:   17.4994321833
  - # 3
    frequency:   22.0755100513
  - # 4
    frequency:   32.5700867401
  - # 5
    frequency:   42.7914422720
  - # 6
    frequency:   45.7651869994

- q-position: [    0.3700000,    0.3700000,    0.0000000 ]
  distance:    0.1737089
  band:
  - # 1
    frequency:    9.5240595666
  - # 2
    frequency:   17.6289354290
  - # 3
    frequency:   21.9355666149
  - # 4
    frequency:   32.9037737890
  - # 5
    frequency:   42.6912593499
  - # 6
    frequency:   45.6379960046

- q-position: [    0.3750000,    0.3750000,    0.0000000 ]
  distance:    0.1760563
  band:
  - # 1
    frequency:    9.7442583857
  - # 2
    frequency:   17.7548783601
  - # 3
    frequency:   21.7938905313
  - # 4
    frequency:   33.2343984317
  - # 5
    frequency:   42.5917530263
  - # 6
    frequency:   45.5055245403

- q-position: [    0.3800000,    0.3800000,    0.0000000 ]
  distance:    0.1784038
  band:
  - # 1
    frequency:    9.9634472795
  - # 2
    frequency:   17.8771812913
  - # 3
    frequency:   21.6506443340
  - # 4
    frequency:   33.5619581331
  - # 5
    frequency:   42.4931796369
  - # 6
    frequency:   45.3678194260

- q-position: [    0.3850000,    0.3850000,    0.0000000 ]
  distance:    0.1807512
  band:
  - # 1
    frequency:   10.1813842977
  - # 2
    frequency:   17.9957578593
  - # 3
    frequency:   21.5060110973
  - # 4
    frequency:   33.8864464007
  - # 5
    frequency:   42.3958006719
  - # 6
    frequency:   45.2249332971

- q-position: [    0.3900000,    0.3900000,    0.0000000 ]
  distance:    0.1830986
  band:
  - # 1
    frequency:   10.3978063125
  - # 2
    frequency:   18.1105152457
  - # 3
    frequency:   21.3601972460
  - # 4
    frequency:   34.2078522750
  - # 5
    frequency:   42.2998819581
  - # 6
    frequency:   45.0769247334

- q-position: [    0.3950000,    0.3950000,    0.0000000 ]
  distance:    0.1854460
  band:
  - # 1
    frequency:   10.6124257537
  - # 2
    frequency:   18.2213544918
  - # 3
    frequency:   21.2134358544
  - # 4
    frequency:   34.5261597237
  - # 5
    frequency:   42.2056927594
  - # 6
    frequency:   44.9238584875

- q-position: [    0.4000000,    0.4000000,    0.0000000 ]
  distance:    0.1877934
  band:
  - # 1
    frequency:   10.8249267697
  - # 2
    frequency:   18.3281709111
  - # 3
    frequency:   21.0659905181
  - # 4
    frequency:   34.8413469079
  - # 5
    frequency:   42.1135047948
  - # 6
    frequency:   44.7658058497

- q-position: [    0.4050000,    0.4050000,    0.0000000 ]
  distance:    0.1901408
  band:
  - # 1
    frequency:   11.0349607200
  - # 2
    frequency:   18.4308546017
  - # 3
    frequency:   20.9181598888
  - # 4
    frequency:   35.1533852670
  - # 5
    frequency:   42.0235911711
  - # 6
    frequency:   44.6028452008

- q-position: [    0.4100000,    0.4100000,    0.0000000 ]
  distance:    0.1924883
  band:
  - # 1
    frequency:   11.2421409054
  - # 2
    frequency:   18.5292910596
  - # 3
    frequency:   20.7702829726
  - # 4
    frequency:   35.4622383536
  - # 5
    frequency:   41.9362252319
  - # 6
    frequency:   44.4350628256

- q-position: [    0.4150000,    0.4150000,    0.0000000 ]
  distance:    0.1948357
  band:
  - # 1
    frequency:   11.4460364347
  - # 2
    frequency:   18.6233618946
  - # 3
    frequency:   20.6227452866
  - # 4
    frequency:   35.7678603115
  - # 5
    frequency:   41.8516793241
  - # 6
    frequency:   44.2625540918

- q-position: [    0.4200000,    0.4200000,    0.0000000 ]
  distance:    0.1971831
  band:
  - # 1
    frequency:   11.6461651450
  - # 2
    frequency:   18.7129456449
  - # 3
    frequency:   20.4759859608
  - # 4
    frequency:   36.0701938439
  - # 5
    frequency:   41.7702234841
  - # 6
    frequency:   44.0854251520

- q-position: [    0.4250000,    0.4250000,    0.0000000 ]
  distance:    0.1995305
  band:
  - # 1
    frequency:   11.8419855217
  - # 2
    frequency:   18.7979186880
  - # 3
    frequency:   20.3305058393
  - # 4
    frequency:   36.3691674356
  - # 5
    frequency:   41.6921240508
  - # 6
    frequency:   43.9037954013

- q-position: [    0.4300000,    0.4300000,    0.0000000 ]
  distance:    0.2018779
  band:
  - # 1
    frequency:   12.0328876272
  - # 2
    frequency:   18.8781562404
  - # 3
    frequency:   20.1868765697
  - # 4
    frequency:   36.6646914700
  - # 5
    frequency:   41.6176422112
  - # 6
    frequency:   43.7178010559

- q-position: [    0.4350000,    0.4350000,    0.0000000 ]
  distance:    0.2042254
  band:
  - # 1
    frequency:   12.2181831643
  - # 2
    frequency:   18.9535334388
  - # 3
    frequency:   20.0457505571
  - # 4
    frequency:   36.9566526675
  - # 5
    frequency:   41.5470324900
  - # 6
    frequency:   43.5276004223

- q-position: [    0.4400000,    0.4400000,    0.0000000 ]
  distance:    0.2065728
  band:
  - # 1
    frequency:   12.3970949864
  - # 2
    frequency:   19.0239264900
  - # 3
    frequency:   19.9078714690
  - # 4
    frequency:   37.2449059195
  - # 5
    frequency:   41.4805411934
  - # 6
    frequency:   43.3333817870

- q-position: [    0.4450000,    0.4450000,    0.0000000 ]