27   
6    

1    
  0.0022085986839406   0.0038229618462886   0.0089725723499517
  -0.0471953100   -0.0815060100   -0.2337409200
  -0.0026848600    0.0033263700   -0.0038859600
   0.0046796900   -0.0011290000   -0.0038985400
   0.0049446000   -0.0003328100   -0.0038118100
   0.0007881700    0.0011886000   -0.0002903200
  -0.0034276100    0.0037734700   -0.0037825000
  -0.0028656300    0.0039601100   -0.0038373700
   0.0045417900   -0.0007711300   -0.0037952800
   0.0005958800    0.0012001500   -0.0002902800
   0.0292014700   -0.0111426100    0.0393280900
  -0.0118710400   -0.0039871600    0.0254030900
   0.0002093300    0.0006572400    0.0011269100
  -0.0008430500   -0.0000411800    0.0016295900
   0.0005621100    0.0001610700    0.0009703600
  -0.0003179500    0.0000656900    0.0008966300
   0.0023522200    0.0003447900    0.0027745800
   0.0024222100    0.0493954300    0.0531895900
  -0.0018355600   -0.0009638700    0.0022519700
  -0.0250347400    0.0201051200    0.0401276200
   0.0431817700    0.0277551200    0.0548705800
   0.0002234100   -0.0002470800    0.0008384000
  -0.0008350100    0.0021902800    0.0027176000
  -0.0002150300    0.0006419600    0.0009591300
   0.0004720200    0.0005377300    0.0010088800
   0.0004861200   -0.0007268200    0.0015653000
   0.0024017400   -0.0124104000    0.0255831300
   0.0000632600   -0.0020450700    0.0020915300

1    
 -0.0022085986839406  -0.0038229618462886  -0.0089725723499517
   0.0469767200    0.0817436600    0.2337455700
   0.0029920700   -0.0035622000    0.0038263900
  -0.0050468700    0.0008832800    0.0038137000
  -0.0048350600    0.0005595300    0.0038372600
  -0.0005972600   -0.0012036700    0.0002903100
   0.0032187400   -0.0036768100    0.0038668800
   0.0027902100   -0.0040650000    0.0038117400
  -0.0042453300    0.0006923600    0.0038544000
  -0.0007898300   -0.0011922900    0.0002901200
  -0.0299423200    0.0116410600   -0.0401413100
   0.0118903200    0.0040544700   -0.0255435200
  -0.0002371900   -0.0007124800   -0.0010114100
   0.0009416100    0.0000250500   -0.0015956900
  -0.0006847600   -0.0001688700   -0.0009575000
   0.0003010700   -0.0001042500   -0.0008353300
  -0.0022733200   -0.0002694900   -0.0026853600
  -0.0024919000   -0.0514124000   -0.0549610900
   0.0018393600    0.0010285700   -0.0020900500
   0.0242521100   -0.0196822400   -0.0393157400
  -0.0414981500   -0.0267774000   -0.0531073500
  -0.0002230200    0.0002052000   -0.0009058600
   0.0009496900   -0.0021397700   -0.0027443200
   0.0001205500   -0.0006008900   -0.0009719300
  -0.0004914200   -0.0005451800   -0.0011181800
  -0.0003577900    0.0008491900   -0.0016615800
  -0.0025148800    0.0122929400   -0.0254367500
  -0.0000433600    0.0021376500   -0.0022534000

10   
  0.0050023960829162   0.0086588702166983   0.0000000000000000
   0.0055075800    0.0096078600   -0.0000306100
   0.0005936400    0.0004206400    0.0004464200
   0.0339550900    0.0260004900   -0.0296514300
   0.0031345800   -0.0005150100    0.0010602100
  -0.0019287800   -0.0035012600   -0.0000023600
   0.0054602600    0.0435513600    0.0307811600
  -0.0019979800    0.0024242500   -0.0010536000
   0.0003069000    0.0007131800   -0.0004331400
   0.0004033500    0.0009061800    0.0000107900
  -0.0556157300   -0.0977767200   -0.0011019300
   0.0047338400   -0.0007990000    0.0006666400
   0.0041772100   -0.0004578200   -0.0005241500
   0.0043351500    0.0080848200    0.0012540800
  -0.0001735200   -0.0001914900    0.0000163600
  -0.0025200700    0.0034235600    0.0006246500
   0.0048147700    0.0075987600   -0.0011699800
  -0.0031171700    0.0038257000   -0.0006022800
  -0.0001177100   -0.0001611100    0.0000839500
  -0.0012124400   -0.0022117400   -0.0000504000
  -0.0002554700   -0.0010922700   -0.0004890600
   0.0013623600   -0.0020040300   -0.0021106100
   0.0014352600    0.0005722300    0.0015873100
   0.0000796600    0.0002363500   -0.0000107100
  -0.0024622600    0.0001933300    0.0020233100
  -0.0001417200    0.0015377300   -0.0016523900
  -0.0008877700   -0.0006554200    0.0004071400
   0.0001309600    0.0002694500   -0.0000793600

10   
 -0.0050023960829162  -0.0086588702166983   0.0000000000000000
  -0.0056716400   -0.0096507300   -0.0000652100
  -0.0004177400   -0.0006175800   -0.0004318700
  -0.0350175600   -0.0266569500    0.0307124500
  -0.0030512500    0.0005709600   -0.0010485100
   0.0021055700    0.0034978200   -0.0000051800
  -0.0056755700   -0.0426294400   -0.0297189200
   0.0020453000   -0.0024032600    0.0010654600
  -0.0000902100   -0.0007013800    0.0004477300
  -0.0006218600   -0.0008804400    0.0000099700
   0.0568271100    0.0971106100   -0.0009634600
  -0.0048321300    0.0007628500   -0.0006267500
  -0.0042205000    0.0004285500    0.0006264000
  -0.0041098400   -0.0078862600   -0.0012022200
   0.0000599500    0.0002119500    0.0000170000
   0.0024708600   -0.0034292400   -0.0005290700
  -0.0048032200   -0.0076941500    0.0012867100
   0.0030464900   -0.0037038500    0.0007003100
   0.0001161200    0.0002428800    0.0000831100
   0.0013232900    0.0021817300   -0.0000455600
   0.0001422700    0.0010721300    0.0004313300
  -0.0014159700    0.0019953600    0.0020273500
  -0.0013356200   -0.0005642100   -0.0016155700
  -0.0001833400   -0.0002215600   -0.0000128500
   0.0023900400   -0.0002002900   -0.0020999800
   0.0002556100   -0.0014291600    0.0015591900
   0.0007956400    0.0007817300   -0.0005230300
  -0.0001317900   -0.0001880700   -0.0000788300

10   
  0.0000000000000000   0.0000000000000000   0.0100000000000000
   0.0329093300   -0.0190477700    0.0447405100
   0.0000000000    0.0001702700    0.0010904800
  -0.0329093300   -0.0190477700    0.0447405100
   0.0012057700    0.0007297000    0.0024176300
  -0.0012057700    0.0007297000    0.0024176300
   0.0000000000    0.0379878500    0.0448093600
   0.0000000000   -0.0013987800    0.0024175300
  -0.0001283700   -0.0001275400    0.0010839500
   0.0001283700   -0.0001275400    0.0010839500
   0.0000000000   -0.0000961000   -0.1412082000
  -0.0012646700    0.0000204500   -0.0032341500
   0.0012646700    0.0000204500   -0.0032341500
  -0.0005592600   -0.0011033100   -0.0032446600
   0.0000000000    0.0000088200    0.0002152200
   0.0005592600   -0.0011033100   -0.0032446600
   0.0007115800    0.0011158100   -0.0032318700
  -0.0007115800    0.0011158100   -0.0032318700
   0.0000000000    0.0000395800    0.0002938700
   0.0000000000   -0.0000111800    0.0144664000
   0.0015777600    0.0014389200    0.0005071700
  -0.0015777600    0.0014389200    0.0005071700
   0.0020935400    0.0006526600    0.0005103000
   0.0000000000    0.0000086100   -0.0010483400
  -0.0020935400    0.0006526600    0.0005103000
   0.0005132900   -0.0020528100    0.0004975300
  -0.0005132900   -0.0020528100    0.0004975300
   0.0000000000    0.0000387200   -0.0011291300

10   
  0.0000000000000000   0.0000000000000000  -0.0100000000000000
  -0.0316859800    0.0182363800   -0.0437441700
   0.0000000000   -0.0003445300   -0.0010720900
   0.0316859800    0.0182363800   -0.0437441700
  -0.0013256600   -0.0007292500   -0.0024182600
   0.0013256600   -0.0007292500   -0.0024182600
   0.0000000000   -0.0367430500   -0.0438111600
   0.0000000000    0.0015271500   -0.0024182700
   0.0003149200    0.0001328300   -0.0010656300
  -0.0003149200    0.0001328300   -0.0010656300
   0.0000000000    0.0000650200    0.1380730000
   0.0011777200   -0.0000623500    0.0032867600
  -0.0011777200   -0.0000623500    0.0032867600
   0.0005938900    0.0010670700    0.0032872800
   0.0000000000    0.0000078000   -0.0001927700
  -0.0005938900    0.0010670700    0.0032872800
  -0.0005900400   -0.0009682300    0.0033001300
   0.0005900400   -0.0009682300    0.0033001300
   0.0000000000    0.0000405700   -0.0001144700
   0.0000000000   -0.0000168100   -0.0141959100
  -0.0016381800   -0.0014823800   -0.0005881300
   0.0016381800   -0.0014823800   -0.0005881300
  -0.0020468500   -0.0006648800   -0.0005811500
   0.0000000000    0.0000080100    0.0010232600
   0.0020468500   -0.0006648800   -0.0005811500
  -0.0004065300    0.0021780200   -0.0005940300
   0.0004065300    0.0021780200   -0.0005940300
   0.0000000000    0.0000414200    0.0009428000