C:graphene-relax-phonon                 
           1
     6.390000   -3.689268    0.000000
     6.390000    3.689268    0.000000
     0.000000    0.000000   20.000000
   C 
  18
Direct configuration=     1
   0.00046909  0.00000000  0.00046909
   0.33333333  0.00000000  0.00000000
   0.66666667  0.00000000  0.00000000
   0.00000000  0.33333333  0.00000000
   0.33333333  0.33333333  0.00000000
   0.66666667  0.33333333  0.00000000
   0.00000000  0.66666667  0.00000000
   0.33333333  0.66666667  0.00000000
   0.66666667  0.66666667  0.00000000
   0.11111100  0.11111100  0.00000000
   0.44444433  0.11111100  0.00000000
   0.77777767  0.11111100  0.00000000
   0.11111100  0.44444433  0.00000000
   0.44444433  0.44444433  0.00000000
   0.77777767  0.44444433  0.00000000
   0.11111100  0.77777767  0.00000000
   0.44444433  0.77777767  0.00000000
   0.77777767  0.77777767  0.00000000
