   4   4   0   0
  0.2619380E+02  0.2459512E-09  0.2459512E-09  0.2000000E-08  0.5000000E-15
  1.000000000000000E-004
  CAR 
 C-4                                     
     11.75061862    -22.34458674 6001     -1.21431549      1.00000000
    -22.345  0.0000E+00  0.0000E+00
    -22.339  0.0000E+00  0.0000E+00
    -22.333  0.0000E+00  0.0000E+00
    -22.328  0.0000E+00  0.0000E+00
    -22.322  0.0000E+00  0.0000E+00
    -22.316  0.0000E+00  0.0000E+00
    -22.310  0.0000E+00  0.0000E+00
    -22.305  0.0000E+00  0.0000E+00
    -22.299  0.0000E+00  0.0000E+00
    -22.293  0.0000E+00  0.0000E+00
    -22.288  0.0000E+00  0.0000E+00
    -22.282  0.0000E+00  0.0000E+00
    -22.276  0.0000E+00  0.0000E+00
    -22.271  0.0000E+00  0.0000E+00
    -22.265  0.0000E+00  0.0000E+00
    -22.259  0.0000E+00  0.0000E+00
    -22.254  0.0000E+00  0.0000E+00
    -22.248  0.0000E+00  0.0000E+00
    -22.242  0.0000E+00  0.0000E+00
    -22.237  0.0000E+00  0.0000E+00
    -22.231  0.0000E+00  0.0000E+00
    -22.225  0.0000E+00  0.0000E+00
    -22.220  0.0000E+00  0.0000E+00
    -22.214  0.0000E+00  0.0000E+00
    -22.208  0.0000E+00  0.0000E+00
    -22.203  0.0000E+00  0.0000E+00
    -22.197  0.0000E+00  0.0000E+00
    -22.191  0.0000E+00  0.0000E+00
    -22.185  0.0000E+00  0.0000E+00
    -22.180  0.0000E+00  0.0000E+00
    -22.174  0.0000E+00  0.0000E+00
    -22.168  0.0000E+00  0.0000E+00
    -22.163  0.0000E+00  0.0000E+00
    -22.157  0.0000E+00  0.0000E+00
    -22.151  0.0000E+00  0.0000E+00
    -22.146  0.0000E+00  0.0000E+00
    -22.140  0.0000E+00  0.0000E+00
    -22.134  0.0000E+00  0.0000E+00
    -22.129  0.0000E+00  0.0000E+00
    -22.123  0.0000E+00  0.0000E+00
    -22.117  0.0000E+00  0.0000E+00
    -22.112  0.0000E+00  0.0000E+00
    -22.106  0.0000E+00  0.0000E+00
    -22.100  0.0000E+00  0.0000E+00
    -22.095  0.0000E+00  0.0000E+00
    -22.089  0.0000E+00  0.0000E+00
    -22.083  0.0000E+00  0.0000E+00
    -22.078  0.0000E+00  0.0000E+00
    -22.072  0.0000E+00  0.0000E+00
    -22.066  0.0000E+00  0.0000E+00
    -22.060  0.0000E+00  0.0000E+00
    -22.055  0.0000E+00  0.0000E+00
    -22.049  0.0000E+00  0.0000E+00
    -22.043  0.0000E+00  0.0000E+00
    -22.038  0.0000E+00  0.0000E+00
    -22.032  0.0000E+00  0.0000E+00
    -22.026  0.0000E+00  0.0000E+00
    -22.021  0.0000E+00  0.0000E+00
    -22.015  0.0000E+00  0.0000E+00
    -22.009  0.0000E+00  0.0000E+00
    -22.004  0.0000E+00  0.0000E+00
    -21.998  0.0000E+00  0.0000E+00
    -21.992  0.0000E+00  0.0000E+00
    -21.987  0.0000E+00  0.0000E+00
    -21.981  0.0000E+00  0.0000E+00
    -21.975  0.0000E+00  0.0000E+00
    -21.970  0.0000E+00  0.0000E+00
    -21.964  0.0000E+00  0.0000E+00
    -21.958  0.0000E+00  0.0000E+00
    -21.952  0.0000E+00  0.0000E+00
    -21.947  0.0000E+00  0.0000E+00
    -21.941  0.0000E+00  0.0000E+00
    -21.935  0.0000E+00  0.0000E+00
    -21.930  0.0000E+00  0.0000E+00
    -21.924  0.0000E+00  0.0000E+00
    -21.918  0.0000E+00  0.0000E+00
    -21.913  0.0000E+00  0.0000E+00
    -21.907  0.0000E+00  0.0000E+00
    -21.901  0.0000E+00  0.0000E+00
    -21.896  0.0000E+00  0.0000E+00
    -21.890  0.0000E+00  0.0000E+00
    -21.884  0.0000E+00  0.0000E+00
    -21.879  0.0000E+00  0.0000E+00
    -21.873  0.0000E+00  0.0000E+00
    -21.867  0.0000E+00  0.0000E+00
    -21.862  0.0000E+00  0.0000E+00
    -21.856  0.0000E+00  0.0000E+00
    -21.850  0.0000E+00  0.0000E+00
    -21.845  0.0000E+00  0.0000E+00
    -21.839  0.0000E+00  0.0000E+00
    -21.833  0.0000E+00  0.0000E+00
    -21.827  0.0000E+00  0.0000E+00
    -21.822  0.0000E+00  0.0000E+00
    -21.816  0.0000E+00  0.0000E+00
    -21.810  0.0000E+00  0.0000E+00
    -21.805  0.0000E+00  0.0000E+00
    -21.799  0.0000E+00  0.0000E+00
    -21.793  0.0000E+00  0.0000E+00
    -21.788  0.0000E+00  0.0000E+00
    -21.782  0.0000E+00  0.0000E+00
    -21.776  0.0000E+00  0.0000E+00
    -21.771  0.0000E+00  0.0000E+00
    -21.765  0.0000E+00  0.0000E+00
    -21.759  0.0000E+00  0.0000E+00
    -21.754  0.0000E+00  0.0000E+00
    -21.748  0.0000E+00  0.0000E+00
    -21.742  0.0000E+00  0.0000E+00
    -21.737  0.0000E+00  0.0000E+00
    -21.731  0.0000E+00  0.0000E+00
    -21.725  0.0000E+00  0.0000E+00
    -21.720  0.0000E+00  0.0000E+00
    -21.714  0.0000E+00  0.0000E+00
    -21.708  0.0000E+00  0.0000E+00
    -21.702  0.0000E+00  0.0000E+00
    -21.697  0.0000E+00  0.0000E+00
    -21.691  0.0000E+00  0.0000E+00
    -21.685  0.0000E+00  0.0000E+00
    -21.680  0.0000E+00  0.0000E+00
    -21.674  0.0000E+00  0.0000E+00
    -21.668  0.0000E+00  0.0000E+00
    -21.663  0.0000E+00  0.0000E+00
    -21.657  0.0000E+00  0.0000E+00
    -21.651  0.0000E+00  0.0000E+00
    -21.646  0.0000E+00  0.0000E+00
    -21.640  0.0000E+00  0.0000E+00
    -21.634  0.0000E+00  0.0000E+00
    -21.629  0.0000E+00  0.0000E+00
    -21.623  0.0000E+00  0.0000E+00
    -21.617  0.0000E+00  0.0000E+00
    -21.612  0.0000E+00  0.0000E+00
    -21.606  0.0000E+00  0.0000E+00
    -21.600  0.0000E+00  0.0000E+00
    -21.594  0.0000E+00  0.0000E+00
    -21.589  0.0000E+00  0.0000E+00
    -21.583  0.0000E+00  0.0000E+00
    -21.577  0.0000E+00  0.0000E+00
    -21.572  0.0000E+00  0.0000E+00
    -21.566  0.0000E+00  0.0000E+00
    -21.560  0.0000E+00  0.0000E+00
    -21.555  0.0000E+00  0.0000E+00
    -21.549  0.0000E+00  0.0000E+00
    -21.543  0.0000E+00  0.0000E+00
    -21.538  0.0000E+00  0.0000E+00
    -21.532  0.0000E+00  0.0000E+00
    -21.526  0.0000E+00  0.0000E+00
    -21.521  0.0000E+00  0.0000E+00
    -21.515  0.0000E+00  0.0000E+00
    -21.509  0.0000E+00  0.0000E+00
    -21.504  0.0000E+00  0.0000E+00
    -21.498  0.0000E+00  0.0000E+00
    -21.492  0.0000E+00  0.0000E+00
    -21.487  0.0000E+00  0.0000E+00
    -21.481  0.0000E+00  0.0000E+00
    -21.475  0.0000E+00  0.0000E+00
    -21.469  0.0000E+00  0.0000E+00
    -21.464  0.0000E+00  0.0000E+00
    -21.458  0.0000E+00  0.0000E+00
    -21.452  0.0000E+00  0.0000E+00
    -21.447  0.0000E+00  0.0000E+00
    -21.441  0.0000E+00  0.0000E+00
    -21.435  0.0000E+00  0.0000E+00
    -21.430  0.0000E+00  0.0000E+00
    -21.424  0.0000E+00  0.0000E+00
    -21.418  0.0000E+00  0.0000E+00
    -21.413  0.0000E+00  0.0000E+00
    -21.407  0.0000E+00  0.0000E+00
    -21.401  0.0000E+00  0.0000E+00
    -21.396  0.0000E+00  0.0000E+00
    -21.390  0.0000E+00  0.0000E+00
    -21.384  0.1108E-16  0.6294E-19
    -21.379  0.0000E+00  0.6294E-19
    -21.373  0.9968E-16  0.6294E-18
    -21.367  0.2215E-16  0.7553E-18
    -21.362  0.2104E-15  0.1951E-17
    -21.356  0.2547E-15  0.3399E-17
    -21.350  0.5759E-15  0.6671E-17
    -21.344  0.1119E-14  0.1303E-16
    -21.339  0.1994E-14  0.2436E-16
    -21.333  0.3910E-14  0.4657E-16
    -21.327  0.7321E-14  0.8818E-16
    -21.322  0.1331E-13  0.1638E-15
    -21.316  0.2494E-13  0.3056E-15
    -21.310  0.4530E-13  0.5630E-15
    -21.305  0.8277E-13  0.1033E-14
    -21.299  0.1497E-12  0.1884E-14
    -21.293  0.2689E-12  0.3412E-14
    -21.288  0.4807E-12  0.6143E-14
    -21.282  0.8531E-12  0.1099E-13
    -21.276  0.1505E-11  0.1954E-13
    -21.271  0.2638E-11  0.3453E-13
    -21.265  0.4596E-11  0.6065E-13
    -21.259  0.7956E-11  0.1059E-12
    -21.254  0.1368E-10  0.1836E-12
    -21.248  0.2339E-10  0.3166E-12
    -21.242  0.3974E-10  0.5424E-12
    -21.236  0.6708E-10  0.9236E-12
    -21.231  0.1125E-09  0.1563E-11
    -21.225  0.1876E-09  0.2629E-11
    -21.219  0.3108E-09  0.4395E-11
    -21.214  0.5116E-09  0.7302E-11
    -21.208  0.8369E-09  0.1206E-10
    -21.202  0.1361E-08  0.1979E-10
    -21.197  0.2198E-08  0.3228E-10
    -21.191  0.3529E-08  0.5233E-10
    -21.185  0.5631E-08  0.8433E-10
    -21.180  0.8928E-08  0.1351E-09
    -21.174  0.1407E-07  0.2150E-09
    -21.168  0.2203E-07  0.3402E-09
    -21.163  0.3428E-07  0.5350E-09
    -21.157  0.5301E-07  0.8362E-09
    -21.151  0.8148E-07  0.1299E-08
    -21.146  0.1245E-06  0.2006E-08
    -21.140  0.1889E-06  0.3080E-08
    -21.134  0.2850E-06  0.4699E-08
    -21.129  0.4272E-06  0.7127E-08
    -21.123  0.6366E-06  0.1074E-07
    -21.117  0.9426E-06  0.1610E-07
    -21.111  0.1387E-05  0.2398E-07
    -21.106  0.2029E-05  0.3551E-07
    -21.100  0.2949E-05  0.5227E-07
    -21.094  0.4261E-05  0.7648E-07
    -21.089  0.6117E-05  0.1112E-06
    -21.083  0.8729E-05  0.1608E-06
    -21.077  0.1238E-04  0.2312E-06
    -21.072  0.1745E-04  0.3304E-06
    -21.066  0.2445E-04  0.4693E-06
    -21.060  0.3405E-04  0.6628E-06
    -21.055  0.4712E-04  0.9305E-06
    -21.049  0.6482E-04  0.1299E-05
    -21.043  0.8863E-04  0.1803E-05
    -21.038  0.1204E-03  0.2487E-05
    -21.032  0.1627E-03  0.3411E-05
    -21.026  0.2184E-03  0.4653E-05
    -21.021  0.2915E-03  0.6309E-05
    -21.015  0.3867E-03  0.8507E-05
    -21.009  0.5100E-03  0.1141E-04
    -21.004  0.6685E-03  0.1520E-04
    -20.998  0.8710E-03  0.2015E-04
    -20.992  0.1128E-02  0.2656E-04
    -20.986  0.1453E-02  0.3482E-04
    -20.981  0.1859E-02  0.4538E-04
    -20.975  0.2366E-02  0.5882E-04
    -20.969  0.2992E-02  0.7583E-04
    -20.964  0.3763E-02  0.9721E-04
    -20.958  0.4705E-02  0.1239E-03
    -20.952  0.5848E-02  0.1572E-03
    -20.947  0.7227E-02  0.1982E-03
    -20.941  0.8879E-02  0.2487E-03
    -20.935  0.1085E-01  0.3103E-03
    -20.930  0.1318E-01  0.3852E-03
    -20.924  0.1591E-01  0.4756E-03
    -20.918  0.1911E-01  0.5842E-03
    -20.913  0.2282E-01  0.7139E-03
    -20.907  0.2711E-01  0.8680E-03
    -20.901  0.3201E-01  0.1050E-02
    -20.896  0.3760E-01  0.1264E-02
    -20.890  0.4392E-01  0.1513E-02
    -20.884  0.5102E-01  0.1803E-02
    -20.878  0.5896E-01  0.2138E-02
    -20.873  0.6777E-01  0.2523E-02
    -20.867  0.7748E-01  0.2963E-02
    -20.861  0.8812E-01  0.3464E-02
    -20.856  0.9971E-01  0.4031E-02
    -20.850  0.1122E+00  0.4669E-02
    -20.844  0.1257E+00  0.5383E-02
    -20.839  0.1401E+00  0.6179E-02
    -20.833  0.1554E+00  0.7062E-02
    -20.827  0.1715E+00  0.8036E-02
    -20.822  0.1883E+00  0.9106E-02
    -20.816  0.2059E+00  0.1028E-01
    -20.810  0.2240E+00  0.1155E-01
    -20.805  0.2427E+00  0.1293E-01
    -20.799  0.2618E+00  0.1442E-01
    -20.793  0.2811E+00  0.1601E-01
    -20.788  0.3006E+00  0.1772E-01
    -20.782  0.3201E+00  0.1954E-01
    -20.776  0.3395E+00  0.2147E-01
    -20.771  0.3588E+00  0.2351E-01
    -20.765  0.3776E+00  0.2565E-01
    -20.759  0.3961E+00  0.2791E-01
    -20.753  0.4140E+00  0.3026E-01
    -20.748  0.4312E+00  0.3271E-01
    -20.742  0.4478E+00  0.3525E-01
    -20.736  0.4635E+00  0.3789E-01
    -20.731  0.4784E+00  0.4060E-01
    -20.725  0.4923E+00  0.4340E-01
    -20.719  0.5054E+00  0.4627E-01
    -20.714  0.5175E+00  0.4921E-01
    -20.708  0.5286E+00  0.5222E-01
    -20.702  0.5389E+00  0.5528E-01
    -20.697  0.5482E+00  0.5840E-01
    -20.691  0.5566E+00  0.6156E-01
    -20.685  0.5642E+00  0.6476E-01
    -20.680  0.5709E+00  0.6801E-01
    -20.674  0.5769E+00  0.7129E-01
    -20.668  0.5822E+00  0.7460E-01
    -20.663  0.5868E+00  0.7793E-01
    -20.657  0.5908E+00  0.8129E-01
    -20.651  0.5943E+00  0.8466E-01
    -20.646  0.5973E+00  0.8806E-01
    -20.640  0.5999E+00  0.9147E-01
    -20.634  0.6021E+00  0.9489E-01
    -20.628  0.6039E+00  0.9832E-01
    -20.623  0.6055E+00  0.1018E+00
    -20.617  0.6068E+00  0.1052E+00
    -20.611  0.6079E+00  0.1087E+00
    -20.606  0.6088E+00  0.1121E+00
    -20.600  0.6096E+00  0.1156E+00
    -20.594  0.6102E+00  0.1191E+00
    -20.589  0.6107E+00  0.1225E+00
    -20.583  0.6112E+00  0.1260E+00
    -20.577  0.6115E+00  0.1295E+00
    -20.572  0.6118E+00  0.1329E+00
    -20.566  0.6120E+00  0.1364E+00
    -20.560  0.6122E+00  0.1399E+00
    -20.555  0.6123E+00  0.1434E+00
    -20.549  0.6124E+00  0.1469E+00
    -20.543  0.6124E+00  0.1503E+00
    -20.538  0.6125E+00  0.1538E+00
    -20.532  0.6124E+00  0.1573E+00
    -20.526  0.6124E+00  0.1608E+00
    -20.520  0.6124E+00  0.1643E+00
    -20.515  0.6124E+00  0.1677E+00
    -20.509  0.6124E+00  0.1712E+00
    -20.503  0.6124E+00  0.1747E+00
    -20.498  0.6124E+00  0.1782E+00
    -20.492  0.6125E+00  0.1817E+00
    -20.486  0.6126E+00  0.1851E+00
    -20.481  0.6128E+00  0.1886E+00
    -20.475  0.6130E+00  0.1921E+00
    -20.469  0.6132E+00  0.1956E+00
    -20.464  0.6134E+00  0.1991E+00
    -20.458  0.6137E+00  0.2026E+00
    -20.452  0.6139E+00  0.2061E+00
    -20.447  0.6141E+00  0.2095E+00
    -20.441  0.6143E+00  0.2130E+00
    -20.435  0.6144E+00  0.2165E+00
    -20.430  0.6144E+00  0.2200E+00
    -20.424  0.6144E+00  0.2235E+00
    -20.418  0.6142E+00  0.2270E+00
    -20.413  0.6140E+00  0.2305E+00
    -20.407  0.6138E+00  0.2340E+00
    -20.401  0.6134E+00  0.2375E+00
    -20.395  0.6131E+00  0.2410E+00
    -20.390  0.6127E+00  0.2444E+00
    -20.384  0.6124E+00  0.2479E+00
    -20.378  0.6121E+00  0.2514E+00
    -20.373  0.6118E+00  0.2549E+00
    -20.367  0.6117E+00  0.2583E+00
    -20.361  0.6117E+00  0.2618E+00
    -20.356  0.6118E+00  0.2653E+00
    -20.350  0.6121E+00  0.2688E+00
    -20.344  0.6125E+00  0.2723E+00
    -20.339  0.6130E+00  0.2757E+00
    -20.333  0.6137E+00  0.2792E+00
    -20.327  0.6144E+00  0.2827E+00
    -20.322  0.6152E+00  0.2862E+00
    -20.316  0.6159E+00  0.2897E+00
    -20.310  0.6167E+00  0.2932E+00
    -20.305  0.6173E+00  0.2967E+00
    -20.299  0.6178E+00  0.3002E+00
    -20.293  0.6182E+00  0.3037E+00
    -20.288  0.6183E+00  0.3073E+00
    -20.282  0.6182E+00  0.3108E+00
    -20.276  0.6179E+00  0.3143E+00
    -20.270  0.6174E+00  0.3178E+00
    -20.265  0.6166E+00  0.3213E+00
    -20.259  0.6157E+00  0.3248E+00
    -20.253  0.6146E+00  0.3283E+00
    -20.248  0.6134E+00  0.3318E+00
    -20.242  0.6122E+00  0.3353E+00
    -20.236  0.6111E+00  0.3387E+00
    -20.231  0.6101E+00  0.3422E+00
    -20.225  0.6092E+00  0.3457E+00
    -20.219  0.6086E+00  0.3491E+00
    -20.214  0.6083E+00  0.3526E+00
    -20.208  0.6083E+00  0.3560E+00
    -20.202  0.6086E+00  0.3595E+00
    -20.197  0.6093E+00  0.3629E+00
    -20.191  0.6103E+00  0.3664E+00
    -20.185  0.6117E+00  0.3699E+00
    -20.180  0.6132E+00  0.3734E+00
    -20.174  0.6150E+00  0.3769E+00
    -20.168  0.6169E+00  0.3804E+00
    -20.162  0.6188E+00  0.3839E+00
    -20.157  0.6206E+00  0.3874E+00
    -20.151  0.6223E+00  0.3910E+00
    -20.145  0.6237E+00  0.3945E+00
    -20.140  0.6248E+00  0.3981E+00
    -20.134  0.6255E+00  0.4016E+00
    -20.128  0.6258E+00  0.4052E+00
    -20.123  0.6256E+00  0.4087E+00
    -20.117  0.6249E+00  0.4123E+00
    -20.111  0.6237E+00  0.4158E+00
    -20.106  0.6222E+00  0.4193E+00
    -20.100  0.6202E+00  0.4229E+00
    -20.094  0.6180E+00  0.4264E+00
    -20.089  0.6155E+00  0.4299E+00
    -20.083  0.6130E+00  0.4334E+00
    -20.077  0.6104E+00  0.4368E+00
    -20.072  0.6080E+00  0.4403E+00
    -20.066  0.6058E+00  0.4437E+00
    -20.060  0.6040E+00  0.4472E+00
    -20.055  0.6026E+00  0.4506E+00
    -20.049  0.6017E+00  0.4540E+00
    -20.043  0.6014E+00  0.4574E+00
    -20.037  0.6016E+00  0.4608E+00
    -20.032  0.6025E+00  0.4643E+00
    -20.026  0.6040E+00  0.4677E+00
    -20.020  0.6061E+00  0.4711E+00
    -20.015  0.6087E+00  0.4746E+00
    -20.009  0.6116E+00  0.4781E+00
    -20.003  0.6149E+00  0.4816E+00
    -19.998  0.6183E+00  0.4851E+00
    -19.992  0.6218E+00  0.4886E+00
    -19.986  0.6252E+00  0.4922E+00
    -19.981  0.6284E+00  0.4957E+00
    -19.975  0.6313E+00  0.4993E+00
    -19.969  0.6336E+00  0.5029E+00
    -19.964  0.6354E+00  0.5065E+00
    -19.958  0.6366E+00  0.5102E+00
    -19.952  0.6370E+00  0.5138E+00
    -19.947  0.6366E+00  0.5174E+00
    -19.941  0.6356E+00  0.5210E+00
    -19.935  0.6337E+00  0.5246E+00
    -19.930  0.6312E+00  0.5282E+00
    -19.924  0.6281E+00  0.5318E+00
    -19.918  0.6245E+00  0.5353E+00
    -19.912  0.6204E+00  0.5388E+00
    -19.907  0.6162E+00  0.5423E+00
    -19.901  0.6118E+00  0.5458E+00
    -19.895  0.6076E+00  0.5493E+00
    -19.890  0.6035E+00  0.5527E+00
    -19.884  0.5998E+00  0.5561E+00
    -19.878  0.5967E+00  0.5595E+00
    -19.873  0.5941E+00  0.5629E+00
    -19.867  0.5924E+00  0.5662E+00
    -19.861  0.5914E+00  0.5696E+00
    -19.856  0.5913E+00  0.5730E+00
    -19.850  0.5922E+00  0.5763E+00
    -19.844  0.5939E+00  0.5797E+00
    -19.839  0.5964E+00  0.5831E+00
    -19.833  0.5998E+00  0.5865E+00
    -19.827  0.6038E+00  0.5899E+00
    -19.822  0.6083E+00  0.5934E+00
    -19.816  0.6133E+00  0.5969E+00
    -19.810  0.6185E+00  0.6004E+00
    -19.804  0.6239E+00  0.6039E+00
    -19.799  0.6291E+00  0.6075E+00
    -19.793  0.6341E+00  0.6111E+00
    -19.787  0.6387E+00  0.6147E+00
    -19.782  0.6427E+00  0.6184E+00
    -19.776  0.6460E+00  0.6221E+00
    -19.770  0.6485E+00  0.6257E+00
    -19.765  0.6502E+00  0.6294E+00
    -19.759  0.6508E+00  0.6331E+00
    -19.753  0.6505E+00  0.6368E+00
    -19.748  0.6492E+00  0.6405E+00
    -19.742  0.6470E+00  0.6442E+00
    -19.736  0.6438E+00  0.6479E+00
    -19.731  0.6398E+00  0.6515E+00
    -19.725  0.6351E+00  0.6551E+00
    -19.719  0.6298E+00  0.6587E+00
    -19.714  0.6240E+00  0.6622E+00
    -19.708  0.6180E+00  0.6657E+00
    -19.702  0.6118E+00  0.6692E+00
    -19.697  0.6058E+00  0.6727E+00
    -19.691  0.6000E+00  0.6761E+00
    -19.685  0.5946E+00  0.6794E+00
    -19.679  0.5898E+00  0.6828E+00
    -19.674  0.5857E+00  0.6861E+00
    -19.668  0.5826E+00  0.6894E+00
    -19.662  0.5804E+00  0.6927E+00
    -19.657  0.5793E+00  0.6960E+00
    -19.651  0.5793E+00  0.6993E+00
    -19.645  0.5804E+00  0.7026E+00
    -19.640  0.5827E+00  0.7059E+00
    -19.634  0.5860E+00  0.7093E+00
    -19.628  0.5904E+00  0.7126E+00
    -19.623  0.5957E+00  0.7160E+00
    -19.617  0.6017E+00  0.7194E+00
    -19.611  0.6083E+00  0.7229E+00
    -19.606  0.6154E+00  0.7264E+00
    -19.600  0.6227E+00  0.7299E+00
    -19.594  0.6300E+00  0.7335E+00
    -19.589  0.6371E+00  0.7371E+00
    -19.583  0.6438E+00  0.7408E+00
    -19.577  0.6500E+00  0.7445E+00
    -19.572  0.6554E+00  0.7482E+00
    -19.566  0.6599E+00  0.7519E+00
    -19.560  0.6634E+00  0.7557E+00
    -19.554  0.6658E+00  0.7595E+00
    -19.549  0.6669E+00  0.7633E+00
    -19.543  0.6669E+00  0.7671E+00
    -19.537  0.6656E+00  0.7708E+00
    -19.532  0.6631E+00  0.7746E+00
    -19.526  0.6595E+00  0.7784E+00
    -19.520  0.6549E+00  0.7821E+00
    -19.515  0.6493E+00  0.7858E+00
    -19.509  0.6430E+00  0.7894E+00
    -19.503  0.6361E+00  0.7930E+00
    -19.498  0.6287E+00  0.7966E+00
    -19.492  0.6211E+00  0.8001E+00
    -19.486  0.6134E+00  0.8036E+00
    -19.481  0.6058E+00  0.8071E+00
    -19.475  0.5985E+00  0.8105E+00
    -19.469  0.5917E+00  0.8138E+00
    -19.464  0.5855E+00  0.8172E+00
    -19.458  0.5800E+00  0.8205E+00
    -19.452  0.5754E+00  0.8237E+00
    -19.446  0.5719E+00  0.8270E+00
    -19.441  0.5694E+00  0.8302E+00
    -19.435  0.5681E+00  0.8334E+00
    -19.429  0.5680E+00  0.8367E+00
    -19.424  0.5690E+00  0.8399E+00
    -19.418  0.5713E+00  0.8432E+00
    -19.412  0.5748E+00  0.8464E+00
    -19.407  0.5794E+00  0.8497E+00
    -19.401  0.5850E+00  0.8530E+00
    -19.395  0.5916E+00  0.8564E+00
    -19.390  0.5989E+00  0.8598E+00
    -19.384  0.6069E+00  0.8632E+00
    -19.378  0.6153E+00  0.8667E+00
    -19.373  0.6241E+00  0.8703E+00
    -19.367  0.6329E+00  0.8739E+00
    -19.361  0.6416E+00  0.8775E+00
    -19.356  0.6501E+00  0.8812E+00
    -19.350  0.6579E+00  0.8850E+00
    -19.344  0.6651E+00  0.8887E+00
    -19.339  0.6714E+00  0.8926E+00
    -19.333  0.6766E+00  0.8964E+00
    -19.327  0.6806E+00  0.9003E+00
    -19.321  0.6833E+00  0.9042E+00
    -19.316  0.6847E+00  0.9080E+00
    -19.310  0.6846E+00  0.9119E+00
    -19.304  0.6830E+00  0.9158E+00
    -19.299  0.6801E+00  0.9197E+00
    -19.293  0.6757E+00  0.9235E+00
    -19.287  0.6702E+00  0.9273E+00
    -19.282  0.6635E+00  0.9311E+00
    -19.276  0.6558E+00  0.9348E+00
    -19.270  0.6473E+00  0.9385E+00
    -19.265  0.6382E+00  0.9421E+00
    -19.259  0.6287E+00  0.9457E+00
    -19.253  0.6191E+00  0.9492E+00
    -19.248  0.6095E+00  0.9527E+00
    -19.242  0.6001E+00  0.9561E+00
    -19.236  0.5912E+00  0.9595E+00
    -19.231  0.5830E+00  0.9628E+00
    -19.225  0.5755E+00  0.9660E+00
    -19.219  0.5691E+00  0.9693E+00
    -19.214  0.5638E+00  0.9725E+00
    -19.208  0.5597E+00  0.9757E+00
    -19.202  0.5569E+00  0.9788E+00
    -19.196  0.5555E+00  0.9820E+00
    -19.191  0.5554E+00  0.9851E+00
    -19.185  0.5567E+00  0.9883E+00
    -19.179  0.5593E+00  0.9915E+00
    -19.174  0.5632E+00  0.9947E+00
    -19.168  0.5683E+00  0.9979E+00
    -19.162  0.5744E+00  0.1001E+01
    -19.157  0.5815E+00  0.1004E+01
    -19.151  0.5895E+00  0.1008E+01
    -19.145  0.5981E+00  0.1011E+01
    -19.140  0.6072E+00  0.1015E+01
    -19.134  0.6166E+00  0.1018E+01
    -19.128  0.6262E+00  0.1022E+01
    -19.123  0.6358E+00  0.1025E+01
    -19.117  0.6452E+00  0.1029E+01
    -19.111  0.6543E+00  0.1033E+01
    -19.106  0.6629E+00  0.1037E+01
    -19.100  0.6708E+00  0.1040E+01
    -19.094  0.6779E+00  0.1044E+01
    -19.088  0.6841E+00  0.1048E+01
    -19.083  0.6893E+00  0.1052E+01
    -19.077  0.6933E+00  0.1056E+01
    -19.071  0.6961E+00  0.1060E+01
    -19.066  0.6976E+00  0.1064E+01
    -19.060  0.6978E+00  0.1068E+01
    -19.054  0.6967E+00  0.1072E+01
    -19.049  0.6942E+00  0.1076E+01
    -19.043  0.6905E+00  0.1080E+01
    -19.037  0.6855E+00  0.1084E+01
    -19.032  0.6793E+00  0.1087E+01
    -19.026  0.6720E+00  0.1091E+01
    -19.020  0.6638E+00  0.1095E+01
    -19.015  0.6547E+00  0.1099E+01
    -19.009  0.6449E+00  0.1102E+01
    -19.003  0.6347E+00  0.1106E+01
    -18.998  0.6240E+00  0.1110E+01
    -18.992  0.6133E+00  0.1113E+01
    -18.986  0.6026E+00  0.1116E+01
    -18.981  0.5922E+00  0.1120E+01
    -18.975  0.5822E+00  0.1123E+01
    -18.969  0.5730E+00  0.1126E+01
    -18.963  0.5645E+00  0.1130E+01
    -18.958  0.5571E+00  0.1133E+01
    -18.952  0.5509E+00  0.1136E+01
    -18.946  0.5460E+00  0.1139E+01
    -18.941  0.5426E+00  0.1142E+01
    -18.935  0.5407E+00  0.1145E+01
    -18.929  0.5404E+00  0.1148E+01
    -18.924  0.5417E+00  0.1151E+01
    -18.918  0.5446E+00  0.1154E+01
    -18.912  0.5491E+00  0.1157E+01
    -18.907  0.5550E+00  0.1161E+01
    -18.901  0.5624E+00  0.1164E+01
    -18.895  0.5710E+00  0.1167E+01
    -18.890  0.5807E+00  0.1170E+01
    -18.884  0.5912E+00  0.1174E+01
    -18.878  0.6025E+00  0.1177E+01
    -18.873  0.6142E+00  0.1181E+01
    -18.867  0.6261E+00  0.1184E+01
    -18.861  0.6379E+00  0.1188E+01
    -18.856  0.6496E+00  0.1192E+01
    -18.850  0.6607E+00  0.1195E+01
    -18.844  0.6712E+00  0.1199E+01
    -18.838  0.6807E+00  0.1203E+01
    -18.833  0.6893E+00  0.1207E+01
    -18.827  0.6966E+00  0.1211E+01
    -18.821  0.7026E+00  0.1215E+01
    -18.816  0.7073E+00  0.1219E+01
    -18.810  0.7106E+00  0.1223E+01
    -18.804  0.7124E+00  0.1227E+01
    -18.799  0.7127E+00  0.1231E+01
    -18.793  0.7117E+00  0.1235E+01
    -18.787  0.7094E+00  0.1239E+01
    -18.782  0.7058E+00  0.1243E+01
    -18.776  0.7011E+00  0.1247E+01
    -18.770  0.6954E+00  0.1251E+01
    -18.765  0.6887E+00  0.1255E+01
    -18.759  0.6812E+00  0.1259E+01
    -18.753  0.6730E+00  0.1263E+01
    -18.748  0.6643E+00  0.1266E+01
    -18.742  0.6551E+00  0.1270E+01
    -18.736  0.6456E+00  0.1274E+01
    -18.730  0.6359E+00  0.1277E+01
    -18.725  0.6260E+00  0.1281E+01
    -18.719  0.6162E+00  0.1284E+01
    -18.713  0.6064E+00  0.1288E+01
    -18.708  0.5969E+00  0.1291E+01
    -18.702  0.5876E+00  0.1295E+01
    -18.696  0.5788E+00  0.1298E+01
    -18.691  0.5704E+00  0.1301E+01
    -18.685  0.5627E+00  0.1304E+01
    -18.679  0.5557E+00  0.1308E+01
    -18.674  0.5496E+00  0.1311E+01
    -18.668  0.5445E+00  0.1314E+01
    -18.662  0.5404E+00  0.1317E+01
    -18.657  0.5375E+00  0.1320E+01
    -18.651  0.5359E+00  0.1323E+01
    -18.645  0.5357E+00  0.1326E+01
    -18.640  0.5368E+00  0.1329E+01
    -18.634  0.5395E+00  0.1332E+01
    -18.628  0.5436E+00  0.1335E+01
    -18.623  0.5492E+00  0.1338E+01
    -18.617  0.5563E+00  0.1341E+01
    -18.611  0.5647E+00  0.1345E+01
    -18.605  0.5745E+00  0.1348E+01
    -18.600  0.5853E+00  0.1351E+01
    -18.594  0.5972E+00  0.1355E+01
    -18.588  0.6099E+00  0.1358E+01
    -18.583  0.6231E+00  0.1362E+01
    -18.577  0.6367E+00  0.1365E+01
    -18.571  0.6504E+00  0.1369E+01
    -18.566  0.6639E+00  0.1373E+01
    -18.560  0.6770E+00  0.1377E+01
    -18.554  0.6893E+00  0.1380E+01
    -18.549  0.7007E+00  0.1384E+01
    -18.543  0.7109E+00  0.1388E+01
    -18.537  0.7198E+00  0.1393E+01
    -18.532  0.7270E+00  0.1397E+01
    -18.526  0.7326E+00  0.1401E+01
    -18.520  0.7363E+00  0.1405E+01
    -18.515  0.7382E+00  0.1409E+01
    -18.509  0.7382E+00  0.1413E+01
    -18.503  0.7363E+00  0.1418E+01
    -18.498  0.7326E+00  0.1422E+01
    -18.492  0.7273E+00  0.1426E+01
    -18.486  0.7204E+00  0.1430E+01
    -18.480  0.7121E+00  0.1434E+01
    -18.475  0.7027E+00  0.1438E+01
    -18.469  0.6923E+00  0.1442E+01
    -18.463  0.6811E+00  0.1446E+01
    -18.458  0.6694E+00  0.1450E+01
    -18.452  0.6574E+00  0.1453E+01
    -18.446  0.6453E+00  0.1457E+01
    -18.441  0.6334E+00  0.1461E+01
    -18.435  0.6216E+00  0.1464E+01
    -18.429  0.6103E+00  0.1468E+01
    -18.424  0.5996E+00  0.1471E+01
    -18.418  0.5896E+00  0.1474E+01
    -18.412  0.5803E+00  0.1478E+01
    -18.407  0.5719E+00  0.1481E+01
    -18.401  0.5643E+00  0.1484E+01
    -18.395  0.5577E+00  0.1487E+01
    -18.390  0.5520E+00  0.1490E+01
    -18.384  0.5473E+00  0.1494E+01
    -18.378  0.5435E+00  0.1497E+01
    -18.372  0.5407E+00  0.1500E+01
    -18.367  0.5388E+00  0.1503E+01
    -18.361  0.5379E+00  0.1506E+01
    -18.355  0.5380E+00  0.1509E+01
    -18.350  0.5391E+00  0.1512E+01
    -18.344  0.5411E+00  0.1515E+01
    -18.338  0.5441E+00  0.1518E+01
    -18.333  0.5480E+00  0.1521E+01
    -18.327  0.5530E+00  0.1524E+01
    -18.321  0.5589E+00  0.1528E+01
    -18.316  0.5658E+00  0.1531E+01
    -18.310  0.5736E+00  0.1534E+01
    -18.304  0.5823E+00  0.1537E+01
    -18.299  0.5918E+00  0.1541E+01
    -18.293  0.6020E+00  0.1544E+01
    -18.287  0.6129E+00  0.1548E+01
    -18.282  0.6243E+00  0.1551E+01
    -18.276  0.6360E+00  0.1555E+01
    -18.270  0.6481E+00  0.1559E+01
    -18.265  0.6602E+00  0.1562E+01
    -18.259  0.6723E+00  0.1566E+01
    -18.253  0.6841E+00  0.1570E+01
    -18.247  0.6954E+00  0.1574E+01
    -18.242  0.7062E+00  0.1578E+01
    -18.236  0.7161E+00  0.1582E+01
    -18.230  0.7251E+00  0.1586E+01
    -18.225  0.7329E+00  0.1590E+01
    -18.219  0.7394E+00  0.1594E+01
    -18.213  0.7445E+00  0.1599E+01
    -18.208  0.7481E+00  0.1603E+01
    -18.202  0.7501E+00  0.1607E+01
    -18.196  0.7504E+00  0.1611E+01
    -18.191  0.7490E+00  0.1616E+01
    -18.185  0.7459E+00  0.1620E+01
    -18.179  0.7411E+00  0.1624E+01
    -18.174  0.7347E+00  0.1628E+01
    -18.168  0.7268E+00  0.1633E+01
    -18.162  0.7175E+00  0.1637E+01
    -18.157  0.7068E+00  0.1641E+01
    -18.151  0.6951E+00  0.1645E+01
    -18.145  0.6825E+00  0.1648E+01
    -18.140  0.6691E+00  0.1652E+01
    -18.134  0.6552E+00  0.1656E+01
    -18.128  0.6410E+00  0.1660E+01
    -18.122  0.6268E+00  0.1663E+01
    -18.117  0.6127E+00  0.1667E+01
    -18.111  0.5989E+00  0.1670E+01
    -18.105  0.5858E+00  0.1673E+01
    -18.100  0.5734E+00  0.1677E+01
    -18.094  0.5619E+00  0.1680E+01
    -18.088  0.5516E+00  0.1683E+01
    -18.083  0.5424E+00  0.1686E+01
    -18.077  0.5346E+00  0.1689E+01
    -18.071  0.5283E+00  0.1692E+01
    -18.066  0.5234E+00  0.1695E+01
    -18.060  0.5201E+00  0.1698E+01
    -18.054  0.5182E+00  0.1701E+01
    -18.049  0.5179E+00  0.1704E+01
    -18.043  0.5191E+00  0.1707E+01
    -18.037  0.5218E+00  0.1710E+01
    -18.032  0.5258E+00  0.1713E+01
    -18.026  0.5312E+00  0.1716E+01
    -18.020  0.5377E+00  0.1719E+01
    -18.014  0.5454E+00  0.1722E+01
    -18.009  0.5541E+00  0.1725E+01
    -18.003  0.5637E+00  0.1728E+01
    -17.997  0.5741E+00  0.1732E+01
    -17.992  0.5851E+00  0.1735E+01
    -17.986  0.5967E+00  0.1738E+01
    -17.980  0.6086E+00  0.1742E+01
    -17.975  0.6208E+00  0.1745E+01
    -17.969  0.6331E+00  0.1749E+01
    -17.963  0.6453E+00  0.1753E+01
    -17.958  0.6574E+00  0.1756E+01
    -17.952  0.6691E+00  0.1760E+01
    -17.946  0.6804E+00  0.1764E+01
    -17.941  0.6910E+00  0.1768E+01
    -17.935  0.7010E+00  0.1772E+01
    -17.929  0.7102E+00  0.1776E+01
    -17.924  0.7184E+00  0.1780E+01
    -17.918  0.7257E+00  0.1784E+01
    -17.912  0.7319E+00  0.1788E+01
    -17.907  0.7370E+00  0.1792E+01
    -17.901  0.7410E+00  0.1797E+01
    -17.895  0.7439E+00  0.1801E+01
    -17.889  0.7456E+00  0.1805E+01
    -17.884  0.7462E+00  0.1809E+01
    -17.878  0.7458E+00  0.1814E+01
    -17.872  0.7443E+00  0.1818E+01
    -17.867  0.7418E+00  0.1822E+01
    -17.861  0.7384E+00  0.1826E+01
    -17.855  0.7341E+00  0.1830E+01
    -17.850  0.7290E+00  0.1835E+01
    -17.844  0.7230E+00  0.1839E+01
    -17.838  0.7163E+00  0.1843E+01
    -17.833  0.7089E+00  0.1847E+01
    -17.827  0.7009E+00  0.1851E+01
    -17.821  0.6922E+00  0.1855E+01
    -17.816  0.6830E+00  0.1859E+01
    -17.810  0.6732E+00  0.1862E+01
    -17.804  0.6628E+00  0.1866E+01
    -17.799  0.6521E+00  0.1870E+01
    -17.793  0.6409E+00  0.1874E+01
    -17.787  0.6294E+00  0.1877E+01
    -17.782  0.6177E+00  0.1881E+01
    -17.776  0.6058E+00  0.1884E+01
    -17.770  0.5940E+00  0.1887E+01
    -17.764  0.5822E+00  0.1891E+01
    -17.759  0.5707E+00  0.1894E+01
    -17.753  0.5595E+00  0.1897E+01
    -17.747  0.5490E+00  0.1900E+01
    -17.742  0.5392E+00  0.1903E+01
    -17.736  0.5304E+00  0.1906E+01
    -17.730  0.5227E+00  0.1909E+01
    -17.725  0.5162E+00  0.1912E+01
    -17.719  0.5111E+00  0.1915E+01
    -17.713  0.5076E+00  0.1918E+01
    -17.708  0.5058E+00  0.1921E+01
    -17.702  0.5058E+00  0.1924E+01
    -17.696  0.5075E+00  0.1927E+01
    -17.691  0.5111E+00  0.1930E+01
    -17.685  0.5166E+00  0.1933E+01
    -17.679  0.5239E+00  0.1935E+01
    -17.674  0.5329E+00  0.1939E+01
    -17.668  0.5435E+00  0.1942E+01
    -17.662  0.5556E+00  0.1945E+01
    -17.656  0.5690E+00  0.1948E+01