   2   2   0   0
  0.5238761E+02  0.2459512E-09  0.2459512E-09  0.2000000E-08  0.5000000E-15
  1.000000000000000E-004
  CAR 
 C:graphene                              
     11.84383076    -23.92498610  301     -2.72502119      1.00000000
    -23.925  0.0000E+00  0.0000E+00
    -23.806  0.0000E+00  0.0000E+00
    -23.687  0.0000E+00  0.0000E+00
    -23.567  0.0000E+00  0.0000E+00
    -23.448  0.0000E+00  0.0000E+00
    -23.329  0.0000E+00  0.0000E+00
    -23.210  0.0000E+00  0.0000E+00
    -23.090  0.0000E+00  0.0000E+00
    -22.971  0.0000E+00  0.0000E+00
    -22.852  0.0000E+00  0.0000E+00
    -22.733  0.0000E+00  0.0000E+00
    -22.613  0.0000E+00  0.0000E+00
    -22.494  0.0000E+00  0.0000E+00
    -22.375  0.0000E+00  0.0000E+00
    -22.256  0.5383E-01  0.6418E-02
    -22.137  0.1291E+00  0.4714E-01
    -22.017  0.2282E+00  0.8617E-01
    -21.898  0.4563E+00  0.1406E+00
    -21.779  0.2282E+00  0.1678E+00
    -21.660  0.6058E-01  0.1750E+00
    -21.540  0.4564E+00  0.2494E+00
    -21.421  0.2278E+00  0.2766E+00
    -21.302  0.1004E-02  0.2768E+00
    -21.183  0.6816E-01  0.3392E+00
    -21.063  0.0000E+00  0.3855E+00
    -20.944  0.2273E+00  0.4126E+00
    -20.825  0.2290E+00  0.4400E+00
    -20.706  0.0000E+00  0.4943E+00
    -20.587  0.4564E+00  0.5488E+00
    -20.467  0.0000E+00  0.5488E+00
    -20.348  0.2310E+00  0.5763E+00
    -20.229  0.1374E+00  0.6468E+00
    -20.110  0.0000E+00  0.6848E+00
    -19.990  0.4564E+00  0.7392E+00
    -19.871  0.0000E+00  0.7392E+00
    -19.752  0.1654E+00  0.7590E+00
    -19.633  0.6847E+00  0.8481E+00
    -19.513  0.4564E+00  0.9025E+00
    -19.394  0.0000E+00  0.9025E+00
    -19.275  0.4469E+00  0.9558E+00
    -19.156  0.0000E+00  0.9569E+00
    -19.037  0.4564E+00  0.1011E+01
    -18.917  0.6782E+00  0.1092E+01
    -18.798  0.1668E-02  0.1093E+01
    -18.679  0.0000E+00  0.1147E+01
    -18.560  0.0000E+00  0.1147E+01
    -18.440  0.4564E+00  0.1202E+01
    -18.321  0.5943E+00  0.1273E+01
    -18.202  0.1630E-03  0.1283E+01
    -18.083  0.9700E-01  0.1349E+01
    -17.964  0.7822E-05  0.1365E+01
    -17.844  0.0000E+00  0.1420E+01
    -17.725  0.0000E+00  0.1420E+01
    -17.606  0.2738E+00  0.1452E+01
    -17.487  0.4191E+00  0.1578E+01
    -17.367  0.4152E-11  0.1583E+01
    -17.248  0.4682E+00  0.1639E+01
    -17.129  0.7011E-06  0.1664E+01
    -17.010  0.3165E-03  0.1719E+01
    -16.890  0.0000E+00  0.1746E+01
    -16.771  0.2307E+00  0.1774E+01
    -16.652  0.6846E+00  0.1909E+01
    -16.533  0.0000E+00  0.1909E+01
    -16.414  0.0000E+00  0.1909E+01
    -16.294  0.0000E+00  0.1909E+01
    -16.175  0.5492E-02  0.1910E+01
    -16.056  0.2534E-16  0.1937E+01
    -15.937  0.6847E+00  0.2018E+01
    -15.817  0.1425E-11  0.2018E+01
    -15.698  0.3919E+00  0.2065E+01
    -15.579  0.4564E+00  0.2127E+01
    -15.460  0.0000E+00  0.2127E+01
    -15.340  0.5420E-01  0.2133E+01
    -15.221  0.1141E+01  0.2281E+01
    -15.102  0.0000E+00  0.2281E+01
    -14.983  0.4564E+00  0.2336E+01
    -14.864  0.4564E+00  0.2390E+01
    -14.744  0.2279E+00  0.2417E+01
    -14.625  0.7701E+00  0.2509E+01
    -14.506  0.0000E+00  0.2526E+01
    -14.387  0.2534E-16  0.2526E+01
    -14.267  0.4576E+00  0.2581E+01
    -14.148  0.4543E+00  0.2662E+01
    -14.029  0.0000E+00  0.2662E+01
    -13.910  0.4564E+00  0.2717E+01
    -13.790  0.0000E+00  0.2717E+01
    -13.671  0.4564E+00  0.2771E+01
    -13.552  0.2282E+00  0.2798E+01
    -13.433  0.4564E+00  0.2853E+01
    -13.314  0.7491E-01  0.2862E+01
    -13.194  0.0000E+00  0.2916E+01
    -13.075  0.0000E+00  0.2916E+01
    -12.956  0.9051E+00  0.3024E+01
    -12.837  0.2307E+00  0.3052E+01
    -12.717  0.0000E+00  0.3107E+01
    -12.598  0.2282E+00  0.3134E+01
    -12.479  0.0000E+00  0.3134E+01
    -12.360  0.2195E+00  0.3160E+01
    -12.241  0.1127E+01  0.3295E+01
    -12.121  0.0000E+00  0.3351E+01
    -12.002  0.0000E+00  0.3351E+01
    -11.883  0.4564E+00  0.3406E+01
    -11.764  0.2382E-06  0.3406E+01
    -11.644  0.4564E+00  0.3515E+01
    -11.525  0.0000E+00  0.3515E+01
    -11.406  0.6874E-01  0.3523E+01
    -11.287  0.2302E+00  0.3624E+01
    -11.167  0.1267E-16  0.3678E+01
    -11.048  0.6847E+00  0.3760E+01
    -10.929  0.4564E+00  0.3814E+01
    -10.810  0.0000E+00  0.3814E+01
    -10.691  0.0000E+00  0.3814E+01
    -10.571  0.4512E+00  0.3868E+01
    -10.452  0.9124E+00  0.4059E+01
    -10.333  0.2739E+00  0.4092E+01
    -10.214  0.6281E-02  0.4146E+01
    -10.094  0.2282E+00  0.4200E+01
     -9.975  0.4564E+00  0.4254E+01
     -9.856  0.6978E+00  0.4392E+01
     -9.737  0.2283E+00  0.4499E+01
     -9.617  0.7252E+00  0.4640E+01
     -9.498  0.5617E+00  0.4729E+01
     -9.379  0.5092E-01  0.4777E+01
     -9.260  0.6954E+00  0.4881E+01
     -9.141  0.1037E+01  0.5058E+01
     -9.021  0.1134E+01  0.5260E+01
     -8.902  0.8589E-10  0.5261E+01
     -8.783  0.1366E+01  0.5424E+01
     -8.664  0.2281E+00  0.5506E+01
     -8.544  0.5719E-05  0.5587E+01
     -8.425  0.9151E+00  0.5724E+01
     -8.306  0.7601E-16  0.5751E+01
     -8.187  0.4564E+00  0.5805E+01
     -8.067  0.1437E+01  0.5976E+01
     -7.948  0.4255E+00  0.6073E+01
     -7.829  0.2282E+00  0.6104E+01
     -7.710  0.4507E+00  0.6158E+01
     -7.591  0.2282E+00  0.6240E+01
     -7.471  0.2282E+00  0.6322E+01
     -7.352  0.8885E+00  0.6428E+01
     -7.233  0.3101E-06  0.6431E+01
     -7.114  0.4957E+00  0.6544E+01
     -6.994  0.6847E+00  0.6649E+01
     -6.875  0.4564E+00  0.6703E+01
     -6.756  0.0000E+00  0.6703E+01
     -6.637  0.6201E+00  0.6777E+01
     -6.517  0.1255E+01  0.6934E+01
     -6.398  0.1706E-02  0.6948E+01
     -6.279  0.0000E+00  0.7029E+01
     -6.160  0.2282E+00  0.7057E+01
     -6.041  0.6847E+00  0.7138E+01
     -5.921  0.2282E+00  0.7166E+01
     -5.802  0.6847E+00  0.7274E+01
     -5.683  0.7607E+00  0.7365E+01
     -5.564  0.4325E+00  0.7417E+01
     -5.444  0.0000E+00  0.7420E+01
     -5.325  0.4564E+00  0.7474E+01
     -5.206  0.9428E-03  0.7474E+01
     -5.087  0.3118E-03  0.7501E+01
     -4.968  0.1369E+01  0.7746E+01
     -4.848  0.0000E+00  0.7746E+01
     -4.729  0.0000E+00  0.7746E+01
     -4.610  0.2282E+00  0.7773E+01
     -4.491  0.0000E+00  0.7773E+01
     -4.371  0.4564E+00  0.7828E+01
     -4.252  0.4681E+00  0.7883E+01
     -4.133  0.0000E+00  0.7909E+01
     -4.014  0.0000E+00  0.7909E+01
     -3.894  0.2522E-02  0.7910E+01
     -3.775  0.0000E+00  0.7937E+01
     -3.656  0.0000E+00  0.7937E+01
     -3.537  0.3453E-06  0.7937E+01
     -3.418  0.0000E+00  0.7991E+01
     -3.298  0.0000E+00  0.7991E+01
     -3.179  0.0000E+00  0.7991E+01
     -3.060  0.0000E+00  0.7991E+01
     -2.941  0.0000E+00  0.7991E+01
     -2.821  0.0000E+00  0.7991E+01
     -2.702  0.1521E+00  0.8009E+01
     -2.583  0.0000E+00  0.8009E+01
     -2.464  0.0000E+00  0.8009E+01
     -2.344  0.0000E+00  0.8009E+01
     -2.225  0.0000E+00  0.8009E+01
     -2.106  0.0000E+00  0.8009E+01
     -1.987  0.2217E-02  0.8009E+01
     -1.868  0.0000E+00  0.8063E+01
     -1.748  0.0000E+00  0.8063E+01
     -1.629  0.2282E+00  0.8091E+01
     -1.510  0.0000E+00  0.8091E+01
     -1.391  0.0000E+00  0.8091E+01
     -1.271  0.1229E-01  0.8092E+01
     -1.152  0.4564E+00  0.8254E+01
     -1.033  0.2279E+00  0.8281E+01
     -0.914  0.6842E+00  0.8363E+01
     -0.794  0.1653E-01  0.8365E+01
     -0.675  0.5804E-05  0.8417E+01
     -0.556  0.3201E-02  0.8472E+01
     -0.437  0.0000E+00  0.8526E+01
     -0.318  0.4564E+00  0.8580E+01
     -0.198  0.5176E+00  0.8642E+01
     -0.079  0.0000E+00  0.8662E+01
      0.040  0.0000E+00  0.8662E+01
      0.159  0.3769E+00  0.8707E+01
      0.279  0.1037E-09  0.8717E+01
      0.398  0.4564E+00  0.8771E+01
      0.517  0.4636E+00  0.8826E+01
      0.636  0.4564E+00  0.8884E+01
      0.755  0.2205E+00  0.8911E+01
      0.875  0.6847E+00  0.8993E+01
      0.994  0.2282E+00  0.9020E+01
      1.113  0.4564E+00  0.9075E+01
      1.232  0.2282E+00  0.9102E+01
      1.352  0.4945E+00  0.9161E+01
      1.471  0.6177E+00  0.9235E+01
      1.590  0.1141E+01  0.9406E+01
      1.709  0.2640E+00  0.9465E+01
      1.829  0.2393E+00  0.9493E+01
      1.948  0.6847E+00  0.9628E+01
      2.067  0.8855E+00  0.9734E+01
      2.186  0.6565E-04  0.9791E+01
      2.305  0.4553E+00  0.9955E+01
      2.425  0.4564E+00  0.1001E+02
      2.544  0.9130E+00  0.1012E+02
      2.663  0.6503E+00  0.1025E+02
      2.782  0.5892E+00  0.1038E+02
      2.902  0.1520E+01  0.1060E+02
      3.021  0.0000E+00  0.1061E+02
      3.140  0.9372E+00  0.1072E+02
      3.259  0.5565E+00  0.1084E+02
      3.379  0.1167E+01  0.1105E+02
      3.498  0.2648E+00  0.1113E+02
      3.617  0.1141E+01  0.1129E+02
      3.736  0.6842E+00  0.1143E+02
      3.855  0.6847E+00  0.1151E+02
      3.975  0.3422E-06  0.1151E+02
      4.094  0.1720E+01  0.1177E+02
      4.213  0.1011E+01  0.1193E+02
      4.332  0.4558E+00  0.1203E+02
      4.452  0.4666E+00  0.1208E+02
      4.571  0.6422E+00  0.1221E+02
      4.690  0.9129E+00  0.1238E+02
      4.809  0.4562E+00  0.1244E+02
      4.929  0.1003E+01  0.1258E+02
      5.048  0.6887E+00  0.1276E+02
      5.167  0.8471E+00  0.1294E+02
      5.286  0.7539E+00  0.1304E+02
      5.405  0.9129E+00  0.1317E+02
      5.525  0.1859E-01  0.1317E+02
      5.644  0.4568E+00  0.1328E+02
      5.763  0.5161E+00  0.1339E+02
      5.882  0.9126E+00  0.1355E+02
      6.002  0.6847E+00  0.1363E+02
      6.121  0.6847E+00  0.1371E+02
      6.240  0.1925E+00  0.1374E+02
      6.359  0.3499E-13  0.1388E+02
      6.479  0.6847E+00  0.1396E+02
      6.598  0.6422E-08  0.1396E+02
      6.717  0.1634E+01  0.1415E+02
      6.836  0.9074E+00  0.1429E+02
      6.955  0.0000E+00  0.1429E+02
      7.075  0.4428E+00  0.1434E+02
      7.194  0.4564E+00  0.1445E+02
      7.313  0.8175E+00  0.1455E+02
      7.432  0.4565E+00  0.1461E+02
      7.552  0.2446E+00  0.1470E+02
      7.671  0.4563E+00  0.1478E+02
      7.790  0.2279E+00  0.1480E+02
      7.909  0.5003E+00  0.1486E+02
      8.028  0.1790E+01  0.1513E+02
      8.148  0.2293E-12  0.1517E+02
      8.267  0.9806E+00  0.1528E+02
      8.386  0.4564E+00  0.1538E+02
      8.505  0.4069E+00  0.1543E+02
      8.625  0.1041E+01  0.1559E+02
      8.744  0.1223E-01  0.1563E+02
      8.863  0.2282E+00  0.1571E+02
      8.982  0.0000E+00  0.1571E+02
      9.102  0.2282E+00  0.1574E+02
      9.221  0.2282E+00  0.1576E+02
      9.340  0.4564E+00  0.1582E+02
      9.459  0.2521E+00  0.1585E+02
      9.578  0.2282E+00  0.1590E+02
      9.698  0.0000E+00  0.1590E+02
      9.817  0.2282E+00  0.1593E+02
      9.936  0.0000E+00  0.1593E+02
     10.055  0.0000E+00  0.1593E+02
     10.175  0.2262E-05  0.1593E+02
     10.294  0.1521E+00  0.1600E+02
     10.413  0.0000E+00  0.1600E+02
     10.532  0.0000E+00  0.1600E+02
     10.652  0.0000E+00  0.1600E+02
     10.771  0.0000E+00  0.1600E+02
     10.890  0.0000E+00  0.1600E+02
     11.009  0.0000E+00  0.1600E+02
     11.128  0.0000E+00  0.1600E+02
     11.248  0.0000E+00  0.1600E+02
     11.367  0.0000E+00  0.1600E+02
     11.486  0.0000E+00  0.1600E+02
     11.605  0.0000E+00  0.1600E+02
     11.725  0.0000E+00  0.1600E+02
     11.844  0.0000E+00  0.1600E+02
