 running on    4 total cores
 distrk:  each k-point on    4 cores,    1 groups
 distr:  one band on    1 cores,    4 groups
 using from now: INCAR     
 vasp.5.4.4.18Apr17-6-g9f103f2a35 (build May 31 2018 21:15:54) complex          
  
 POSCAR found type information on POSCAR  C 
 POSCAR found :  1 types and       2 ions
 scaLAPACK will be used
 LDA part: xc-table for Pade appr. of Perdew
 POSCAR, INCAR and KPOINTS ok, starting setup
 FFT: planning ...
 WAVECAR not read
 entering main loop
       N       E                     dE             d eps       ncg     rms          rms(c)
DAV:   1     0.564322819995E+02    0.56432E+02   -0.36752E+03   768   0.103E+03
DAV:   2    -0.145966357823E+02   -0.71029E+02   -0.56989E+02  1144   0.132E+02
DAV:   3    -0.197317492734E+02   -0.51351E+01   -0.51351E+01  1032   0.548E+01
DAV:   4    -0.197684425446E+02   -0.36693E-01   -0.36692E-01  1312   0.529E+00
DAV:   5    -0.197685120254E+02   -0.69481E-04   -0.69480E-04  1168   0.190E-01    0.638E+00
DAV:   6    -0.188391645024E+02    0.92935E+00   -0.90068E-01  1096   0.686E+00    0.376E+00
DAV:   7    -0.184792223230E+02    0.35994E+00   -0.11932E+00  1200   0.774E+00    0.981E-01
DAV:   8    -0.184703198622E+02    0.89025E-02   -0.11848E-02  1272   0.104E+00    0.113E-01
DAV:   9    -0.184689443206E+02    0.13755E-02   -0.48182E-04  1136   0.135E-01    0.841E-02
DAV:  10    -0.184634612955E+02    0.54830E-02   -0.40110E-03  1056   0.328E-01    0.512E-02
DAV:  11    -0.184626998537E+02    0.76144E-03   -0.31592E-04   968   0.101E-01    0.715E-02
DAV:  12    -0.184627995353E+02   -0.99682E-04   -0.78459E-05   904   0.610E-02    0.254E-02
DAV:  13    -0.184636304337E+02   -0.83090E-03   -0.81281E-04  1080   0.115E-01    0.321E-02
DAV:  14    -0.184636503855E+02   -0.19952E-04   -0.23564E-05   936   0.263E-02    0.141E-02
DAV:  15    -0.184639243640E+02   -0.27398E-03   -0.69052E-05   872   0.373E-02    0.186E-02
DAV:  16    -0.184642071540E+02   -0.28279E-03   -0.17579E-05   936   0.285E-02    0.951E-03
DAV:  17    -0.184642457653E+02   -0.38611E-04   -0.13852E-06   976   0.976E-03    0.274E-03
DAV:  18    -0.184642993520E+02   -0.53587E-04   -0.10532E-06   856   0.713E-03    0.646E-04
DAV:  19    -0.184643021704E+02   -0.28184E-05   -0.51672E-08  1192   0.140E-03    0.324E-04
DAV:  20    -0.184643040014E+02   -0.18310E-05   -0.27516E-08   944   0.705E-04    0.294E-05
DAV:  21    -0.184643040862E+02   -0.84779E-07   -0.61566E-10  1208   0.154E-04    0.490E-05
DAV:  22    -0.184643041215E+02   -0.35292E-07   -0.23047E-10   960   0.876E-05    0.301E-06
DAV:  23    -0.184643041235E+02   -0.20606E-08    0.14885E-11  1208   0.106E-05
   1 F= -.18464304E+02 E0= -.18464279E+02  d E =-.511736E-04
