C:graphene                              
           1
     2.130000   -1.229756    0.000000
     2.130000    1.229756    0.000000
     0.000000    0.000000   20.000000
   C 
   2
Direct configuration=     1
   0.00000000  0.00000000  0.00000000
   0.33333300  0.33333300  0.00000000
