   4   4   0   0
  0.2619380E+02  0.2459512E-09  0.2459512E-09  0.2000000E-08  0.5000000E-15
  1.000000000000000E-004
  CAR 
 C-4                                     
     11.86091823    -22.34984433  301     -1.21222578      1.00000000
    -22.350  0.0000E+00  0.0000E+00
    -22.236  0.0000E+00  0.0000E+00
    -22.122  0.0000E+00  0.0000E+00
    -22.008  0.0000E+00  0.0000E+00
    -21.894  0.0000E+00  0.0000E+00
    -21.780  0.0000E+00  0.0000E+00
    -21.666  0.0000E+00  0.0000E+00
    -21.552  0.0000E+00  0.0000E+00
    -21.438  0.0000E+00  0.0000E+00
    -21.324  0.0000E+00  0.0000E+00
    -21.209  0.0000E+00  0.0000E+00
    -21.095  0.0000E+00  0.0000E+00
    -20.981  0.0000E+00  0.0000E+00
    -20.867  0.0000E+00  0.0000E+00
    -20.753  0.1876E+01  0.2139E+00
    -20.639  0.1003E+01  0.4077E+00
    -20.525  0.7830E+00  0.5426E+00
    -20.411  0.5857E+00  0.6401E+00
    -20.297  0.5360E+00  0.7411E+00
    -20.183  0.4680E+00  0.8000E+00
    -20.069  0.3078E+00  0.8751E+00
    -19.955  0.2928E+00  0.9401E+00
    -19.841  0.3515E+00  0.1000E+01
    -19.727  0.2356E+00  0.1054E+01
    -19.613  0.7500E-01  0.1102E+01
    -19.499  0.4343E-01  0.1152E+01
    -19.385  0.3771E-01  0.1204E+01
    -19.271  0.1298E+00  0.1255E+01
    -19.157  0.2344E+00  0.1307E+01
    -19.043  0.2317E+00  0.1360E+01
    -18.929  0.1215E+00  0.1387E+01
    -18.815  0.2338E+00  0.1440E+01
    -18.701  0.4677E+00  0.1493E+01
    -18.587  0.3302E+00  0.1531E+01
    -18.473  0.1338E-03  0.1547E+01
    -18.359  0.2338E+00  0.1600E+01
    -18.245  0.3653E+00  0.1642E+01
    -18.131  0.2046E+00  0.1677E+01
    -18.016  0.2338E+00  0.1707E+01
    -17.902  0.1173E+00  0.1733E+01
    -17.788  0.2338E+00  0.1787E+01
    -17.674  0.2173E+00  0.1811E+01
    -17.560  0.0000E+00  0.1840E+01
    -17.446  0.4677E+00  0.1893E+01
    -17.332  0.3000E-04  0.1893E+01
    -17.218  0.2338E+00  0.1947E+01
    -17.104  0.2327E+00  0.1973E+01
    -16.990  0.5584E-10  0.2000E+01
    -16.876  0.2658E+00  0.2030E+01
    -16.762  0.7308E-01  0.2062E+01
    -16.648  0.1413E+00  0.2096E+01
    -16.534  0.2338E+00  0.2133E+01
    -16.420  0.2038E+00  0.2157E+01
    -16.306  0.1169E+00  0.2187E+01
    -16.192  0.3744E+00  0.2229E+01
    -16.078  0.0000E+00  0.2240E+01
    -15.964  0.4535E+00  0.2292E+01
    -15.850  0.6404E-02  0.2294E+01
    -15.736  0.2068E+00  0.2344E+01
    -15.622  0.2338E+00  0.2373E+01
    -15.508  0.1225E+01  0.2513E+01
    -15.394  0.1285E+01  0.2813E+01
    -15.280  0.9776E+00  0.2965E+01
    -15.166  0.6502E+00  0.3087E+01
    -15.052  0.5230E+00  0.3180E+01
    -14.938  0.4709E+00  0.3280E+01
    -14.823  0.4821E+00  0.3362E+01
    -14.709  0.3733E+00  0.3443E+01
    -14.595  0.4490E+00  0.3518E+01
    -14.481  0.1662E+01  0.3736E+01
    -14.367  0.2112E+01  0.4094E+01
    -14.253  0.1312E+01  0.4323E+01
    -14.139  0.1442E+01  0.4524E+01
    -14.025  0.9537E+00  0.4682E+01
    -13.911  0.1274E+01  0.4865E+01
    -13.797  0.1507E+01  0.5092E+01
    -13.683  0.1391E+01  0.5292E+01
    -13.569  0.1637E+01  0.5547E+01
    -13.455  0.2338E+00  0.5600E+01
    -13.341  0.2338E+00  0.5627E+01
    -13.227  0.4475E+00  0.5678E+01
    -13.113  0.9897E-07  0.5680E+01
    -12.999  0.3446E+00  0.5733E+01
    -12.885  0.2338E+00  0.5760E+01
    -12.771  0.7467E-01  0.5769E+01
    -12.657  0.1169E+00  0.5813E+01
    -12.543  0.2329E+00  0.5840E+01
    -12.429  0.6238E-11  0.5867E+01
    -12.315  0.2338E+00  0.5893E+01
    -12.201  0.2772E+00  0.5925E+01
    -12.087  0.0000E+00  0.5947E+01
    -11.973  0.4677E+00  0.6000E+01
    -11.859  0.9442E-08  0.6000E+01
    -11.745  0.1809E+01  0.6206E+01
    -11.630  0.4669E+00  0.6320E+01
    -11.516  0.4938E+00  0.6416E+01
    -11.402  0.6360E+00  0.6513E+01
    -11.288  0.2386E+00  0.6561E+01
    -11.174  0.6927E+00  0.6666E+01
    -11.060  0.4677E+00  0.6720E+01
    -10.946  0.8706E+00  0.6819E+01
    -10.832  0.2338E+00  0.6853E+01
    -10.718  0.7015E+00  0.6933E+01
    -10.604  0.5741E+00  0.7012E+01
    -10.490  0.4677E+00  0.7067E+01
    -10.376  0.7015E+00  0.7147E+01
    -10.262  0.4727E+00  0.7201E+01
    -10.148  0.2557E+00  0.7256E+01
    -10.034  0.5411E+00  0.7342E+01
     -9.920  0.3434E-02  0.7360E+01
     -9.806  0.7015E+00  0.7467E+01
     -9.692  0.4866E-06  0.7493E+01
     -9.578  0.8153E+00  0.7600E+01
     -9.464  0.2585E+00  0.7629E+01
     -9.350  0.3826E+00  0.7697E+01
     -9.236  0.4568E+00  0.7785E+01
     -9.122  0.2390E+00  0.7814E+01
     -9.008  0.7015E+00  0.7920E+01
     -8.894  0.1493E+01  0.8090E+01
     -8.780  0.1648E+01  0.8321E+01
     -8.666  0.1170E+01  0.8520E+01
     -8.552  0.1279E+01  0.8706E+01
     -8.437  0.9857E+00  0.8846E+01
     -8.323  0.9591E+00  0.9003E+01
     -8.209  0.8129E+00  0.9159E+01
     -8.095  0.8227E+00  0.9294E+01
     -7.981  0.6818E+00  0.9411E+01
     -7.867  0.6839E+00  0.9558E+01
     -7.753  0.7961E+00  0.9704E+01
     -7.639  0.2059E+01  0.9995E+01
     -7.525  0.1484E+01  0.1026E+02
     -7.411  0.9217E+00  0.1040E+02
     -7.297  0.8354E+00  0.1055E+02
     -7.183  0.8254E+00  0.1067E+02
     -7.069  0.1052E+01  0.1083E+02
     -6.955  0.6007E+00  0.1090E+02
     -6.841  0.7772E+00  0.1105E+02
     -6.727  0.4701E+00  0.1112E+02
     -6.613  0.1995E+00  0.1124E+02
     -6.499  0.6046E+00  0.1136E+02
     -6.385  0.8284E+00  0.1148E+02
     -6.271  0.7009E+00  0.1157E+02
     -6.157  0.9354E+00  0.1168E+02
     -6.043  0.9385E+00  0.1179E+02
     -5.929  0.5852E+00  0.1187E+02
     -5.815  0.4668E+00  0.1199E+02
     -5.701  0.5801E+00  0.1211E+02
     -5.587  0.3812E+00  0.1218E+02
     -5.473  0.2352E+00  0.1229E+02
     -5.358  0.1016E+01  0.1244E+02
     -5.244  0.4400E-01  0.1249E+02
     -5.130  0.6459E+00  0.1265E+02
     -5.016  0.1018E+01  0.1278E+02
     -4.902  0.5547E+00  0.1288E+02
     -4.788  0.9354E+00  0.1301E+02
     -4.674  0.1134E+01  0.1316E+02
     -4.560  0.9074E+00  0.1330E+02
     -4.446  0.1222E+01  0.1346E+02
     -4.332  0.1260E+01  0.1366E+02
     -4.218  0.3066E+01  0.1410E+02
     -4.104  0.1170E+00  0.1413E+02
     -3.990  0.2369E+00  0.1417E+02
     -3.876  0.2311E+00  0.1421E+02
     -3.762  0.2320E+00  0.1425E+02
     -3.648  0.4179E+00  0.1431E+02
     -3.534  0.1229E+01  0.1454E+02
     -3.420  0.9986E+00  0.1474E+02
     -3.306  0.7859E+00  0.1486E+02
     -3.192  0.5675E+00  0.1496E+02
     -3.078  0.5869E+00  0.1504E+02
     -2.964  0.4525E+00  0.1512E+02
     -2.850  0.5580E+00  0.1520E+02
     -2.736  0.5553E+00  0.1526E+02
     -2.622  0.4977E+00  0.1532E+02
     -2.508  0.4551E+00  0.1539E+02
     -2.394  0.3665E+00  0.1544E+02
     -2.280  0.3813E+00  0.1550E+02
     -2.165  0.3418E+00  0.1556E+02
     -2.051  0.3808E+00  0.1560E+02
     -1.937  0.3437E+00  0.1567E+02
     -1.823  0.3509E+00  0.1571E+02
     -1.709  0.3600E+00  0.1576E+02
     -1.595  0.3507E+00  0.1581E+02
     -1.481  0.2339E+00  0.1585E+02
     -1.367  0.1511E+00  0.1590E+02
     -1.253  0.5162E+00  0.1599E+02
     -1.139  0.5846E+00  0.1607E+02
     -1.025  0.3508E+00  0.1611E+02
     -0.911  0.3621E+00  0.1615E+02
     -0.797  0.3416E+00  0.1621E+02
     -0.683  0.2341E+00  0.1625E+02
     -0.569  0.3078E+00  0.1632E+02
     -0.455  0.2747E+00  0.1636E+02
     -0.341  0.4544E+00  0.1644E+02
     -0.227  0.3035E+00  0.1649E+02
     -0.113  0.4721E+00  0.1657E+02
      0.001  0.4846E+00  0.1664E+02
      0.115  0.6832E+00  0.1674E+02
      0.229  0.6592E+00  0.1685E+02
      0.343  0.1387E+01  0.1705E+02
      0.457  0.1361E+01  0.1734E+02
      0.571  0.2059E+01  0.1763E+02
      0.685  0.1351E+00  0.1767E+02
      0.799  0.2342E+00  0.1771E+02
      0.913  0.2338E+00  0.1775E+02
      1.028  0.2431E+00  0.1777E+02
      1.142  0.1169E+00  0.1780E+02
      1.256  0.3359E+00  0.1784E+02
      1.370  0.1170E+00  0.1785E+02
      1.484  0.1168E+00  0.1788E+02
      1.598  0.9214E-01  0.1790E+02
      1.712  0.1145E+00  0.1793E+02
      1.826  0.1192E+00  0.1795E+02
      1.940  0.5772E+00  0.1803E+02
      2.054  0.5773E+00  0.1816E+02
      2.168  0.5844E+00  0.1825E+02
      2.282  0.2536E+00  0.1831E+02
      2.396  0.4736E+00  0.1837E+02
      2.510  0.9900E+00  0.1851E+02
      2.624  0.8775E+00  0.1866E+02
      2.738  0.6682E+00  0.1877E+02
      2.852  0.5317E+00  0.1885E+02
      2.966  0.6004E+00  0.1894E+02
      3.080  0.5841E+00  0.1903E+02
      3.194  0.1596E+01  0.1921E+02
      3.308  0.1052E+01  0.1937E+02
      3.422  0.8118E+00  0.1949E+02
      3.536  0.8829E+00  0.1959E+02
      3.650  0.7010E+00  0.1968E+02
      3.764  0.5048E+00  0.1976E+02
      3.878  0.7479E+00  0.1989E+02
      3.992  0.5115E+00  0.1996E+02
      4.106  0.1097E+01  0.2018E+02
      4.221  0.6295E+00  0.2033E+02
      4.335  0.8226E+00  0.2045E+02
      4.449  0.7335E+00  0.2056E+02
      4.563  0.4888E+00  0.2068E+02
      4.677  0.5829E+00  0.2079E+02
      4.791  0.9767E+00  0.2091E+02
      4.905  0.7064E+00  0.2100E+02
      5.019  0.5063E+00  0.2108E+02
      5.133  0.6131E+00  0.2118E+02
      5.247  0.3508E+00  0.2124E+02
      5.361  0.7970E+00  0.2136E+02
      5.475  0.3603E+00  0.2143E+02
      5.589  0.2545E+00  0.2148E+02
      5.703  0.3512E+00  0.2155E+02
      5.817  0.3303E+00  0.2162E+02
      5.931  0.2250E+00  0.2167E+02
      6.045  0.2338E+00  0.2172E+02
      6.159  0.3400E+00  0.2176E+02
      6.273  0.2149E+01  0.2201E+02
      6.387  0.1433E+01  0.2227E+02
      6.501  0.9186E+00  0.2240E+02
      6.615  0.2379E+00  0.2243E+02
      6.729  0.2376E+00  0.2248E+02
      6.843  0.2084E+00  0.2253E+02
      6.957  0.2292E+00  0.2256E+02
      7.071  0.3449E+00  0.2261E+02
      7.185  0.1969E+00  0.2264E+02
      7.299  0.2659E+00  0.2267E+02
      7.414  0.1530E-01  0.2270E+02
      7.528  0.4945E-07  0.2272E+02
      7.642  0.4677E+00  0.2277E+02
      7.756  0.2331E+00  0.2280E+02
      7.870  0.1164E+00  0.2281E+02
      7.984  0.6139E-07  0.2285E+02
      8.098  0.2338E+00  0.2288E+02
      8.212  0.3870E+00  0.2292E+02
      8.326  0.2928E-03  0.2293E+02
      8.440  0.1169E+00  0.2296E+02
      8.554  0.2767E+00  0.2300E+02
      8.668  0.2766E-03  0.2301E+02
      8.782  0.2348E+00  0.2305E+02
      8.896  0.1180E+00  0.2308E+02
      9.010  0.1635E+00  0.2311E+02
      9.124  0.8307E+00  0.2332E+02
      9.238  0.3503E+00  0.2341E+02
      9.352  0.4010E+00  0.2347E+02
      9.466  0.4338E+00  0.2353E+02
      9.580  0.1727E+00  0.2355E+02
      9.694  0.1271E+00  0.2361E+02
      9.808  0.2338E+00  0.2365E+02
      9.922  0.1563E+01  0.2383E+02
     10.036  0.3869E+00  0.2390E+02
     10.150  0.2496E+00  0.2394E+02
     10.264  0.2964E+00  0.2398E+02
     10.378  0.1169E+00  0.2400E+02
     10.492  0.0000E+00  0.2400E+02
     10.607  0.0000E+00  0.2400E+02
     10.721  0.0000E+00  0.2400E+02
     10.835  0.0000E+00  0.2400E+02
     10.949  0.0000E+00  0.2400E+02
     11.063  0.0000E+00  0.2400E+02
     11.177  0.0000E+00  0.2400E+02
     11.291  0.0000E+00  0.2400E+02
     11.405  0.0000E+00  0.2400E+02
     11.519  0.0000E+00  0.2400E+02
     11.633  0.0000E+00  0.2400E+02
     11.747  0.0000E+00  0.2400E+02
     11.861  0.0000E+00  0.2400E+02
