    4    4    1    1
  0.2619380E+02  0.2459512E-09  0.2459512E-09  0.2000000E-08  0.5000000E-15
  1.000000000000000E-004
  CAR 
 C-4                                     
     16    150     12
 
  0.0000000E+00  0.0000000E+00  0.0000000E+00  0.6666667E-02
    1      -20.794810   1.000000
    2      -20.783060   1.000000
    3       -8.973311   1.000000
    4       -8.791525   1.000000
    5       -4.242068   1.000000
    6       -4.242010   1.000000
    7       -4.241599   1.000000
    8       -4.241541   1.000000
    9        1.931072   0.000000
   10        2.490103   0.000000
   11        3.122076   0.000000
   12        4.011165   0.000000
 
  0.1020408E-01  0.1020408E-01  0.0000000E+00  0.6666667E-02
    1      -20.792336   1.000000
    2      -20.780589   1.000000
    3       -8.970339   1.000000
    4       -8.788577   1.000000
    5       -4.252389   1.000000
    6       -4.251912   1.000000
    7       -4.247502   1.000000
    8       -4.247030   1.000000
    9        1.934382   0.000000
   10        2.493465   0.000000
   11        3.125442   0.000000
   12        4.014490   0.000000
 
  0.2040816E-01  0.2040816E-01  0.0000000E+00  0.6666667E-02
    1      -20.784917   1.000000
    2      -20.773175   1.000000
    3       -8.961423   1.000000
    4       -8.779736   1.000000
    5       -4.283260   1.000000
    6       -4.282721   1.000000
    7       -4.263899   1.000000
    8       -4.263411   1.000000
    9        1.944308   0.000000
   10        2.503550   0.000000
   11        3.135541   0.000000
   12        4.024464   0.000000
 
  0.3061224E-01  0.3061224E-01  0.0000000E+00  0.6666667E-02
    1      -20.772550   1.000000
    2      -20.760819   1.000000
    3       -8.946572   1.000000
    4       -8.765004   1.000000
    5       -4.334352   1.000000
    6       -4.333787   1.000000
    7       -4.290997   1.000000
    8       -4.290503   1.000000
    9        1.960853   0.000000
   10        2.520359   0.000000
   11        3.152373   0.000000
   12        4.041086   0.000000
 
  0.4081633E-01  0.4081633E-01  0.0000000E+00  0.6666667E-02
    1      -20.755238   1.000000
    2      -20.743522   1.000000
    3       -8.925788   1.000000
    4       -8.744386   1.000000
    5       -4.405171   1.000000
    6       -4.404573   1.000000
    7       -4.328445   1.000000
    8       -4.327908   1.000000
    9        1.984019   0.000000
   10        2.543891   0.000000
   11        3.175936   0.000000
   12        4.064354   0.000000
 
  0.5102041E-01  0.5102041E-01  0.0000000E+00  0.6666667E-02
    1      -20.732985   1.000000
    2      -20.721291   1.000000
    3       -8.899073   1.000000
    4       -8.717888   1.000000
    5       -4.495089   1.000000
    6       -4.494425   1.000000
    7       -4.375720   1.000000
    8       -4.375172   1.000000
    9        2.013804   0.000000
   10        2.574146   0.000000
   11        3.206230   0.000000
   12        4.094266   0.000000
 
  0.6122449E-01  0.6122449E-01  0.0000000E+00  0.6666667E-02
    1      -20.705795   1.000000
    2      -20.694124   1.000000
    3       -8.866413   1.000000
    4       -8.685523   1.000000
    5       -4.603255   1.000000
    6       -4.602515   1.000000
    7       -4.432284   1.000000
    8       -4.431701   1.000000
    9        2.050212   0.000000
   10        2.611123   0.000000
   11        3.243254   0.000000
   12        4.130820   0.000000
 
  0.7142857E-01  0.7142857E-01  0.0000000E+00  0.6666667E-02
    1      -20.673668   1.000000
    2      -20.662028   1.000000
    3       -8.827877   1.000000
    4       -8.647299   1.000000
    5       -4.728743   1.000000
    6       -4.727930   1.000000
    7       -4.497433   1.000000
    8       -4.496832   1.000000
    9        2.093244   0.000000
   10        2.654820   0.000000
   11        3.287006   0.000000
   12        4.174006   0.000000
 
  0.8163265E-01  0.8163265E-01  0.0000000E+00  0.6666667E-02
    1      -20.636611   1.000000
    2      -20.625006   1.000000
    3       -8.783446   1.000000
    4       -8.603235   1.000000
    5       -4.870536   1.000000
    6       -4.869621   1.000000
    7       -4.570457   1.000000
    8       -4.569835   1.000000
    9        2.142900   0.000000
   10        2.705235   0.000000
   11        3.337481   0.000000
   12        4.223821   0.000000
 
  0.9183673E-01  0.9183673E-01  0.0000000E+00  0.6666667E-02
    1      -20.594633   1.000000
    2      -20.583068   1.000000
    3       -8.733144   1.000000
    4       -8.553339   1.000000
    5       -5.027577   1.000000
    6       -5.026564   1.000000
    7       -4.650589   1.000000
    8       -4.649938   1.000000
    9        2.199179   0.000000
   10        2.762366   0.000000
   11        3.394678   0.000000
   12        4.280257   0.000000
 
  0.1020408E+00  0.1020408E+00  0.0000000E+00  0.6666667E-02
    1      -20.547742   1.000000
    2      -20.536219   1.000000
    3       -8.676989   1.000000
    4       -8.497656   1.000000
    5       -5.198766   1.000000
    6       -5.197664   1.000000
    7       -4.737060   1.000000
    8       -4.736370   1.000000
    9        2.262080   0.000000
   10        2.826208   0.000000
   11        3.458588   0.000000
   12        4.343302   0.000000
 
  0.1122449E+00  0.1122449E+00  0.0000000E+00  0.6666667E-02
    1      -20.495942   1.000000
    2      -20.484466   1.000000
    3       -8.615006   1.000000
    4       -8.436192   1.000000
    5       -5.383001   1.000000
    6       -5.381774   1.000000
    7       -4.829032   1.000000
    8       -4.828332   1.000000
    9        2.331599   0.000000
   10        2.896757   0.000000
   11        3.529208   0.000000
   12        4.412945   0.000000
 
  0.1224490E+00  0.1224490E+00  0.0000000E+00  0.6666667E-02
    1      -20.439240   1.000000
    2      -20.427816   1.000000
    3       -8.547216   1.000000
    4       -8.368976   1.000000
    5       -5.579104   1.000000
    6       -5.577772   1.000000
    7       -4.925747   1.000000
    8       -4.925017   1.000000
    9        2.407736   0.000000
   10        2.974007   0.000000
   11        3.606527   0.000000
   12        4.489168   0.000000
 
  0.1326531E+00  0.1326531E+00  0.0000000E+00  0.6666667E-02
    1      -20.377647   1.000000
    2      -20.366281   1.000000
    3       -8.473648   1.000000
    4       -8.296039   1.000000
    5       -5.786038   1.000000
    6       -5.784581   1.000000
    7       -5.026482   1.000000
    8       -5.025711   1.000000
    9        2.490485   0.000000
   10        3.057950   0.000000
   11        3.690535   0.000000
   12        4.571951   0.000000
 
  0.1428571E+00  0.1428571E+00  0.0000000E+00  0.6666667E-02
    1      -20.311174   1.000000
    2      -20.299871   1.000000
    3       -8.394349   1.000000
    4       -8.217397   1.000000
    5       -6.002768   1.000000
    6       -6.001206   1.000000
    7       -5.130450   1.000000
    8       -5.129667   1.000000
    9        2.579842   0.000000
   10        3.148576   0.000000
   11        3.781217   0.000000
   12        4.661265   0.000000
 
  0.1530612E+00  0.1530612E+00  0.0000000E+00  0.6666667E-02
    1      -20.239833   1.000000
    2      -20.228600   1.000000
    3       -8.309330   1.000000
    4       -8.133120   1.000000
    5       -6.228279   1.000000
    6       -6.226604   1.000000
    7       -5.236963   1.000000
    8       -5.236163   1.000000
    9        2.675798   0.000000
   10        3.245874   0.000000
   11        3.878557   0.000000
   12        4.757071   0.000000
 
  0.1632653E+00  0.1632653E+00  0.0000000E+00  0.6666667E-02
    1      -20.163636   1.000000
    2      -20.152481   1.000000
    3       -8.218654   1.000000
    4       -8.043239   1.000000
    5       -6.461647   1.000000
    6       -6.459869   1.000000
    7       -5.345383   1.000000
    8       -5.344564   1.000000
    9        2.778344   0.000000
   10        3.349829   0.000000
   11        3.982528   0.000000
   12        4.859317   0.000000
 
  0.1734694E+00  0.1734694E+00  0.0000000E+00  0.6666667E-02
    1      -20.082600   1.000000
    2      -20.071522   1.000000
    3       -8.122365   1.000000
    4       -7.947799   1.000000
    5       -6.701959   1.000000
    6       -6.700063   1.000000
    7       -5.455094   1.000000
    8       -5.454256   1.000000
    9        2.887473   0.000000
   10        3.460421   0.000000
   11        4.093100   0.000000
   12        4.967921   0.000000
 
  0.1836735E+00  0.1836735E+00  0.0000000E+00  0.6666667E-02
    1      -19.996738   1.000000
    2      -19.985738   1.000000
    3       -8.020492   1.000000
    4       -7.846848   1.000000
    5       -6.948369   1.000000
    6       -6.946374   1.000000
    7       -5.565516   1.000000
    8       -5.564651   1.000000
    9        3.003172   0.000000
   10        3.577627   0.000000
   11        4.210227   0.000000
   12        5.082764   0.000000
 
  0.1938776E+00  0.1938776E+00  0.0000000E+00  0.6666667E-02
    1      -19.906062   1.000000
    2      -19.895148   1.000000
    3       -7.913115   1.000000
    4       -7.740452   1.000000
    5       -7.200110   1.000000
    6       -7.197986   1.000000
    7       -5.676110   1.000000
    8       -5.675234   1.000000
    9        3.125431   0.000000
   10        3.701413   0.000000
   11        4.333844   0.000000
   12        5.203643   0.000000
 
  0.2040816E+00  0.2040816E+00  0.0000000E+00  0.6666667E-02
    1      -19.810595   1.000000
    2      -19.799769   1.000000
    3       -7.800286   1.000000
    4       -7.628653   1.000000
    5       -7.456417   1.000000
    6       -7.454175   1.000000
    7       -5.786419   1.000000
    8       -5.785520   1.000000
    9        3.254232   0.000000
   10        3.831734   0.000000
   11        4.463849   0.000000
   12        5.330194   0.000000
 
  0.2142857E+00  0.2142857E+00  0.0000000E+00  0.6666667E-02
    1      -19.710354   1.000000
    2      -19.699623   1.000000
    3       -7.716698   1.000000
    4       -7.714303   1.000000
    5       -7.682058   1.000000
    6       -7.511559   1.000000
    7       -5.895952   1.000000
    8       -5.895047   1.000000
    9        3.389558   0.000000
   10        3.968521   0.000000
   11        4.600076   0.000000
   12        5.461680   0.000000
 
  0.2244898E+00  0.2244898E+00  0.0000000E+00  0.6666667E-02
    1      -19.605358   1.000000
    2      -19.594724   1.000000
    3       -7.980182   1.000000
    4       -7.977661   1.000000
    5       -7.558592   1.000000
    6       -7.389247   1.000000
    7       -6.004310   1.000000
    8       -6.003382   1.000000
    9        3.531388   0.000000
   10        4.111671   0.000000
   11        4.742217   0.000000
   12        5.596346   0.000000
 
  0.2346939E+00  0.2346939E+00  0.0000000E+00  0.6666667E-02
    1      -19.495629   1.000000
    2      -19.485098   1.000000
    3       -8.246370   1.000000
    4       -8.243714   1.000000
    5       -7.429894   1.000000
    6       -7.261799   1.000000
    7       -6.111109   1.000000
    8       -6.110165   1.000000
    9        3.679695   0.000000
   10        4.261002   0.000000
   11        4.889633   0.000000
   12        5.728847   0.000000
 
  0.2448980E+00  0.2448980E+00  0.0000000E+00  0.6666667E-02
    1      -19.381198   1.000000
    2      -19.370775   1.000000
    3       -8.514708   1.000000
    4       -8.511910   1.000000
    5       -7.296091   1.000000
    6       -7.129321   1.000000
    7       -6.216016   1.000000
    8       -6.215064   1.000000
    9        3.834442   0.000000
   10        4.416175   0.000000
   11        5.040704   0.000000
   12        5.835444   0.000000
 
  0.2551020E+00  0.2551020E+00  0.0000000E+00  0.6666667E-02
    1      -19.262085   1.000000
    2      -19.251771   1.000000
    3       -8.784679   1.000000
    4       -8.781748   1.000000
    5       -7.157298   1.000000
    6       -6.991930   1.000000
    7       -6.318700   1.000000
    8       -6.317725   1.000000
    9        3.995581   0.000000
   10        4.576432   0.000000
   11        5.189823   0.000000
   12        5.810539   0.000000
 
  0.2653061E+00  0.2653061E+00  0.0000000E+00  0.6666667E-02
    1      -19.138325   1.000000
    2      -19.128123   1.000000
    3       -9.055805   1.000000
    4       -9.052739   1.000000
    5       -7.013646   1.000000
    6       -6.849763   1.000000
    7       -6.418878   1.000000
    8       -6.417891   1.000000
    9        4.163023   0.000000
   10        4.739644   0.000000
   11        5.303939   0.000000
   12        5.650965   0.000000
 
  0.2755102E+00  0.2755102E+00  0.0000000E+00  0.6666667E-02
    1      -19.009954   1.000000
    2      -18.999863   1.000000
    3       -9.327691   1.000000
    4       -9.324461   1.000000
    5       -6.865283   1.000000
    6       -6.702977   1.000000
    7       -6.516301   1.000000
    8       -6.515296   1.000000
    9        4.336573   0.000000
   10        4.896785   0.000000
   11        5.221731   0.000000
   12        5.447979   0.000000
 
  0.2857143E+00  0.2857143E+00  0.0000000E+00  0.6666667E-02
    1      -18.876994   1.000000
    2      -18.867022   1.000000
    3       -9.599881   1.000000
    4       -9.596504   1.000000
    5       -6.712375   1.000000
    6       -6.610714   1.000000
    7       -6.609691   1.000000
    8       -6.551737   1.000000
    9        4.515448   0.000000
   10        4.974245   0.000000
   11        4.981419   0.000000
   12        5.269250   0.000000
 
  0.2959184E+00  0.2959184E+00  0.0000000E+00  0.6666667E-02
    1      -18.739496   1.000000
    2      -18.729645   1.000000
    3       -9.872024   1.000000
    4       -9.868499   1.000000
    5       -6.701897   1.000000
    6       -6.700883   1.000000
    7       -6.555126   1.000000
    8       -6.396248   1.000000
    9        4.668104   0.000000
   10        4.742676   0.000000
   11        4.793039   0.000000
   12        5.354572   0.000000
 
  0.3061224E+00  0.3061224E+00  0.0000000E+00  0.6666667E-02
    1      -18.597495   1.000000
    2      -18.587772   1.000000
    3      -10.143750   1.000000
    4      -10.140052   1.000000
    5       -6.789654   1.000000
    6       -6.788623   1.000000
    7       -6.393733   1.000000
    8       -6.236732   1.000000
    9        4.421789   0.000000
   10        4.526774   0.000000
   11        4.900545   0.000000
   12        5.530680   0.000000
 
  0.3163265E+00  0.3163265E+00  0.0000000E+00  0.6666667E-02
    1      -18.451049   1.000000
    2      -18.441454   1.000000
    3      -10.414721   1.000000
    4      -10.410869   1.000000
    5       -6.873811   1.000000
    6       -6.872769   1.000000
    7       -6.228517   1.000000
    8       -6.073489   1.000000
    9        4.139102   0.000000
   10        4.248407   0.000000
   11        5.097621   0.000000
   12        5.724939   0.000000
 
  0.3265306E+00  0.3265306E+00  0.0000000E+00  0.6666667E-02
    1      -18.300211   1.000000
    2      -18.290743   1.000000
    3      -10.684639   1.000000
    4      -10.680636   1.000000
    5       -6.954199   1.000000
    6       -6.953148   1.000000
    7       -6.059737   1.000000
    8       -5.906807   1.000000
    9        3.854702   0.000000
   10        3.967536   0.000000
   11        5.301273   0.000000
   12        5.927574   0.000000
 
  0.3367347E+00  0.3367347E+00  0.0000000E+00  0.6666667E-02
    1      -18.145068   1.000000
    2      -18.135731   1.000000
    3      -10.953220   1.000000
    4      -10.949053   1.000000
    5       -7.030687   1.000000
    6       -7.029635   1.000000
    7       -5.887772   1.000000
    8       -5.737066   1.000000
    9        3.570764   0.000000
   10        3.686968   0.000000
   11        5.510183   0.000000
   12        6.133647   0.000000
 
  0.3469388E+00  0.3469388E+00  0.0000000E+00  0.6666667E-02
    1      -17.985661   1.000000
    2      -17.976463   1.000000
    3      -11.220119   1.000000
    4      -11.215800   1.000000
    5       -7.103116   1.000000
    6       -7.102060   1.000000
    7       -5.713085   1.000000
    8       -5.564723   1.000000
    9        3.288614   0.000000
   10        3.408254   0.000000
   11        5.722954   0.000000
   12        6.328048   0.000000
 
  0.3571429E+00  0.3571429E+00  0.0000000E+00  0.6666667E-02
    1      -17.822102   1.000000
    2      -17.813031   1.000000
    3      -11.485058   1.000000
    4      -11.480583   1.000000
    5       -7.171374   1.000000
    6       -7.170301   1.000000
    7       -5.536177   1.000000
    8       -5.390297   1.000000
    9        3.009343   0.000000
   10        3.132544   0.000000
   11        5.936195   0.000000
   12        6.437527   0.000000
 
  0.3673469E+00  0.3673469E+00  0.0000000E+00  0.6666667E-02
    1      -17.654497   1.000000
    2      -17.645552   1.000000
    3      -11.747772   1.000000
    4      -11.743131   1.000000
    5       -7.235355   1.000000
    6       -7.234263   1.000000
    7       -5.357662   1.000000
    8       -5.214411   1.000000
    9        2.734035   0.000000
   10        2.860921   0.000000
   11        6.138324   0.000000
   12        6.436603   0.000000
 
  0.3775510E+00  0.3775510E+00  0.0000000E+00  0.6666667E-02
    1      -17.482965   1.000000
    2      -17.474160   1.000000
    3      -12.007954   1.000000
    4      -12.003154   1.000000
    5       -7.294948   1.000000
    6       -7.293850   1.000000
    7       -5.178344   1.000000
    8       -5.037891   1.000000
    9        2.463829   0.000000
   10        2.594555   0.000000
   11        6.285796   0.000000
   12        6.437423   0.000000
 
  0.3877551E+00  0.3877551E+00  0.0000000E+00  0.6666667E-02
    1      -17.307693   1.000000
    2      -17.299036   1.000000
    3      -12.265267   1.000000
    4      -12.260336   1.000000
    5       -7.350077   1.000000
    6       -7.348966   1.000000
    7       -4.999142   1.000000
    8       -4.861652   1.000000
    9        2.199983   0.000000
   10        2.334678   0.000000
   11        6.332231   0.000000
   12        6.390933   0.000000
 
  0.3979592E+00  0.3979592E+00  0.0000000E+00  0.6666667E-02
    1      -17.128906   1.000000
    2      -17.120396   1.000000
    3      -12.519384   1.000000
    4      -12.514314   1.000000
    5       -7.400655   1.000000
    6       -7.399564   1.000000
    7       -4.821226   1.000000
    8       -4.686879   1.000000
    9        1.943921   0.000000
   10        2.082732   0.000000
   11        6.331144   0.000000
   12        6.368442   0.000000
 
  0.4081633E+00  0.4081633E+00  0.0000000E+00  0.6666667E-02
    1      -16.946906   1.000000
    2      -16.938545   1.000000
    3      -12.769891   1.000000
    4      -12.764662   1.000000
    5       -7.446622   1.000000
    6       -7.445528   1.000000
    7       -4.645984   1.000000
    8       -4.515003   1.000000
    9        1.697360   0.000000
   10        1.840386   0.000000
   11        6.318309   0.000000
   12        6.346608   0.000000
 
  0.4183673E+00  0.4183673E+00  0.0000000E+00  0.6666667E-02
    1      -16.762112   1.000000
    2      -16.753902   1.000000
    3      -13.016248   1.000000
    4      -13.010845   1.000000
    5       -7.487898   1.000000
    6       -7.486796   1.000000
    7       -4.475297   1.000000
    8       -4.347807   1.000000
    9        1.462282   0.000000
   10        1.609594   0.000000
   11        6.302873   0.000000
   12        6.326806   0.000000
 
  0.4285714E+00  0.4285714E+00  0.0000000E+00  0.6666667E-02
    1      -16.575174   1.000000
    2      -16.567091   1.000000
    3      -13.257736   1.000000
    4      -13.252171   1.000000
    5       -7.524465   1.000000
    6       -7.523345   1.000000
    7       -4.311347   1.000000
    8       -4.187494   1.000000
    9        1.241081   0.000000
   10        1.392741   0.000000
   11        6.287484   0.000000
   12        6.309025   0.000000
 
  0.4387755E+00  0.4387755E+00  0.0000000E+00  0.6666667E-02
    1      -16.387020   1.000000
    2      -16.379067   1.000000
    3      -13.493289   1.000000
    4      -13.487589   1.000000
    5       -7.556224   1.000000
    6       -7.555107   1.000000
    7       -4.156862   1.000000
    8       -4.036720   1.000000
    9        1.036659   0.000000
   10        1.192725   0.000000
   11        6.273289   0.000000
   12        6.293383   0.000000
 
  0.4489796E+00  0.4489796E+00  0.0000000E+00  0.6666667E-02
    1      -16.199247   1.000000
    2      -16.191416   1.000000
    3      -13.721301   1.000000
    4      -13.715455   1.000000
    5       -7.583179   1.000000
    6       -7.582051   1.000000
    7       -4.015165   1.000000
    8       -3.898720   1.000000
    9        0.852493   0.000000
   10        1.012842   0.000000
   11        6.260840   0.000000
   12        6.280015   0.000000
 
  0.4591837E+00  0.4591837E+00  0.0000000E+00  0.6666667E-02
    1      -16.014589   1.000000
    2      -16.006882   1.000000
    3      -13.938943   1.000000
    4      -13.932970   1.000000
    5       -7.605269   1.000000
    6       -7.604140   1.000000
    7       -3.890142   1.000000
    8       -3.777250   1.000000
    9        0.692569   0.000000
   10        0.856945   0.000000
   11        6.250386   0.000000
   12        6.268977   0.000000
 
  0.4693878E+00  0.4693878E+00  0.0000000E+00  0.6666667E-02
    1      -15.838261   1.000000
    2      -15.830672   1.000000
    3      -14.140982   1.000000
    4      -14.134885   1.000000
    5       -7.622483   1.000000
    6       -7.621349   1.000000
    7       -3.786134   1.000000
    8       -3.676443   1.000000
    9        0.561316   0.000000
   10        0.729246   0.000000
   11        6.242114   0.000000
   12        6.260322   0.000000
 
  0.4795918E+00  0.4795918E+00  0.0000000E+00  0.6666667E-02
    1      -15.680643   1.000000
    2      -15.673141   1.000000
    3      -14.316971   1.000000
    4      -14.310788   1.000000
    5       -7.634778   1.000000
    6       -7.633652   1.000000
    7       -3.707602   1.000000
    8       -3.600482   1.000000
    9        0.463281   0.000000
   10        0.634052   0.000000
   11        6.236159   0.000000
   12        6.254143   0.000000
 
  0.4897959E+00  0.4897959E+00  0.0000000E+00  0.6666667E-02
    1      -15.562522   1.000000
    2      -15.555070   1.000000
    3      -14.446135   1.000000
    4      -14.439898   1.000000
    5       -7.642182   1.000000
    6       -7.641043   1.000000
    7       -3.658568   1.000000
    8       -3.553135   1.000000
    9        0.402521   0.000000
   10        0.575130   0.000000
   11        6.232541   0.000000
   12        6.250405   0.000000
 
  0.5000000E+00  0.5000000E+00  0.0000000E+00  0.6666667E-02
    1      -15.516502   1.000000
    2      -15.509081   1.000000
    3      -14.495825   1.000000
    4      -14.489588   1.000000
    5       -7.644643   1.000000
    6       -7.643521   1.000000
    7       -3.641884   1.000000
    8       -3.537024   1.000000
    9        0.381922   0.000000
   10        0.555180   0.000000
   11        6.231360   0.000000
   12        6.249162   0.000000
 
  0.5000000E+00  0.5000000E+00  0.0000000E+00  0.6666667E-02
    1      -15.516502   1.000000
    2      -15.509081   1.000000
    3      -14.495825   1.000000
    4      -14.489588   1.000000
    5       -7.644643   1.000000
    6       -7.643521   1.000000
    7       -3.641884   1.000000
    8       -3.537024   1.000000
    9        0.381922   0.000000
   10        0.555180   0.000000
   11        6.231360   0.000000
   12        6.249162   0.000000
 
  0.5034014E+00  0.4965986E+00  0.0000000E+00  0.6666667E-02
    1      -15.515797   1.000000
    2      -15.508370   1.000000
    3      -14.495124   1.000000
    4      -14.488870   1.000000
    5       -7.648378   1.000000
    6       -7.647238   1.000000
    7       -3.640870   1.000000
    8       -3.536029   1.000000
    9        0.381730   0.000000
   10        0.554906   0.000000
   11        6.236382   0.000000
   12        6.254210   0.000000
 
  0.5068027E+00  0.4931973E+00  0.0000000E+00  0.6666667E-02
    1      -15.513686   1.000000
    2      -15.506255   1.000000
    3      -14.493012   1.000000
    4      -14.486758   1.000000
    5       -7.659567   1.000000
    6       -7.658414   1.000000
    7       -3.637849   1.000000
    8       -3.533020   1.000000
    9        0.381161   0.000000
   10        0.554108   0.000000
   11        6.251423   0.000000
   12        6.269342   0.000000
 
  0.5102041E+00  0.4897959E+00  0.0000000E+00  0.6666667E-02
    1      -15.510162   1.000000
    2      -15.502732   1.000000
    3      -14.489499   1.000000
    4      -14.483240   1.000000
    5       -7.678175   1.000000
    6       -7.676981   1.000000
    7       -3.632814   1.000000
    8       -3.528007   1.000000
    9        0.380202   0.000000
   10        0.552768   0.000000
   11        6.276453   0.000000
   12        6.294496   0.000000
 
  0.5136055E+00  0.4863945E+00  0.0000000E+00  0.6666667E-02
    1      -15.505221   1.000000
    2      -15.497804   1.000000
    3      -14.484576   1.000000
    4      -14.478321   1.000000
    5       -7.704048   1.000000
    6       -7.702856   1.000000
    7       -3.625768   1.000000
    8       -3.520983   1.000000
    9        0.378838   0.000000
   10        0.550881   0.000000
   11        6.311366   0.000000
   12        6.329571   0.000000
 
  0.5170068E+00  0.4829932E+00  0.0000000E+00  0.6666667E-02
    1      -15.498870   1.000000
    2      -15.491463   1.000000
    3      -14.478249   1.000000
    4      -14.472005   1.000000
    5       -7.737110   1.000000
    6       -7.735887   1.000000
    7       -3.616724   1.000000
    8       -3.511957   1.000000
    9        0.377044   0.000000
   10        0.548413   0.000000
   11        6.356016   0.000000
   12        6.374438   0.000000
 
  0.5204082E+00  0.4795918E+00  0.0000000E+00  0.6666667E-02
    1      -15.491107   1.000000
    2      -15.483710   1.000000
    3      -14.470527   1.000000
    4      -14.464290   1.000000
    5       -7.777190   1.000000
    6       -7.775932   1.000000
    7       -3.605650   1.000000
    8       -3.500924   1.000000
    9        0.374799   0.000000
   10        0.545339   0.000000
   11        6.410238   0.000000
   12        6.428934   0.000000
 
  0.5238096E+00  0.4761904E+00  0.0000000E+00  0.6666667E-02
    1      -15.481935   1.000000
    2      -15.474548   1.000000
    3      -14.461413   1.000000
    4      -14.455183   1.000000
    5       -7.824108   1.000000
    6       -7.822811   1.000000
    7       -3.592564   1.000000
    8       -3.487880   1.000000
    9        0.372065   0.000000
   10        0.541633   0.000000
   11        6.473820   0.000000
   12        6.492852   0.000000
 
  0.5272109E+00  0.4727891E+00  0.0000000E+00  0.6666667E-02
    1      -15.471348   1.000000
    2      -15.463973   1.000000
    3      -14.450911   1.000000
    4      -14.444687   1.000000
    5       -7.877644   1.000000
    6       -7.876289   1.000000
    7       -3.577467   1.000000
    8       -3.472842   1.000000
    9        0.368803   0.000000
   10        0.537250   0.000000
   11        6.546544   0.000000
   12        6.565978   0.000000
 
  0.5306123E+00  0.4693877E+00  0.0000000E+00  0.6666667E-02
    1      -15.459354   1.000000
    2      -15.451996   1.000000
    3      -14.439035   1.000000
    4      -14.432832   1.000000
    5       -7.937580   1.000000
    6       -7.936165   1.000000
    7       -3.560346   1.000000
    8       -3.455794   1.000000
    9        0.364973   0.000000
   10        0.532147   0.000000
   11        6.628128   0.000000
   12        6.648033   0.000000
 
  0.5340137E+00  0.4659863E+00  0.0000000E+00  0.6666667E-02
    1      -15.445951   1.000000
    2      -15.438607   1.000000
    3      -14.425798   1.000000
    4      -14.419605   1.000000
    5       -8.003645   1.000000
    6       -8.002171   1.000000
    7       -3.541232   1.000000
    8       -3.436753   1.000000
    9        0.360503   0.000000
   10        0.526259   0.000000
   11        6.718288   0.000000
   12        6.738746   0.000000
 
  0.5374150E+00  0.4625850E+00  0.0000000E+00  0.6666667E-02
    1      -15.431143   1.000000
    2      -15.423811   1.000000
    3      -14.411210   1.000000
    4      -14.405026   1.000000
    5       -8.075578   1.000000
    6       -8.074036   1.000000
    7       -3.520112   1.000000
    8       -3.415716   1.000000
    9        0.355347   0.000000
   10        0.519562   0.000000
   11        6.816739   0.000000
   12        6.837826   0.000000
 
  0.5408164E+00  0.4591836E+00  0.0000000E+00  0.6666667E-02
    1      -15.414923   1.000000
    2      -15.407608   1.000000
    3      -14.395280   1.000000
    4      -14.389108   1.000000
    5       -8.153088   1.000000
    6       -8.151476   1.000000
    7       -3.496991   1.000000
    8       -3.392682   1.000000
    9        0.349435   0.000000
   10        0.511981   0.000000
   11        6.923148   0.000000
   12        6.944958   0.000000
 
  0.5442178E+00  0.4557822E+00  0.0000000E+00  0.6666667E-02
    1      -15.397298   1.000000
    2      -15.390004   1.000000
    3      -14.378026   1.000000
    4      -14.371866   1.000000
    5       -8.235897   1.000000
    6       -8.234203   1.000000
    7       -3.471863   1.000000
    8       -3.367650   1.000000
    9        0.342702   0.000000
   10        0.503444   0.000000
   11        7.037166   0.000000
   12        7.059809   0.000000
 
  0.5476191E+00  0.4523809E+00  0.0000000E+00  0.6666667E-02
    1      -15.378255   1.000000
    2      -15.370985   1.000000
    3      -14.359462   1.000000
    4      -14.353318   1.000000
    5       -8.323660   1.000000
    6       -8.321898   1.000000
    7       -3.444732   1.000000
    8       -3.340622   1.000000
    9        0.335069   0.000000
   10        0.493887   0.000000
   11        7.158480   0.000000