 vasp.5.4.4.18Apr17-6-g9f103f2a35 (build May 31 2018 21:15:54) complex          
  
 executed on          c7_intel_O1 date 2020.08.17  20:04:30
 running on   36 total cores
 distrk:  each k-point on   36 cores,    1 groups
 distr:  one band on NCORES_PER_BAND=   6 cores,    6 groups


--------------------------------------------------------------------------------------------------------


 INCAR:
 POTCAR:   PAW_PBE C 08Apr2002                    
 POTCAR:   PAW_PBE C 08Apr2002                    
   VRHFIN =C: s2p2                                                              
   LEXCH  = PE                                                                  
   EATOM  =   147.1560 eV,   10.8157 Ry                                         
                                                                                
   TITEL  = PAW_PBE C 08Apr2002                                                 
   LULTRA =        F    use ultrasoft PP ?                                      
   IUNSCR =        0    unscreen: 0-lin 1-nonlin 2-no                           
   RPACOR =     .000    partial core radius                                     
   POMASS =   12.011; ZVAL   =    4.000    mass and valenz                      
   RCORE  =    1.500    outmost cutoff radius                                   
   RWIGS  =    1.630; RWIGS  =     .863    wigner-seitz radius (au A)           
   ENMAX  =  400.000; ENMIN  =  300.000 eV                                      
   ICORE  =        2    local potential                                         
   LCOR   =        T    correct aug charges                                     
   LPAW   =        T    paw PP                                                  
   EAUG   =  644.873                                                            
   DEXC   =     .000                                                            
   RMAX   =    2.266    core radius for proj-oper                               
   RAUG   =    1.300    factor for augmentation sphere                          
   RDEP   =    1.501    radius for radial grids                                 
   RDEPT  =    1.300    core radius for aug-charge                              
   QCUT   =   -5.516; QGAM   =   11.032    optimization parameters              
                                                                                
   Description                                                                  
     l     E      TYP  RCUT    TYP  RCUT                                        
     0   .000     23  1.200                                                     
     0   .000     23  1.200                                                     
     1   .000     23  1.500                                                     
     1  2.500     23  1.500                                                     
     2   .000      7  1.500                                                     
  local pseudopotential read in
  atomic valenz-charges read in
  non local Contribution for L=           0  read in
    real space projection operators read in
  non local Contribution for L=           0  read in
    real space projection operators read in
  non local Contribution for L=           1  read in
    real space projection operators read in
  non local Contribution for L=           1  read in
    real space projection operators read in
    PAW grid and wavefunctions read in
 
   number of l-projection  operators is LMAX  =           4
   number of lm-projection operators is LMMAX =           8
 
 PAW_PBE C 08Apr2002                    :
 energy of atom  1       EATOM= -147.1560
 kinetic energy error for atom=    0.0016 (will be added to EATOM!!)
 
 
 POSCAR: C2_bilayer                              
  positions in direct lattice
  velocities in cartesian coordinates
 exchange correlation table for  LEXCH =        8
   RHO(1)=    0.500       N(1)  =     2000
   RHO(2)=  100.500       N(2)  =     4000
 


--------------------------------------------------------------------------------------------------------


 ion  position               nearest neighbor table
   1  0.000  0.000  0.000-   2 1.42   2 1.42   2 1.42
   2  0.333  0.333  0.000-   1 1.42   1 1.42   1 1.42
   3  0.000  0.000  0.222-   4 1.42   4 1.42   4 1.42
   4  0.333  0.333  0.222-   3 1.42   3 1.42   3 1.42
 
  LATTYP: Found a hexagonal cell.
 ALAT       =     2.4595120000
 C/A-ratio  =     8.1316944174
  
  Lattice vectors:
  
 A1 = (   0.0000000000,  -2.4595120000,   0.0000000000)
 A2 = (  -2.1300000000,   1.2297560000,   0.0000000000)
 A3 = (   0.0000000000,   0.0000000000, -20.0000000000)


Analysis of symmetry for initial positions (statically):
=====================================================================
 Subroutine PRICEL returns:
 Original cell was already a primitive cell.
 

 Routine SETGRP: Setting up the symmetry group for a 
 hexagonal supercell.


 Subroutine GETGRP returns: Found 24 space group operations
 (whereof  6 operations were pure point group operations)
 out of a pool of 24 trial point group operations.


The static configuration has the point symmetry C_3v.
 The point group associated with its full space group is D_6h.


Analysis of symmetry for dynamics (positions and initial velocities):
=====================================================================
 Subroutine PRICEL returns:
 Original cell was already a primitive cell.
 

 Routine SETGRP: Setting up the symmetry group for a 
 hexagonal supercell.


 Subroutine GETGRP returns: Found 24 space group operations
 (whereof  6 operations were pure point group operations)
 out of a pool of 24 trial point group operations.


The dynamic configuration has the point symmetry C_3v.
 The point group associated with its full space group is D_6h.


Analysis of constrained symmetry for selective dynamics:
=====================================================================
 Subroutine PRICEL returns:
 Original cell was already a primitive cell.
 

 Routine SETGRP: Setting up the symmetry group for a 
 hexagonal supercell.


 Subroutine GETGRP returns: Found 12 space group operations
 (whereof  6 operations were pure point group operations)
 out of a pool of 24 trial point group operations.


The constrained configuration has the point symmetry C_3v.
 The point group associated with its full space group is C_6v.


 Subroutine INISYM returns: Found 12 space group operations
 (whereof  6 operations are pure point group operations),
 and found     1 'primitive' translations

 
 
 KPOINTS: k-points along high symmetry lines      
  interpolating k-points between supplied coordinates
  k-points in reciprocal lattice
Space group operators:
 irot       det(A)        alpha          n_x          n_y          n_z        tau_x        tau_y        tau_z
    1     1.000000     0.000000     1.000000     0.000000     0.000000     0.000000     0.000000     0.000000
    2     1.000000   120.000000     0.000000     0.000000     1.000000     0.000000     0.000000     0.000000
    3     1.000000   120.000000     0.000000     0.000000    -1.000000     0.000000     0.000000     0.000000
    4    -1.000000   180.000000    -0.000000     1.000000     0.000000     0.000000     0.000000     0.000000
    5    -1.000000   180.000000     0.866025    -0.500000     0.000000     0.000000     0.000000     0.000000
    6    -1.000000   180.000000     0.866025     0.500000     0.000000     0.000000     0.000000     0.000000
    7     1.000000    60.000000     0.000000     0.000000     1.000000     0.333333    -0.666667     0.000000
    8     1.000000   180.000000     0.000000     0.000000     1.000000     0.333333    -0.666667     0.000000
    9     1.000000    60.000000     0.000000     0.000000    -1.000000     0.333333    -0.666667     0.000000
   10    -1.000000   180.000000     0.500000    -0.866025     0.000000     0.333333    -0.666667     0.000000
   11    -1.000000   180.000000     1.000000     0.000000     0.000000     0.333333    -0.666667     0.000000
   12    -1.000000   180.000000    -0.500000    -0.866025     0.000000     0.333333    -0.666667     0.000000


--------------------------------------------------------------------------------------------------------




 Dimension of arrays:
   k-points           NKPTS =    150   k-points in BZ     NKDIM =    150   number of bands    NBANDS=     12
   number of dos      NEDOS =    301   number of ions     NIONS =      4
   non local maximal  LDIM  =      4   non local SUM 2l+1 LMDIM =      8
   total plane-waves  NPLWV = 110592
   max r-space proj   IRMAX =      1   max aug-charges    IRDMAX=  99836
   dimension x,y,z NGX =    24 NGY =   24 NGZ =  192
   dimension x,y,z NGXF=    48 NGYF=   48 NGZF=  384
   support grid    NGXF=    96 NGYF=   96 NGZF=  768
   ions per type =               4
   NGX,Y,Z   is equivalent  to a cutoff of  16.22, 16.22, 15.96 a.u.
   NGXF,Y,Z  is equivalent  to a cutoff of  32.44, 32.44, 31.92 a.u.

 SYSTEM =  C-4                                     
 POSCAR =  C2_bilayer                              

 Startparameter for this run:
   NWRITE =      2    write-flag & timer
   PREC   = accura    normal or accurate (medium, high low for compatibility)
   ISTART =      0    job   : 0-new  1-cont  2-samecut
   ICHARG =     11    charge: 1-file 2-atom 10-const
   ISPIN  =      1    spin polarized calculation?
   LNONCOLLINEAR =      F non collinear calculations
   LSORBIT =      F    spin-orbit coupling
   INIWAV =      1    electr: 0-lowe 1-rand  2-diag
   LASPH  =      F    aspherical Exc in radial PAW
   METAGGA=      F    non-selfconsistent MetaGGA calc.

 Electronic Relaxation 1
   ENCUT  =  800.0 eV  58.80 Ry    7.67 a.u.   5.67  5.67 46.12*2*pi/ulx,y,z
   ENINI  =  800.0     initial cutoff
   ENAUG  =  644.9 eV  augmentation charge cutoff
   NELM   =     60;   NELMIN=  5; NELMDL= -5     # of ELM steps 
   EDIFF  = 0.1E-07   stopping-criterion for ELM
   LREAL  =      F    real-space projection
   NLSPLINE    = F    spline interpolate recip. space projectors
   LCOMPAT=      F    compatible to vasp.4.4
   GGA_COMPAT  = T    GGA compatible to vasp.4.4-vasp.4.6
   LMAXPAW     = -100 max onsite density
   LMAXMIX     =    2 max onsite mixed and CHGCAR
   VOSKOWN=      0    Vosko Wilk Nusair interpolation
   ROPT   =    0.00000
 Ionic relaxation
   EDIFFG = -.1E-07   stopping-criterion for IOM
   NSW    =      0    number of steps for IOM
   NBLOCK =      1;   KBLOCK =      1    inner block; outer block 
   IBRION =     -1    ionic relax: 0-MD 1-quasi-New 2-CG
   NFREE  =      0    steps in history (QN), initial steepest desc. (CG)
   ISIF   =      2    stress and relaxation
   IWAVPR =     10    prediction:  0-non 1-charg 2-wave 3-comb
   ISYM   =      2    0-nonsym 1-usesym 2-fastsym
   LCORR  =      T    Harris-Foulkes like correction to forces

   POTIM  = 0.5000    time-step for ionic-motion
   TEIN   =    0.0    initial temperature
   TEBEG  =    0.0;   TEEND  =   0.0 temperature during run
   SMASS  =  -3.00    Nose mass-parameter (am)
   estimated Nose-frequenzy (Omega)   =  0.10E-29 period in steps =****** mass=  -0.138E-27a.u.
   SCALEE = 1.0000    scale energy and forces
   NPACO  =    256;   APACO  = 16.0  distance and # of slots for P.C.
   PSTRESS=    0.0 pullay stress

  Mass of Ions in am
   POMASS =  12.01
  Ionic Valenz
   ZVAL   =   4.00
  Atomic Wigner-Seitz radii
   RWIGS  =  -1.00
  virtual crystal weights 
   VCA    =   1.00
   NELECT =      16.0000    total number of electrons
   NUPDOWN=      -1.0000    fix difference up-down

 DOS related values:
   EMIN   =  10.00;   EMAX   =-10.00  energy-range for DOS
   EFERMI =   0.00
   ISMEAR =     0;   SIGMA  =   0.01  broadening in eV -4-tet -1-fermi 0-gaus

 Electronic relaxation 2 (details)
   IALGO  =     38    algorithm
   LDIAG  =      T    sub-space diagonalisation (order eigenvalues)
   LSUBROT=      F    optimize rotation matrix (better conditioning)
   TURBO    =      0    0=normal 1=particle mesh
   IRESTART =      0    0=no restart 2=restart with 2 vectors
   NREBOOT  =      0    no. of reboots
   NMIN     =      0    reboot dimension
   EREF     =   0.00    reference energy to select bands
   IMIX   =      4    mixing-type and parameters
     AMIX     =   0.40;   BMIX     =  1.00
     AMIX_MAG =   1.60;   BMIX_MAG =  1.00
     AMIN     =   0.01
     WC   =   100.;   INIMIX=   1;  MIXPRE=   1;  MAXMIX= -45

 Intra band minimization:
   WEIMIN = 0.0000     energy-eigenvalue tresh-hold
   EBREAK =  0.21E-10  absolut break condition
   DEPER  =   0.30     relativ break condition  

   TIME   =   0.40     timestep for ELM

  volume/ion in A,a.u.               =      26.19       176.76
  Fermi-wavevector in a.u.,A,eV,Ry     =   0.875041  1.653589 10.417948  0.765698
  Thomas-Fermi vector in A             =   1.994657
 
 Write flags
   LWAVE        =      F    write WAVECAR
   LDOWNSAMPLE  =      F    k-point downsampling of WAVECAR
   LCHARG       =      F    write CHGCAR
   LVTOT        =      F    write LOCPOT, total local potential
   LVHAR        =      F    write LOCPOT, Hartree potential only
   LELF         =      F    write electronic localiz. function (ELF)
   LORBIT       =      0    0 simple, 1 ext, 2 COOP (PROOUT), +10 PAW based schemes


 Dipole corrections
   LMONO  =      F    monopole corrections only (constant potential shift)
   LDIPOL =      F    correct potential (dipole corrections)
   IDIPOL =      0    1-x, 2-y, 3-z, 4-all directions 
   EPSILON=  1.0000000 bulk dielectric constant

 Exchange correlation treatment:
   GGA     =    --    GGA type
   LEXCH   =     8    internal setting for exchange type
   VOSKOWN=      0    Vosko Wilk Nusair interpolation
   LHFCALC =     F    Hartree Fock is set to
   LHFONE  =     F    Hartree Fock one center treatment
   AEXX    =    0.0000 exact exchange contribution

 Linear response parameters
   LEPSILON=     F    determine dielectric tensor
   LRPA    =     F    only Hartree local field effects (RPA)
   LNABLA  =     F    use nabla operator in PAW spheres
   LVEL    =     F    velocity operator in full k-point grid
   LINTERFAST=   F  fast interpolation
   KINTER  =     0    interpolate to denser k-point grid
   CSHIFT  =0.1000    complex shift for real part using Kramers Kronig
   OMEGAMAX=  -1.0    maximum frequency
   DEG_THRESHOLD= 0.2000000E-02 threshold for treating states as degnerate
   RTIME   =   -0.100 relaxation time in fs
  (WPLASMAI=    0.000 imaginary part of plasma frequency in eV, 0.658/RTIME)
   DFIELD  = 0.0000000 0.0000000 0.0000000 field for delta impulse in time
 
 Orbital magnetization related:
   ORBITALMAG=     F  switch on orbital magnetization
   LCHIMAG   =     F  perturbation theory with respect to B field
   DQ        =  0.001000  dq finite difference perturbation B field
   LLRAUG    =     F  two centre corrections for induced B field



--------------------------------------------------------------------------------------------------------


 Static calculation
 charge density and potential remain constant during run
 non-spin polarized calculation
 Variant of blocked Davidson
 Davidson routine will perform the subspace rotation
 perform sub-space diagonalisation
    after iterative eigenvector-optimisation
 no mixing
 using additional bands            4
 reciprocal scheme for non local part
 calculate Harris-corrections to forces 
   (improved forces if not selfconsistent)
 use gradient corrections 
 WARNING: stress and forces are not correct
  (second derivative of E(xc) not defined)
 use of overlap-Matrix (Vanderbilt PP)
 Gauss-broadening in eV      SIGMA  =   0.01


--------------------------------------------------------------------------------------------------------


  energy-cutoff  :      800.00
  volume of cell :      104.78
      direct lattice vectors                 reciprocal lattice vectors
     2.130000000 -1.229756000  0.000000000     0.234741784 -0.406584721  0.000000000
     2.130000000  1.229756000  0.000000000     0.234741784  0.406584721  0.000000000
     0.000000000  0.000000000 20.000000000     0.000000000  0.000000000  0.050000000

  length of vectors
     2.459512110  2.459512110 20.000000000     0.469483589  0.469483589  0.050000000


 
 k-points in units of 2pi/SCALE and weight: k-points along high symmetry lines      
   0.00000000  0.00000000  0.00000000       0.007
   0.00479065 -0.00000000  0.00000000       0.007
   0.00958130 -0.00000000  0.00000000       0.007
   0.01437195  0.00000000  0.00000000       0.007
   0.01916259 -0.00000000  0.00000000       0.007
   0.02395324  0.00000000  0.00000000       0.007
   0.02874389  0.00000000  0.00000000       0.007
   0.03353454  0.00000000  0.00000000       0.007
   0.03832519 -0.00000000  0.00000000       0.007
   0.04311584 -0.00000000  0.00000000       0.007
   0.04790649  0.00000000  0.00000000       0.007
   0.05269714  0.00000000  0.00000000       0.007
   0.05748778  0.00000000  0.00000000       0.007
   0.06227843  0.00000000  0.00000000       0.007
   0.06706908  0.00000000  0.00000000       0.007
   0.07185973  0.00000000  0.00000000       0.007
   0.07665038 -0.00000000  0.00000000       0.007
   0.08144103 -0.00000000  0.00000000       0.007
   0.08623168 -0.00000000  0.00000000       0.007
   0.09102232 -0.00000000  0.00000000       0.007
   0.09581297  0.00000000  0.00000000       0.007
   0.10060362  0.00000000  0.00000000       0.007
   0.10539427  0.00000000  0.00000000       0.007
   0.11018492  0.00000000  0.00000000       0.007
   0.11497557  0.00000000  0.00000000       0.007
   0.11976622 -0.00000000  0.00000000       0.007
   0.12455686  0.00000000  0.00000000       0.007
   0.12934751  0.00000000  0.00000000       0.007
   0.13413816  0.00000000  0.00000000       0.007
   0.13892881  0.00000000  0.00000000       0.007
   0.14371946  0.00000000  0.00000000       0.007
   0.14851011  0.00000000  0.00000000       0.007
   0.15330076 -0.00000000  0.00000000       0.007
   0.15809141  0.00000000  0.00000000       0.007
   0.16288205 -0.00000000  0.00000000       0.007
   0.16767270 -0.00000000  0.00000000       0.007
   0.17246335 -0.00000000  0.00000000       0.007
   0.17725400  0.00000000  0.00000000       0.007
   0.18204465 -0.00000000  0.00000000       0.007
   0.18683530 -0.00000000  0.00000000       0.007
   0.19162595  0.00000000  0.00000000       0.007
   0.19641659 -0.00000000  0.00000000       0.007
   0.20120724  0.00000000  0.00000000       0.007
   0.20599789  0.00000000  0.00000000       0.007
   0.21078854  0.00000000  0.00000000       0.007
   0.21557919 -0.00000000  0.00000000       0.007
   0.22036984  0.00000000  0.00000000       0.007
   0.22516049 -0.00000000  0.00000000       0.007
   0.22995114  0.00000000  0.00000000       0.007
   0.23474178 -0.00000000  0.00000000       0.007
   0.23474178  0.00000000  0.00000000       0.007
   0.23474178 -0.00276589  0.00000000       0.007
   0.23474178 -0.00553178  0.00000000       0.007
   0.23474178 -0.00829766  0.00000000       0.007
   0.23474178 -0.01106355  0.00000000       0.007
   0.23474178 -0.01382944  0.00000000       0.007
   0.23474178 -0.01659533  0.00000000       0.007
   0.23474178 -0.01936122  0.00000000       0.007
   0.23474178 -0.02212710  0.00000000       0.007
   0.23474178 -0.02489299  0.00000000       0.007
   0.23474178 -0.02765888  0.00000000       0.007
   0.23474178 -0.03042477  0.00000000       0.007
   0.23474178 -0.03319066  0.00000000       0.007
   0.23474178 -0.03595654  0.00000000       0.007
   0.23474178 -0.03872243  0.00000000       0.007
   0.23474178 -0.04148832  0.00000000       0.007
   0.23474178 -0.04425421  0.00000000       0.007
   0.23474178 -0.04702010  0.00000000       0.007
   0.23474178 -0.04978598  0.00000000       0.007
   0.23474178 -0.05255187  0.00000000       0.007
   0.23474178 -0.05531776  0.00000000       0.007
   0.23474178 -0.05808365  0.00000000       0.007
   0.23474178 -0.06084954  0.00000000       0.007
   0.23474178 -0.06361542  0.00000000       0.007
   0.23474178 -0.06638131  0.00000000       0.007
   0.23474178 -0.06914720  0.00000000       0.007
   0.23474178 -0.07191309  0.00000000       0.007
   0.23474178 -0.07467898  0.00000000       0.007
   0.23474178 -0.07744486  0.00000000       0.007
   0.23474178 -0.08021075  0.00000000       0.007
   0.23474178 -0.08297664  0.00000000       0.007
   0.23474178 -0.08574253  0.00000000       0.007
   0.23474178 -0.08850842  0.00000000       0.007
   0.23474178 -0.09127430  0.00000000       0.007
   0.23474178 -0.09404019  0.00000000       0.007
   0.23474178 -0.09680608  0.00000000       0.007
   0.23474178 -0.09957197  0.00000000       0.007
   0.23474178 -0.10233786  0.00000000       0.007
   0.23474178 -0.10510374  0.00000000       0.007
   0.23474178 -0.10786963  0.00000000       0.007
   0.23474178 -0.11063552  0.00000000       0.007
   0.23474178 -0.11340141  0.00000000       0.007
   0.23474178 -0.11616730  0.00000000       0.007
   0.23474178 -0.11893318  0.00000000       0.007
   0.23474178 -0.12169907  0.00000000       0.007
   0.23474178 -0.12446496  0.00000000       0.007
   0.23474178 -0.12723085  0.00000000       0.007
   0.23474178 -0.12999674  0.00000000       0.007
   0.23474178 -0.13276262  0.00000000       0.007
   0.23474178 -0.13552851  0.00000000       0.007
   0.23474178 -0.13552851  0.00000000       0.007
   0.22995114 -0.13276262  0.00000000       0.007
   0.22516049 -0.12999674  0.00000000       0.007
   0.22036984 -0.12723085  0.00000000       0.007
   0.21557919 -0.12446496  0.00000000       0.007
   0.21078854 -0.12169907  0.00000000       0.007
   0.20599789 -0.11893318  0.00000000       0.007
   0.20120724 -0.11616730  0.00000000       0.007
   0.19641659 -0.11340141  0.00000000       0.007
   0.19162595 -0.11063552  0.00000000       0.007
   0.18683530 -0.10786963  0.00000000       0.007
   0.18204465 -0.10510374  0.00000000       0.007
   0.17725400 -0.10233786  0.00000000       0.007
   0.17246335 -0.09957197  0.00000000       0.007
   0.16767270 -0.09680608  0.00000000       0.007
   0.16288205 -0.09404019  0.00000000       0.007
   0.15809141 -0.09127430  0.00000000       0.007
   0.15330076 -0.08850842  0.00000000       0.007
   0.14851011 -0.08574253  0.00000000       0.007
   0.14371946 -0.08297664  0.00000000       0.007
   0.13892881 -0.08021075  0.00000000       0.007
   0.13413816 -0.07744486  0.00000000       0.007
   0.12934751 -0.07467898  0.00000000       0.007
   0.12455686 -0.07191309  0.00000000       0.007
   0.11976622 -0.06914720  0.00000000       0.007
   0.11497557 -0.06638131  0.00000000       0.007
   0.11018492 -0.06361542  0.00000000       0.007
   0.10539427 -0.06084954  0.00000000       0.007
   0.10060362 -0.05808365  0.00000000       0.007
   0.09581297 -0.05531776  0.00000000       0.007
   0.09102232 -0.05255187  0.00000000       0.007
   0.08623168 -0.04978598  0.00000000       0.007
   0.08144103 -0.04702010  0.00000000       0.007
   0.07665038 -0.04425421  0.00000000       0.007
   0.07185973 -0.04148832  0.00000000       0.007
   0.06706908 -0.03872243  0.00000000       0.007
   0.06227843 -0.03595654  0.00000000       0.007
   0.05748778 -0.03319066  0.00000000       0.007
   0.05269714 -0.03042477  0.00000000       0.007
   0.04790649 -0.02765888  0.00000000       0.007
   0.04311584 -0.02489299  0.00000000       0.007
   0.03832519 -0.02212710  0.00000000       0.007
   0.03353454 -0.01936122  0.00000000       0.007
   0.02874389 -0.01659533  0.00000000       0.007
   0.02395324 -0.01382944  0.00000000       0.007
   0.01916259 -0.01106355  0.00000000       0.007
   0.01437195 -0.00829766  0.00000000       0.007
   0.00958130 -0.00553178  0.00000000       0.007
   0.00479065 -0.00276589  0.00000000       0.007
  -0.00000000  0.00000000  0.00000000       0.007
 
 k-points in reciprocal lattice and weights: k-points along high symmetry lines      
   0.00000000  0.00000000  0.00000000       0.007
   0.01020408  0.01020408  0.00000000       0.007
   0.02040816  0.02040816  0.00000000       0.007
   0.03061224  0.03061224  0.00000000       0.007
   0.04081633  0.04081633  0.00000000       0.007
   0.05102041  0.05102041  0.00000000       0.007
   0.06122449  0.06122449  0.00000000       0.007
   0.07142857  0.07142857  0.00000000       0.007
   0.08163265  0.08163265  0.00000000       0.007
   0.09183673  0.09183673  0.00000000       0.007
   0.10204082  0.10204082  0.00000000       0.007
   0.11224490  0.11224490  0.00000000       0.007
   0.12244898  0.12244898  0.00000000       0.007
   0.13265306  0.13265306  0.00000000       0.007
   0.14285714  0.14285714  0.00000000       0.007
   0.15306122  0.15306122  0.00000000       0.007
   0.16326531  0.16326531  0.00000000       0.007
   0.17346939  0.17346939  0.00000000       0.007
   0.18367347  0.18367347  0.00000000       0.007
   0.19387755  0.19387755  0.00000000       0.007
   0.20408163  0.20408163  0.00000000       0.007
   0.21428571  0.21428571  0.00000000       0.007
   0.22448980  0.22448980  0.00000000       0.007
   0.23469388  0.23469388  0.00000000       0.007
   0.24489796  0.24489796  0.00000000       0.007
   0.25510204  0.25510204  0.00000000       0.007
   0.26530612  0.26530612  0.00000000       0.007
   0.27551020  0.27551020  0.00000000       0.007
   0.28571429  0.28571429  0.00000000       0.007
   0.29591837  0.29591837  0.00000000       0.007
   0.30612245  0.30612245  0.00000000       0.007
   0.31632653  0.31632653  0.00000000       0.007
   0.32653061  0.32653061  0.00000000       0.007
   0.33673469  0.33673469  0.00000000       0.007
   0.34693878  0.34693878  0.00000000       0.007
   0.35714286  0.35714286  0.00000000       0.007
   0.36734694  0.36734694  0.00000000       0.007
   0.37755102  0.37755102  0.00000000       0.007
   0.38775510  0.38775510  0.00000000       0.007
   0.39795918  0.39795918  0.00000000       0.007
   0.40816327  0.40816327  0.00000000       0.007
   0.41836735  0.41836735  0.00000000       0.007
   0.42857143  0.42857143  0.00000000       0.007
   0.43877551  0.43877551  0.00000000       0.007
   0.44897959  0.44897959  0.00000000       0.007
   0.45918367  0.45918367  0.00000000       0.007
   0.46938776  0.46938776  0.00000000       0.007
   0.47959184  0.47959184  0.00000000       0.007
   0.48979592  0.48979592  0.00000000       0.007
   0.50000000  0.50000000  0.00000000       0.007
   0.50000000  0.50000000  0.00000000       0.007
   0.50340137  0.49659863  0.00000000       0.007
   0.50680273  0.49319727  0.00000000       0.007
   0.51020410  0.48979590  0.00000000       0.007
   0.51360547  0.48639453  0.00000000       0.007
   0.51700684  0.48299316  0.00000000       0.007
   0.52040820  0.47959180  0.00000000       0.007
   0.52380957  0.47619043  0.00000000       0.007
   0.52721094  0.47278906  0.00000000       0.007
   0.53061231  0.46938769  0.00000000       0.007
   0.53401367  0.46598633  0.00000000       0.007
   0.53741504  0.46258496  0.00000000       0.007
   0.54081641  0.45918359  0.00000000       0.007
   0.54421778  0.45578222  0.00000000       0.007
   0.54761914  0.45238086  0.00000000       0.007
   0.55102051  0.44897949  0.00000000       0.007
   0.55442188  0.44557812  0.00000000       0.007
   0.55782324  0.44217676  0.00000000       0.007
   0.56122461  0.43877539  0.00000000       0.007
   0.56462598  0.43537402  0.00000000       0.007
   0.56802735  0.43197265  0.00000000       0.007
   0.57142871  0.42857129  0.00000000       0.007
   0.57483008  0.42516992  0.00000000       0.007
   0.57823145  0.42176855  0.00000000       0.007
   0.58163282  0.41836718  0.00000000       0.007
   0.58503418  0.41496582  0.00000000       0.007
   0.58843555  0.41156445  0.00000000       0.007
   0.59183692  0.40816308  0.00000000       0.007
   0.59523829  0.40476171  0.00000000       0.007
   0.59863965  0.40136035  0.00000000       0.007
   0.60204102  0.39795898  0.00000000       0.007
   0.60544239  0.39455761  0.00000000       0.007
   0.60884376  0.39115624  0.00000000       0.007
   0.61224512  0.38775488  0.00000000       0.007
   0.61564649  0.38435351  0.00000000       0.007
   0.61904786  0.38095214  0.00000000       0.007
   0.62244922  0.37755078  0.00000000       0.007
   0.62585059  0.37414941  0.00000000       0.007
   0.62925196  0.37074804  0.00000000       0.007
   0.63265333  0.36734667  0.00000000       0.007
   0.63605469  0.36394531  0.00000000       0.007
   0.63945606  0.36054394  0.00000000       0.007
   0.64285743  0.35714257  0.00000000       0.007
   0.64625880  0.35374120  0.00000000       0.007
   0.64966016  0.35033984  0.00000000       0.007
   0.65306153  0.34693847  0.00000000       0.007
   0.65646290  0.34353710  0.00000000       0.007
   0.65986427  0.34013573  0.00000000       0.007
   0.66326563  0.33673437  0.00000000       0.007
   0.66666700  0.33333300  0.00000000       0.007
   0.66666700  0.33333300  0.00000000       0.007
   0.65306155  0.32653029  0.00000000       0.007
   0.63945610  0.31972757  0.00000000       0.007
   0.62585065  0.31292486  0.00000000       0.007
   0.61224520  0.30612214  0.00000000       0.007
   0.59863976  0.29931943  0.00000000       0.007
   0.58503431  0.29251671  0.00000000       0.007
   0.57142886  0.28571400  0.00000000       0.007
   0.55782341  0.27891129  0.00000000       0.007
   0.54421796  0.27210857  0.00000000       0.007
   0.53061251  0.26530586  0.00000000       0.007
   0.51700706  0.25850314  0.00000000       0.007
   0.50340161  0.25170043  0.00000000       0.007
   0.48979616  0.24489771  0.00000000       0.007
   0.47619071  0.23809500  0.00000000       0.007
   0.46258527  0.23129229  0.00000000       0.007
   0.44897982  0.22448957  0.00000000       0.007
   0.43537437  0.21768686  0.00000000       0.007
   0.42176892  0.21088414  0.00000000       0.007
   0.40816347  0.20408143  0.00000000       0.007
   0.39455802  0.19727871  0.00000000       0.007
   0.38095257  0.19047600  0.00000000       0.007
   0.36734712  0.18367329  0.00000000       0.007
   0.35374167  0.17687057  0.00000000       0.007
   0.34013622  0.17006786  0.00000000       0.007
   0.32653078  0.16326514  0.00000000       0.007
   0.31292533  0.15646243  0.00000000       0.007
   0.29931988  0.14965971  0.00000000       0.007
   0.28571443  0.14285700  0.00000000       0.007
   0.27210898  0.13605429  0.00000000       0.007
   0.25850353  0.12925157  0.00000000       0.007
   0.24489808  0.12244886  0.00000000       0.007
   0.23129263  0.11564614  0.00000000       0.007
   0.21768718  0.10884343  0.00000000       0.007
   0.20408173  0.10204071  0.00000000       0.007
   0.19047629  0.09523800  0.00000000       0.007
   0.17687084  0.08843529  0.00000000       0.007
   0.16326539  0.08163257  0.00000000       0.007
   0.14965994  0.07482986  0.00000000       0.007
   0.13605449  0.06802714  0.00000000       0.007
   0.12244904  0.06122443  0.00000000       0.007
   0.10884359  0.05442171  0.00000000       0.007
   0.09523814  0.04761900  0.00000000       0.007
   0.08163269  0.04081629  0.00000000       0.007
   0.06802724  0.03401357  0.00000000       0.007
   0.05442180  0.02721086  0.00000000       0.007
   0.04081635  0.02040814  0.00000000       0.007
   0.02721090  0.01360543  0.00000000       0.007
   0.01360545  0.00680271  0.00000000       0.007
  -0.00000000  0.00000000  0.00000000       0.007
 
 position of ions in fractional coordinates (direct lattice) 
   0.00000000  0.00000000  0.00000000
   0.33333300  0.33333300  0.00000000
   0.00000000  0.00000000  0.22193400
   0.33333300  0.33333300  0.22193400
 
 position of ions in cartesian coordinates  (Angst):
   0.00000000  0.00000000  0.00000000
   1.41999858  0.00000000  0.00000000
   0.00000000  0.00000000  4.43868000
   1.41999858  0.00000000  4.43868000
 


--------------------------------------------------------------------------------------------------------


 k-point  1 :   0.0000 0.0000 0.0000  plane waves:    5409
 k-point  2 :   0.0102 0.0102 0.0000  plane waves:    5409
 k-point  3 :   0.0204 0.0204 0.0000  plane waves:    5407
 k-point  4 :   0.0306 0.0306 0.0000  plane waves:    5413
 k-point  5 :   0.0408 0.0408 0.0000  plane waves:    5413
 k-point  6 :   0.0510 0.0510 0.0000  plane waves:    5417
 k-point  7 :   0.0612 0.0612 0.0000  plane waves:    5415
 k-point  8 :   0.0714 0.0714 0.0000  plane waves:    5415
 k-point  9 :   0.0816 0.0816 0.0000  plane waves:    5405
 k-point 10 :   0.0918 0.0918 0.0000  plane waves:    5400
 k-point 11 :   0.1020 0.1020 0.0000  plane waves:    5406
 k-point 12 :   0.1122 0.1122 0.0000  plane waves:    5412
 k-point 13 :   0.1224 0.1224 0.0000  plane waves:    5406
 k-point 14 :   0.1327 0.1327 0.0000  plane waves:    5402
 k-point 15 :   0.1429 0.1429 0.0000  plane waves:    5398
 k-point 16 :   0.1531 0.1531 0.0000  plane waves:    5388
 k-point 17 :   0.1633 0.1633 0.0000  plane waves:    5394
 k-point 18 :   0.1735 0.1735 0.0000  plane waves:    5398
 k-point 19 :   0.1837 0.1837 0.0000  plane waves:    5400
 k-point 20 :   0.1939 0.1939 0.0000  plane waves:    5400
 k-point 21 :   0.2041 0.2041 0.0000  plane waves:    5396
 k-point 22 :   0.2143 0.2143 0.0000  plane waves:    5410
 k-point 23 :   0.2245 0.2245 0.0000  plane waves:    5410
 k-point 24 :   0.2347 0.2347 0.0000  plane waves:    5408
 k-point 25 :   0.2449 0.2449 0.0000  plane waves:    5408
 k-point 26 :   0.2551 0.2551 0.0000  plane waves:    5406
 k-point 27 :   0.2653 0.2653 0.0000  plane waves:    5402
 k-point 28 :   0.2755 0.2755 0.0000  plane waves:    5412
 k-point 29 :   0.2857 0.2857 0.0000  plane waves:    5404
 k-point 30 :   0.2959 0.2959 0.0000  plane waves:    5410
 k-point 31 :   0.3061 0.3061 0.0000  plane waves:    5394
 k-point 32 :   0.3163 0.3163 0.0000  plane waves:    5390
 k-point 33 :   0.3265 0.3265 0.0000  plane waves:    5380
 k-point 34 :   0.3367 0.3367 0.0000  plane waves:    5388
 k-point 35 :   0.3469 0.3469 0.0000  plane waves:    5396
 k-point 36 :   0.3571 0.3571 0.0000  plane waves:    5390
 k-point 37 :   0.3673 0.3673 0.0000  plane waves:    5382
 k-point 38 :   0.3776 0.3776 0.0000  plane waves:    5378
 k-point 39 :   0.3878 0.3878 0.0000  plane waves:    5374
 k-point 40 :   0.3980 0.3980 0.0000  plane waves:    5384
 k-point 41 :   0.4082 0.4082 0.0000  plane waves:    5382
 k-point 42 :   0.4184 0.4184 0.0000  plane waves:    5382
 k-point 43 :   0.4286 0.4286 0.0000  plane waves:    5396
 k-point 44 :   0.4388 0.4388 0.0000  plane waves:    5392
 k-point 45 :   0.4490 0.4490 0.0000  plane waves:    5390
 k-point 46 :   0.4592 0.4592 0.0000  plane waves:    5386
 k-point 47 :   0.4694 0.4694 0.0000  plane waves:    5392
 k-point 48 :   0.4796 0.4796 0.0000  plane waves:    5378
 k-point 49 :   0.4898 0.4898 0.0000  plane waves:    5380
 k-point 50 :   0.5000 0.5000 0.0000  plane waves:    5384
 k-point 51 :   0.5000 0.5000 0.0000  plane waves:    5384
 k-point 52 :   0.5034 0.4966 0.0000  plane waves:    5376
 k-point 53 :   0.5068 0.4932 0.0000  plane waves:    5380
 k-point 54 :   0.5102 0.4898 0.0000  plane waves:    5388
 k-point 55 :   0.5136 0.4864 0.0000  plane waves:    5392
 k-point 56 :   0.5170 0.4830 0.0000  plane waves:    5398
 k-point 57 :   0.5204 0.4796 0.0000  plane waves:    5398
 k-point 58 :   0.5238 0.4762 0.0000  plane waves:    5394
 k-point 59 :   0.5272 0.4728 0.0000  plane waves:    5388
 k-point 60 :   0.5306 0.4694 0.0000  plane waves:    5380
 k-point 61 :   0.5340 0.4660 0.0000  plane waves:    5384
 k-point 62 :   0.5374 0.4626 0.0000  plane waves:    5388
 k-point 63 :   0.5408 0.4592 0.0000  plane waves:    5392
 k-point 64 :   0.5442 0.4558 0.0000  plane waves:    5398
 k-point 65 :   0.5476 0.4524 0.0000  plane waves:    5398
 k-point 66 :   0.5510 0.4490 0.0000  plane waves:    5394
 k-point 67 :   0.5544 0.4456 0.0000  plane waves:    5386
 k-point 68 :   0.5578 0.4422 0.0000  plane waves:    5396
 k-point 69 :   0.5612 0.4388 0.0000  plane waves:    5408
 k-point 70 :   0.5646 0.4354 0.0000  plane waves:    5404
 k-point 71 :   0.5680 0.4320 0.0000  plane waves:    5404
 k-point 72 :   0.5714 0.4286 0.0000  plane waves:    5400
 k-point 73 :   0.5748 0.4252 0.0000  plane waves:    5392
 k-point 74 :   0.5782 0.4218 0.0000  plane waves:    5390
 k-point 75 :   0.5816 0.4184 0.0000  plane waves:    5382
 k-point 76 :   0.5850 0.4150 0.0000  plane waves:    5376
 k-point 77 :   0.5884 0.4116 0.0000  plane waves:    5382
 k-point 78 :   0.5918 0.4082 0.0000  plane waves:    5372
 k-point 79 :   0.5952 0.4048 0.0000  plane waves:    5364
 k-point 80 :   0.5986 0.4014 0.0000  plane waves:    5356
 k-point 81 :   0.6020 0.3980 0.0000  plane waves:    5360
 k-point 82 :   0.6054 0.3946 0.0000  plane waves:    5368
 k-point 83 :   0.6088 0.3912 0.0000  plane waves:    5374
 k-point 84 :   0.6122 0.3878 0.0000  plane waves:    5364
 k-point 85 :   0.6156 0.3844 0.0000  plane waves:    5364
 k-point 86 :   0.6190 0.3810 0.0000  plane waves:    5366
 k-point 87 :   0.6224 0.3776 0.0000  plane waves:    5360
 k-point 88 :   0.6259 0.3741 0.0000  plane waves:    5356
 k-point 89 :   0.6293 0.3707 0.0000  plane waves:    5356
 k-point 90 :   0.6327 0.3673 0.0000  plane waves:    5352
 k-point 91 :   0.6361 0.3639 0.0000  plane waves:    5348
 k-point 92 :   0.6395 0.3605 0.0000  plane waves:    5340
 k-point 93 :   0.6429 0.3571 0.0000  plane waves:    5328
 k-point 94 :   0.6463 0.3537 0.0000  plane waves:    5318
 k-point 95 :   0.6497 0.3503 0.0000  plane waves:    5322
 k-point 96 :   0.6531 0.3469 0.0000  plane waves:    5326
 k-point 97 :   0.6565 0.3435 0.0000  plane waves:    5334
 k-point 98 :   0.6599 0.3401 0.0000  plane waves:    5336
 k-point 99 :   0.6633 0.3367 0.0000  plane waves:    5334
 k-point ** :   0.6667 0.3333 0.0000  plane waves:    5334
 k-point ** :   0.6667 0.3333 0.0000  plane waves:    5334
 k-point ** :   0.6531 0.3265 0.0000  plane waves:    5334
 k-point ** :   0.6395 0.3197 0.0000  plane waves:    5336
 k-point ** :   0.6259 0.3129 0.0000  plane waves:    5330
 k-point ** :   0.6122 0.3061 0.0000  plane waves:    5336
 k-point ** :   0.5986 0.2993 0.0000  plane waves:    5346
 k-point ** :   0.5850 0.2925 0.0000  plane waves:    5350
 k-point ** :   0.5714 0.2857 0.0000  plane waves:    5362
 k-point ** :   0.5578 0.2789 0.0000  plane waves:    5366
 k-point ** :   0.5442 0.2721 0.0000  plane waves:    5368
 k-point ** :   0.5306 0.2653 0.0000  plane waves:    5368
 k-point ** :   0.5170 0.2585 0.0000  plane waves:    5366
 k-point ** :   0.5034 0.2517 0.0000  plane waves:    5360
 k-point ** :   0.4898 0.2449 0.0000  plane waves:    5364
 k-point ** :   0.4762 0.2381 0.0000  plane waves:    5364
 k-point ** :   0.4626 0.2313 0.0000  plane waves:    5358
 k-point ** :   0.4490 0.2245 0.0000  plane waves:    5364
 k-point ** :   0.4354 0.2177 0.0000  plane waves:    5360
 k-point ** :   0.4218 0.2109 0.0000  plane waves:    5360
 k-point ** :   0.4082 0.2041 0.0000  plane waves:    5378
 k-point ** :   0.3946 0.1973 0.0000  plane waves:    5384
 k-point ** :   0.3810 0.1905 0.0000  plane waves:    5390
 k-point ** :   0.3673 0.1837 0.0000  plane waves:    5396
 k-point ** :   0.3537 0.1769 0.0000  plane waves:    5394
 k-point ** :   0.3401 0.1701 0.0000  plane waves:    5394
 k-point ** :   0.3265 0.1633 0.0000  plane waves:    5407
 k-point ** :   0.3129 0.1565 0.0000  plane waves:    5403
 k-point ** :   0.2993 0.1497 0.0000  plane waves:    5403
 k-point ** :   0.2857 0.1429 0.0000  plane waves:    5405
 k-point ** :   0.2721 0.1361 0.0000  plane waves:    5401
 k-point ** :   0.2585 0.1293 0.0000  plane waves:    5405
 k-point ** :   0.2449 0.1224 0.0000  plane waves:    5409
 k-point ** :   0.2313 0.1156 0.0000  plane waves:    5405
 k-point ** :   0.2177 0.1088 0.0000  plane waves:    5413
 k-point ** :   0.2041 0.1020 0.0000  plane waves:    5405
 k-point ** :   0.1905 0.0952 0.0000  plane waves:    5403
 k-point ** :   0.1769 0.0884 0.0000  plane waves:    5411
 k-point ** :   0.1633 0.0816 0.0000  plane waves:    5409
 k-point ** :   0.1497 0.0748 0.0000  plane waves:    5417
 k-point ** :   0.1361 0.0680 0.0000  plane waves:    5429
 k-point ** :   0.1224 0.0612 0.0000  plane waves:    5413
 k-point ** :   0.1088 0.0544 0.0000  plane waves:    5403
 k-point ** :   0.0952 0.0476 0.0000  plane waves:    5411
 k-point ** :   0.0816 0.0408 0.0000  plane waves:    5405
 k-point ** :   0.0680 0.0340 0.0000  plane waves:    5401
 k-point ** :   0.0544 0.0272 0.0000  plane waves:    5401
 k-point ** :   0.0408 0.0204 0.0000  plane waves:    5403
 k-point ** :   0.0272 0.0136 0.0000  plane waves:    5421
 k-point ** :   0.0136 0.0068 0.0000  plane waves:    5409
 k-point ** :  -0.0000 0.0000 0.0000  plane waves:    5409

 maximum and minimum number of plane-waves per node :       916      864

 maximum number of plane-waves:      5429
 maximum index in each direction: 
   IXMAX=    5   IYMAX=    5   IZMAX=   46
   IXMIN=   -6   IYMIN=   -6   IZMIN=  -46


 parallel 3D FFT for wavefunctions:
    minimum data exchange during FFTs selected (reduces bandwidth)
 parallel 3D FFT for charge:
    minimum data exchange during FFTs selected (reduces bandwidth)


 total amount of memory used by VASP MPI-rank0    50443. kBytes
=======================================================================

   base      :      30000. kBytes
   nonl-proj :       8871. kBytes
   fftplans  :       4591. kBytes
   grid      :       2514. kBytes
   one-center:          3. kBytes
   wavefun   :       4464. kBytes
 
     INWAV:  cpu time    0.0000: real time    0.0000
 initial charge density was supplied:
 number of electron      16.0000000 magnetization 
 keeping initial charge density in first step


--------------------------------------------------------------------------------------------------------


 Maximum index for augmentation-charges         3270 (set IRDMAX)


--------------------------------------------------------------------------------------------------------


 First call to EWALD:  gamma=   0.376
 Maximum number of real-space cells 5x 5x 1
 Maximum number of reciprocal cells 2x 2x10

    FEWALD:  cpu time    0.0013: real time    0.0013


--------------------------------------- Iteration      1(   1)  ---------------------------------------


    POTLOK:  cpu time    0.0223: real time    0.0392
    SETDIJ:  cpu time    0.0090: real time    0.0090
     EDDAV:  cpu time    0.7118: real time    0.7135
       DOS:  cpu time    0.0009: real time    0.0009
    --------------------------------------------
      LOOP:  cpu time    0.7440: real time    0.7626

 eigenvalue-minimisations  :  3600
 total energy-change (2. order) : 0.9162694E+02  (-0.8262359E+03)
 number of electron      16.0000000 magnetization 
 augmentation part       16.0000000 magnetization 

 Free energy of the ion-electron system (eV)
  ---------------------------------------------------
  alpha Z        PSCENC =        12.44266281
  Ewald energy   TEWEN  =      2473.15002607
  -Hartree energ DENC   =     -2997.51887033
  -exchange      EXHF   =         0.00000000
  -V(xc)+E(xc)   XCENC  =        57.63671239
  PAW double counting   =       279.84156608     -285.00257624
  entropy T*S    EENTRO =        -0.00009613
  eigenvalues    EBANDS =       -37.54017745
  atomic energy  EATOM  =       588.61769381
  Solvation  Ediel_sol  =         0.00000000
  ---------------------------------------------------
  free energy    TOTEN  =        91.62694100 eV

  energy without entropy =       91.62703713  energy(sigma->0) =       91.62698907


--------------------------------------------------------------------------------------------------------




--------------------------------------- Iteration      1(   2)  ---------------------------------------


     EDDAV:  cpu time    1.1315: real time    1.1365
       DOS:  cpu time    0.0010: real time    0.0010
    --------------------------------------------
      LOOP:  cpu time    1.1325: real time    1.1375

 eigenvalue-minimisations  :  6096
 total energy-change (2. order) :-0.1199796E+03  (-0.1093685E+03)
 number of electron      16.0000000 magnetization 
 augmentation part       16.0000000 magnetization 

 Free energy of the ion-electron system (eV)
  ---------------------------------------------------
  alpha Z        PSCENC =        12.44266281
  Ewald energy   TEWEN  =      2473.15002607
  -Hartree energ DENC   =     -2997.51887033
  -exchange      EXHF   =         0.00000000
  -V(xc)+E(xc)   XCENC  =        57.63671239
  PAW double counting   =       279.84156608     -285.00257624
  entropy T*S    EENTRO =        -0.00001427
  eigenvalues    EBANDS =      -157.51987545
  atomic energy  EATOM  =       588.61769381
  Solvation  Ediel_sol  =         0.00000000
  ---------------------------------------------------
  free energy    TOTEN  =       -28.35267514 eV

  energy without entropy =      -28.35266087  energy(sigma->0) =      -28.35266800


--------------------------------------------------------------------------------------------------------




--------------------------------------- Iteration      1(   3)  ---------------------------------------


     EDDAV:  cpu time    0.8806: real time    0.8828
       DOS:  cpu time    0.0005: real time    0.0005
    --------------------------------------------
      LOOP:  cpu time    0.8811: real time    0.8832

 eigenvalue-minimisations  :  4620
 total energy-change (2. order) :-0.6286074E+01  (-0.6156843E+01)
 number of electron      16.0000000 magnetization 
 augmentation part       16.0000000 magnetization 

 Free energy of the ion-electron system (eV)
  ---------------------------------------------------
  alpha Z        PSCENC =        12.44266281
  Ewald energy   TEWEN  =      2473.15002607
  -Hartree energ DENC   =     -2997.51887033
  -exchange      EXHF   =         0.00000000
  -V(xc)+E(xc)   XCENC  =        57.63671239
  PAW double counting   =       279.84156608     -285.00257624
  entropy T*S    EENTRO =        -0.00000000
  eigenvalues    EBANDS =      -163.80596385
  atomic energy  EATOM  =       588.61769381
  Solvation  Ediel_sol  =         0.00000000
  ---------------------------------------------------
  free energy    TOTEN  =       -34.63874926 eV

  energy without entropy =      -34.63874926  energy(sigma->0) =      -34.63874926


--------------------------------------------------------------------------------------------------------




--------------------------------------- Iteration      1(   4)  ---------------------------------------


     EDDAV:  cpu time    1.0213: real time    1.0238
       DOS:  cpu time    0.0004: real time    0.0004
    --------------------------------------------
      LOOP:  cpu time    1.0217: real time    1.0242

 eigenvalue-minimisations  :  5820
 total energy-change (2. order) :-0.7317986E-01  (-0.7317986E-01)
 number of electron      16.0000000 magnetization 
 augmentation part       16.0000000 magnetization 

 Free energy of the ion-electron system (eV)
  ---------------------------------------------------
  alpha Z        PSCENC =        12.44266281
  Ewald energy   TEWEN  =      2473.15002607
  -Hartree energ DENC   =     -2997.51887033
  -exchange      EXHF   =         0.00000000
  -V(xc)+E(xc)   XCENC  =        57.63671239
  PAW double counting   =       279.84156608     -285.00257624
  entropy T*S    EENTRO =        -0.00000000
  eigenvalues    EBANDS =      -163.87914371
  atomic energy  EATOM  =       588.61769381
  Solvation  Ediel_sol  =         0.00000000
  ---------------------------------------------------
  free energy    TOTEN  =       -34.71192913 eV

  energy without entropy =      -34.71192913  energy(sigma->0) =      -34.71192913


--------------------------------------------------------------------------------------------------------




--------------------------------------- Iteration      1(   5)  ---------------------------------------


     EDDAV:  cpu time    1.0794: real time    1.0821
       DOS:  cpu time    0.0004: real time    0.0004
    --------------------------------------------
      LOOP:  cpu time    1.0798: real time    1.0825

 eigenvalue-minimisations  :  5676
 total energy-change (2. order) :-0.1170476E-02  (-0.1170476E-02)
 number of electron      16.0000000 magnetization 
 augmentation part       16.0000000 magnetization 

 Free energy of the ion-electron system (eV)
  ---------------------------------------------------
  alpha Z        PSCENC =        12.44266281
  Ewald energy   TEWEN  =      2473.15002607
  -Hartree energ DENC   =     -2997.51887033
  -exchange      EXHF   =         0.00000000
  -V(xc)+E(xc)   XCENC  =        57.63671239
  PAW double counting   =       279.84156608     -285.00257624
  entropy T*S    EENTRO =        -0.00000000
  eigenvalues    EBANDS =      -163.88031419
  atomic energy  EATOM  =       588.61769381
  Solvation  Ediel_sol  =         0.00000000
  ---------------------------------------------------
  free energy    TOTEN  =       -34.71309960 eV

  energy without entropy =      -34.71309960  energy(sigma->0) =      -34.71309960


--------------------------------------------------------------------------------------------------------




--------------------------------------- Iteration      1(   6)  ---------------------------------------


     EDDAV:  cpu time    1.1443: real time    1.1471
       DOS:  cpu time    0.0004: real time    0.0004
    --------------------------------------------
      LOOP:  cpu time    1.1447: real time    1.1475

 eigenvalue-minimisations  :  6192
 total energy-change (2. order) :-0.6275058E-04  (-0.6275058E-04)
 number of electron      16.0000000 magnetization 
 augmentation part       16.0000000 magnetization 

 Free energy of the ion-electron system (eV)
  ---------------------------------------------------
  alpha Z        PSCENC =        12.44266281
  Ewald energy   TEWEN  =      2473.15002607
  -Hartree energ DENC   =     -2997.51887033
  -exchange      EXHF   =         0.00000000
  -V(xc)+E(xc)   XCENC  =        57.63671239
  PAW double counting   =       279.84156608     -285.00257624
  entropy T*S    EENTRO =        -0.00000000
  eigenvalues    EBANDS =      -163.88037694
  atomic energy  EATOM  =       588.61769381
  Solvation  Ediel_sol  =         0.00000000
  ---------------------------------------------------
  free energy    TOTEN  =       -34.71316235 eV

  energy without entropy =      -34.71316235  energy(sigma->0) =      -34.71316235


--------------------------------------------------------------------------------------------------------




--------------------------------------- Iteration      1(   7)  ---------------------------------------


     EDDAV:  cpu time    1.1403: real time    1.1431
       DOS:  cpu time    0.0005: real time    0.0005
    --------------------------------------------
      LOOP:  cpu time    1.1408: real time    1.1436

 eigenvalue-minimisations  :  5988
 total energy-change (2. order) :-0.3536861E-05  (-0.3536941E-05)
 number of electron      16.0000000 magnetization 
 augmentation part       16.0000000 magnetization 

 Free energy of the ion-electron system (eV)
  ---------------------------------------------------
  alpha Z        PSCENC =        12.44266281
  Ewald energy   TEWEN  =      2473.15002607
  -Hartree energ DENC   =     -2997.51887033
  -exchange      EXHF   =         0.00000000
  -V(xc)+E(xc)   XCENC  =        57.63671239
  PAW double counting   =       279.84156608     -285.00257624
  entropy T*S    EENTRO =        -0.00000000
  eigenvalues    EBANDS =      -163.88038048
  atomic energy  EATOM  =       588.61769381
  Solvation  Ediel_sol  =         0.00000000
  ---------------------------------------------------
  free energy    TOTEN  =       -34.71316589 eV

  energy without entropy =      -34.71316589  energy(sigma->0) =      -34.71316589


--------------------------------------------------------------------------------------------------------




--------------------------------------- Iteration      1(   8)  ---------------------------------------


     EDDAV:  cpu time    1.1141: real time    1.1169
       DOS:  cpu time    0.0004: real time    0.0004
    --------------------------------------------
      LOOP:  cpu time    1.1145: real time    1.1172

 eigenvalue-minimisations  :  6348
 total energy-change (2. order) :-0.2817310E-06  (-0.2816904E-06)
 number of electron      16.0000000 magnetization 
 augmentation part       16.0000000 magnetization 

 Free energy of the ion-electron system (eV)
  ---------------------------------------------------
  alpha Z        PSCENC =        12.44266281
  Ewald energy   TEWEN  =      2473.15002607
  -Hartree energ DENC   =     -2997.51887033
  -exchange      EXHF   =         0.00000000
  -V(xc)+E(xc)   XCENC  =        57.63671239
  PAW double counting   =       279.84156608     -285.00257624
  entropy T*S    EENTRO =        -0.00000000
  eigenvalues    EBANDS =      -163.88038076
  atomic energy  EATOM  =       588.61769381
  Solvation  Ediel_sol  =         0.00000000
  ---------------------------------------------------
  free energy    TOTEN  =       -34.71316617 eV

  energy without entropy =      -34.71316617  energy(sigma->0) =      -34.71316617


--------------------------------------------------------------------------------------------------------




--------------------------------------- Iteration      1(   9)  ---------------------------------------


     EDDAV:  cpu time    1.0983: real time    1.1010
       DOS:  cpu time    0.0004: real time    0.0004
    --------------------------------------------
      LOOP:  cpu time    1.0987: real time    1.1014

 eigenvalue-minimisations  :  6228
 total energy-change (2. order) :-0.8276402E-10  (-0.3500681E-10)
 number of electron      16.0000000 magnetization 
 augmentation part       16.0000000 magnetization 

 Free energy of the ion-electron system (eV)
  ---------------------------------------------------
  alpha Z        PSCENC =        12.44266281
  Ewald energy   TEWEN  =      2473.15002607
  -Hartree energ DENC   =     -2997.51887033
  -exchange      EXHF   =         0.00000000
  -V(xc)+E(xc)   XCENC  =        57.63671239
  PAW double counting   =       279.84156608     -285.00257624
  entropy T*S    EENTRO =        -0.00000000
  eigenvalues    EBANDS =      -163.88038076
  atomic energy  EATOM  =       588.61769381
  Solvation  Ediel_sol  =         0.00000000
  ---------------------------------------------------
  free energy    TOTEN  =       -34.71316617 eV

  energy without entropy =      -34.71316617  energy(sigma->0) =      -34.71316617


--------------------------------------------------------------------------------------------------------




 average (electrostatic) potential at core
  the test charge radii are     0.6991
  (the norm of the test charge is              1.0000)
       1 -56.6348       2 -56.6348       3 -56.6348       4 -56.6348
 
 
 
 E-fermi :  -1.2122     XC(G=0):  -4.0234     alpha+bet : -3.8326


 k-point     1 :       0.0000    0.0000    0.0000
  band No.  band energies     occupation 
      1     -20.7948      2.00000
      2     -20.7831      2.00000
      3      -8.9733      2.00000
      4      -8.7915      2.00000
      5      -4.2421      2.00000
      6      -4.2420      2.00000
      7      -4.2416      2.00000
      8      -4.2415      2.00000
      9       1.9311      0.00000
     10       2.4901      0.00000
     11       3.1221      0.00000
     12       4.0112      0.00000

 k-point     2 :       0.0102    0.0102    0.0000
  band No.  band energies     occupation 
      1     -20.7923      2.00000
      2     -20.7806      2.00000
      3      -8.9703      2.00000
      4      -8.7886      2.00000
      5      -4.2524      2.00000
      6      -4.2519      2.00000
      7      -4.2475      2.00000
      8      -4.2470      2.00000
      9       1.9344      0.00000
     10       2.4935      0.00000
     11       3.1254      0.00000
     12       4.0145      0.00000

 k-point     3 :       0.0204    0.0204    0.0000
  band No.  band energies     occupation 
      1     -20.7849      2.00000
      2     -20.7732      2.00000
      3      -8.9614      2.00000
      4      -8.7797      2.00000
      5      -4.2833      2.00000
      6      -4.2827      2.00000
      7      -4.2639      2.00000
      8      -4.2634      2.00000
      9       1.9443      0.00000
     10       2.5035      0.00000
     11       3.1355      0.00000
     12       4.0245      0.00000

 k-point     4 :       0.0306    0.0306    0.0000
  band No.  band energies     occupation 
      1     -20.7726      2.00000
      2     -20.7608      2.00000
      3      -8.9466      2.00000
      4      -8.7650      2.00000
      5      -4.3344      2.00000
      6      -4.3338      2.00000
      7      -4.2910      2.00000
      8      -4.2905      2.00000
      9       1.9609      0.00000
     10       2.5204      0.00000
     11       3.1524      0.00000
     12       4.0411      0.00000

 k-point     5 :       0.0408    0.0408    0.0000
  band No.  band energies     occupation 
      1     -20.7552      2.00000
      2     -20.7435      2.00000
      3      -8.9258      2.00000
      4      -8.7444      2.00000
      5      -4.4052      2.00000
      6      -4.4046      2.00000
      7      -4.3284      2.00000
      8      -4.3279      2.00000
      9       1.9840      0.00000
     10       2.5439      0.00000
     11       3.1759      0.00000
     12       4.0644      0.00000

 k-point     6 :       0.0510    0.0510    0.0000
  band No.  band energies     occupation 
      1     -20.7330      2.00000
      2     -20.7213      2.00000
      3      -8.8991      2.00000
      4      -8.7179      2.00000
      5      -4.4951      2.00000
      6      -4.4944      2.00000
      7      -4.3757      2.00000
      8      -4.3752      2.00000
      9       2.0138      0.00000
     10       2.5741      0.00000
     11       3.2062      0.00000
     12       4.0943      0.00000

 k-point     7 :       0.0612    0.0612    0.0000
  band No.  band energies     occupation 
      1     -20.7058      2.00000
      2     -20.6941      2.00000
      3      -8.8664      2.00000
      4      -8.6855      2.00000
      5      -4.6033      2.00000
      6      -4.6025      2.00000
      7      -4.4323      2.00000
      8      -4.4317      2.00000
      9       2.0502      0.00000
     10       2.6111      0.00000
     11       3.2433      0.00000
     12       4.1308      0.00000

 k-point     8 :       0.0714    0.0714    0.0000
  band No.  band energies     occupation 
      1     -20.6737      2.00000
      2     -20.6620      2.00000
      3      -8.8279      2.00000
      4      -8.6473      2.00000
      5      -4.7287      2.00000
      6      -4.7279      2.00000
      7      -4.4974      2.00000
      8      -4.4968      2.00000
      9       2.0932      0.00000
     10       2.6548      0.00000
     11       3.2870      0.00000
     12       4.1740      0.00000

 k-point     9 :       0.0816    0.0816    0.0000
  band No.  band energies     occupation 
      1     -20.6366      2.00000
      2     -20.6250      2.00000
      3      -8.7834      2.00000
      4      -8.6032      2.00000
      5      -4.8705      2.00000
      6      -4.8696      2.00000
      7      -4.5705      2.00000
      8      -4.5698      2.00000
      9       2.1429      0.00000
     10       2.7052      0.00000
     11       3.3375      0.00000
     12       4.2238      0.00000

 k-point    10 :       0.0918    0.0918    0.0000
  band No.  band energies     occupation 
      1     -20.5946      2.00000
      2     -20.5831      2.00000
      3      -8.7331      2.00000
      4      -8.5533      2.00000
      5      -5.0276      2.00000
      6      -5.0266      2.00000
      7      -4.6506      2.00000
      8      -4.6499      2.00000
      9       2.1992      0.00000
     10       2.7624      0.00000
     11       3.3947      0.00000
     12       4.2803      0.00000

 k-point    11 :       0.1020    0.1020    0.0000
  band No.  band energies     occupation 
      1     -20.5477      2.00000
      2     -20.5362      2.00000
      3      -8.6770      2.00000
      4      -8.4977      2.00000
      5      -5.1988      2.00000
      6      -5.1977      2.00000
      7      -4.7371      2.00000
      8      -4.7364      2.00000
      9       2.2621      0.00000
     10       2.8262      0.00000
     11       3.4586      0.00000
     12       4.3433      0.00000

 k-point    12 :       0.1122    0.1122    0.0000
  band No.  band energies     occupation 
      1     -20.4959      2.00000
      2     -20.4845      2.00000
      3      -8.6150      2.00000
      4      -8.4362      2.00000
      5      -5.3830      2.00000
      6      -5.3818      2.00000
      7      -4.8290      2.00000
      8      -4.8283      2.00000
      9       2.3316      0.00000
     10       2.8968      0.00000
     11       3.5292      0.00000
     12       4.4129      0.00000

 k-point    13 :       0.1224    0.1224    0.0000
  band No.  band energies     occupation 
      1     -20.4392      2.00000
      2     -20.4278      2.00000
      3      -8.5472      2.00000
      4      -8.3690      2.00000
      5      -5.5791      2.00000
      6      -5.5778      2.00000
      7      -4.9257      2.00000
      8      -4.9250      2.00000
      9       2.4077      0.00000
     10       2.9740      0.00000
     11       3.6065      0.00000
     12       4.4892      0.00000

 k-point    14 :       0.1327    0.1327    0.0000
  band No.  band energies     occupation 
      1     -20.3776      2.00000
      2     -20.3663      2.00000
      3      -8.4736      2.00000
      4      -8.2960      2.00000
      5      -5.7860      2.00000
      6      -5.7846      2.00000
      7      -5.0265      2.00000
      8      -5.0257      2.00000
      9       2.4905      0.00000
     10       3.0579      0.00000
     11       3.6905      0.00000
     12       4.5720      0.00000

 k-point    15 :       0.1429    0.1429    0.0000
  band No.  band energies     occupation 
      1     -20.3112      2.00000
      2     -20.2999      2.00000
      3      -8.3943      2.00000
      4      -8.2174      2.00000
      5      -6.0028      2.00000
      6      -6.0012      2.00000
      7      -5.1305      2.00000
      8      -5.1297      2.00000
      9       2.5798      0.00000
     10       3.1486      0.00000
     11       3.7812      0.00000
     12       4.6613      0.00000

 k-point    16 :       0.1531    0.1531    0.0000
  band No.  band energies     occupation 
      1     -20.2398      2.00000
      2     -20.2286      2.00000
      3      -8.3093      2.00000
      4      -8.1331      2.00000
      5      -6.2283      2.00000
      6      -6.2266      2.00000
      7      -5.2370      2.00000
      8      -5.2362      2.00000
      9       2.6758      0.00000
     10       3.2459      0.00000
     11       3.8786      0.00000
     12       4.7571      0.00000

 k-point    17 :       0.1633    0.1633    0.0000
  band No.  band energies     occupation 
      1     -20.1636      2.00000
      2     -20.1525      2.00000
      3      -8.2187      2.00000
      4      -8.0432      2.00000
      5      -6.4616      2.00000
      6      -6.4599      2.00000
      7      -5.3454      2.00000
      8      -5.3446      2.00000
      9       2.7783      0.00000
     10       3.3498      0.00000
     11       3.9825      0.00000
     12       4.8593      0.00000

 k-point    18 :       0.1735    0.1735    0.0000
  band No.  band energies     occupation 
      1     -20.0826      2.00000
      2     -20.0715      2.00000
      3      -8.1224      2.00000
      4      -7.9478      2.00000
      5      -6.7020      2.00000
      6      -6.7001      2.00000
      7      -5.4551      2.00000
      8      -5.4543      2.00000
      9       2.8875      0.00000
     10       3.4604      0.00000
     11       4.0931      0.00000
     12       4.9679      0.00000

 k-point    19 :       0.1837    0.1837    0.0000
  band No.  band energies     occupation 
      1     -19.9967      2.00000
      2     -19.9857      2.00000
      3      -8.0205      2.00000
      4      -7.8468      2.00000
      5      -6.9484      2.00000
      6      -6.9464      2.00000
      7      -5.5655      2.00000
      8      -5.5647      2.00000
      9       3.0032      0.00000
     10       3.5776      0.00000
     11       4.2102      0.00000
     12       5.0828      0.00000

 k-point    20 :       0.1939    0.1939    0.0000
  band No.  band energies     occupation 
      1     -19.9061      2.00000
      2     -19.8951      2.00000
      3      -7.9131      2.00000
      4      -7.7405      2.00000
      5      -7.2001      2.00000
      6      -7.1980      2.00000
      7      -5.6761      2.00000
      8      -5.6752      2.00000
      9       3.1254      0.00000
     10       3.7014      0.00000
     11       4.3338      0.00000
     12       5.2036      0.00000

 k-point    21 :       0.2041    0.2041    0.0000
  band No.  band energies     occupation 
      1     -19.8106      2.00000
      2     -19.7998      2.00000
      3      -7.8003      2.00000
      4      -7.6287      2.00000
      5      -7.4564      2.00000
      6      -7.4542      2.00000
      7      -5.7864      2.00000
      8      -5.7855      2.00000
      9       3.2542      0.00000
     10       3.8317      0.00000
     11       4.4638      0.00000
     12       5.3302      0.00000

 k-point    22 :       0.2143    0.2143    0.0000
  band No.  band energies     occupation 
      1     -19.7104      2.00000
      2     -19.6996      2.00000
      3      -7.7167      2.00000
      4      -7.7143      2.00000
      5      -7.6821      2.00000
      6      -7.5116      2.00000
      7      -5.8960      2.00000
      8      -5.8950      2.00000
      9       3.3896      0.00000
     10       3.9685      0.00000
     11       4.6001      0.00000
     12       5.4617      0.00000

 k-point    23 :       0.2245    0.2245    0.0000
  band No.  band energies     occupation 
      1     -19.6054      2.00000
      2     -19.5947      2.00000
      3      -7.9802      2.00000
      4      -7.9777      2.00000
      5      -7.5586      2.00000
      6      -7.3892      2.00000
      7      -6.0043      2.00000
      8      -6.0034      2.00000
      9       3.5314      0.00000
     10       4.1117      0.00000
     11       4.7422      0.00000
     12       5.5963      0.00000

 k-point    24 :       0.2347    0.2347    0.0000
  band No.  band energies     occupation 
      1     -19.4956      2.00000
      2     -19.4851      2.00000
      3      -8.2464      2.00000
      4      -8.2437      2.00000
      5      -7.4299      2.00000
      6      -7.2618      2.00000
      7      -6.1111      2.00000
      8      -6.1102      2.00000
      9       3.6797      0.00000
     10       4.2610      0.00000
     11       4.8896      0.00000
     12       5.7288      0.00000

 k-point    25 :       0.2449    0.2449    0.0000
  band No.  band energies     occupation 
      1     -19.3812      2.00000
      2     -19.3708      2.00000
      3      -8.5147      2.00000
      4      -8.5119      2.00000
      5      -7.2961      2.00000
      6      -7.1293      2.00000
      7      -6.2160      2.00000
      8      -6.2151      2.00000
      9       3.8344      0.00000
     10       4.4162      0.00000
     11       5.0407      0.00000
     12       5.8354      0.00000

 k-point    26 :       0.2551    0.2551    0.0000
  band No.  band energies     occupation 
      1     -19.2621      2.00000
      2     -19.2518      2.00000
      3      -8.7847      2.00000
      4      -8.7817      2.00000
      5      -7.1573      2.00000
      6      -6.9919      2.00000
      7      -6.3187      2.00000
      8      -6.3177      2.00000
      9       3.9956      0.00000
     10       4.5764      0.00000
     11       5.1898      0.00000
     12       5.8105      0.00000

 k-point    27 :       0.2653    0.2653    0.0000
  band No.  band energies     occupation 
      1     -19.1383      2.00000
      2     -19.1281      2.00000
      3      -9.0558      2.00000
      4      -9.0527      2.00000
      5      -7.0136      2.00000
      6      -6.8498      2.00000
      7      -6.4189      2.00000
      8      -6.4179      2.00000
      9       4.1630      0.00000
     10       4.7396      0.00000
     11       5.3039      0.00000
     12       5.6510      0.00000

 k-point    28 :       0.2755    0.2755    0.0000
  band No.  band energies     occupation 
      1     -19.0100      2.00000
      2     -18.9999      2.00000
      3      -9.3277      2.00000
      4      -9.3245      2.00000
      5      -6.8653      2.00000
      6      -6.7030      2.00000
      7      -6.5163      2.00000
      8      -6.5153      2.00000
      9       4.3366      0.00000
     10       4.8968      0.00000
     11       5.2217      0.00000
     12       5.4480      0.00000

 k-point    29 :       0.2857    0.2857    0.0000
  band No.  band energies     occupation 
      1     -18.8770      2.00000
      2     -18.8670      2.00000
      3      -9.5999      2.00000
      4      -9.5965      2.00000
      5      -6.7124      2.00000
      6      -6.6107      2.00000
      7      -6.6097      2.00000
      8      -6.5517      2.00000
      9       4.5154      0.00000
     10       4.9742      0.00000
     11       4.9814      0.00000
     12       5.2693      0.00000

 k-point    30 :       0.2959    0.2959    0.0000
  band No.  band energies     occupation 
      1     -18.7395      2.00000
      2     -18.7296      2.00000
      3      -9.8720      2.00000
      4      -9.8685      2.00000
      5      -6.7019      2.00000
      6      -6.7009      2.00000
      7      -6.5551      2.00000
      8      -6.3962      2.00000
      9       4.6681      0.00000
     10       4.7427      0.00000
     11       4.7930      0.00000
     12       5.3546      0.00000

 k-point    31 :       0.3061    0.3061    0.0000
  band No.  band energies     occupation 
      1     -18.5975      2.00000
      2     -18.5878      2.00000
      3     -10.1437      2.00000
      4     -10.1401      2.00000
      5      -6.7897      2.00000
      6      -6.7886      2.00000
      7      -6.3937      2.00000
      8      -6.2367      2.00000
      9       4.4218      0.00000
     10       4.5268      0.00000
     11       4.9005      0.00000
     12       5.5307      0.00000

 k-point    32 :       0.3163    0.3163    0.0000
  band No.  band energies     occupation 
      1     -18.4510      2.00000
      2     -18.4415      2.00000
      3     -10.4147      2.00000
      4     -10.4109      2.00000
      5      -6.8738      2.00000
      6      -6.8728      2.00000
      7      -6.2285      2.00000
      8      -6.0735      2.00000
      9       4.1391      0.00000
     10       4.2484      0.00000
     11       5.0976      0.00000
     12       5.7249      0.00000

 k-point    33 :       0.3265    0.3265    0.0000
  band No.  band energies     occupation 
      1     -18.3002      2.00000
      2     -18.2907      2.00000
      3     -10.6846      2.00000
      4     -10.6806      2.00000
      5      -6.9542      2.00000
      6      -6.9531      2.00000
      7      -6.0597      2.00000
      8      -5.9068      2.00000
      9       3.8547      0.00000
     10       3.9675      0.00000
     11       5.3013      0.00000
     12       5.9276      0.00000

 k-point    34 :       0.3367    0.3367    0.0000
  band No.  band energies     occupation 
      1     -18.1451      2.00000
      2     -18.1357      2.00000
      3     -10.9532      2.00000
      4     -10.9491      2.00000
      5      -7.0307      2.00000
      6      -7.0296      2.00000
      7      -5.8878      2.00000
      8      -5.7371      2.00000
      9       3.5708      0.00000
     10       3.6870      0.00000
     11       5.5102      0.00000
     12       6.1336      0.00000

 k-point    35 :       0.3469    0.3469    0.0000
  band No.  band energies     occupation 
      1     -17.9857      2.00000
      2     -17.9765      2.00000
      3     -11.2201      2.00000
      4     -11.2158      2.00000
      5      -7.1031      2.00000
      6      -7.1021      2.00000
      7      -5.7131      2.00000
      8      -5.5647      2.00000
      9       3.2886      0.00000
     10       3.4083      0.00000
     11       5.7230      0.00000
     12       6.3280      0.00000

 k-point    36 :       0.3571    0.3571    0.0000
  band No.  band energies     occupation 
      1     -17.8221      2.00000
      2     -17.8130      2.00000
      3     -11.4851      2.00000
      4     -11.4806      2.00000
      5      -7.1714      2.00000
      6      -7.1703      2.00000
      7      -5.5362      2.00000
      8      -5.3903      2.00000
      9       3.0093      0.00000
     10       3.1325      0.00000
     11       5.9362      0.00000
     12       6.4375      0.00000

 k-point    37 :       0.3673    0.3673    0.0000
  band No.  band energies     occupation 
      1     -17.6545      2.00000
      2     -17.6456      2.00000
      3     -11.7478      2.00000
      4     -11.7431      2.00000
      5      -7.2354      2.00000
      6      -7.2343      2.00000
      7      -5.3577      2.00000
      8      -5.2144      2.00000
      9       2.7340      0.00000
     10       2.8609      0.00000
     11       6.1383      0.00000
     12       6.4366      0.00000

 k-point    38 :       0.3776    0.3776    0.0000
  band No.  band energies     occupation 
      1     -17.4830      2.00000
      2     -17.4742      2.00000
      3     -12.0080      2.00000
      4     -12.0032      2.00000
      5      -7.2949      2.00000
      6      -7.2938      2.00000
      7      -5.1783      2.00000
      8      -5.0379      2.00000
      9       2.4638      0.00000
     10       2.5946      0.00000
     11       6.2858      0.00000
     12       6.4374      0.00000

 k-point    39 :       0.3878    0.3878    0.0000
  band No.  band energies     occupation 
      1     -17.3077      2.00000
      2     -17.2990      2.00000
      3     -12.2653      2.00000
      4     -12.2603      2.00000
      5      -7.3501      2.00000
      6      -7.3490      2.00000
      7      -4.9991      2.00000
      8      -4.8617      2.00000
      9       2.2000      0.00000
     10       2.3347      0.00000
     11       6.3322      0.00000
     12       6.3909      0.00000

 k-point    40 :       0.3980    0.3980    0.0000
  band No.  band energies     occupation 
      1     -17.1289      2.00000
      2     -17.1204      2.00000
      3     -12.5194      2.00000
      4     -12.5143      2.00000
      5      -7.4007      2.00000
      6      -7.3996      2.00000
      7      -4.8212      2.00000
      8      -4.6869      2.00000
      9       1.9439      0.00000
     10       2.0827      0.00000
     11       6.3311      0.00000
     12       6.3684      0.00000

 k-point    41 :       0.4082    0.4082    0.0000
  band No.  band energies     occupation 
      1     -16.9469      2.00000
      2     -16.9385      2.00000
      3     -12.7699      2.00000
      4     -12.7647      2.00000
      5      -7.4466      2.00000
      6      -7.4455      2.00000
      7      -4.6460      2.00000
      8      -4.5150      2.00000
      9       1.6974      0.00000
     10       1.8404      0.00000
     11       6.3183      0.00000
     12       6.3466      0.00000

 k-point    42 :       0.4184    0.4184    0.0000
  band No.  band energies     occupation 
      1     -16.7621      2.00000
      2     -16.7539      2.00000
      3     -13.0162      2.00000
      4     -13.0108      2.00000
      5      -7.4879      2.00000
      6      -7.4868      2.00000
      7      -4.4753      2.00000
      8      -4.3478      2.00000
      9       1.4623      0.00000
     10       1.6096      0.00000
     11       6.3029      0.00000
     12       6.3268      0.00000

 k-point    43 :       0.4286    0.4286    0.0000
  band No.  band energies     occupation 
      1     -16.5752      2.00000
      2     -16.5671      2.00000
      3     -13.2577      2.00000
      4     -13.2522      2.00000
      5      -7.5245      2.00000
      6      -7.5233      2.00000
      7      -4.3113      2.00000
      8      -4.1875      2.00000
      9       1.2411      0.00000
     10       1.3927      0.00000
     11       6.2875      0.00000
     12       6.3090      0.00000

 k-point    44 :       0.4388    0.4388    0.0000
  band No.  band energies     occupation 
      1     -16.3870      2.00000
      2     -16.3791      2.00000
      3     -13.4933      2.00000
      4     -13.4876      2.00000
      5      -7.5562      2.00000
      6      -7.5551      2.00000
      7      -4.1569      2.00000
      8      -4.0367      2.00000
      9       1.0367      0.00000
     10       1.1927      0.00000
     11       6.2733      0.00000
     12       6.2934      0.00000

 k-point    45 :       0.4490    0.4490    0.0000
  band No.  band energies     occupation 
      1     -16.1992      2.00000
      2     -16.1914      2.00000
      3     -13.7213      2.00000
      4     -13.7155      2.00000
      5      -7.5832      2.00000
      6      -7.5821      2.00000
      7      -4.0152      2.00000
      8      -3.8987      2.00000
      9       0.8525      0.00000
     10       1.0128      0.00000
     11       6.2608      0.00000
     12       6.2800      0.00000

 k-point    46 :       0.4592    0.4592    0.0000
  band No.  band energies     occupation 
      1     -16.0146      2.00000
      2     -16.0069      2.00000
      3     -13.9389      2.00000
      4     -13.9330      2.00000
      5      -7.6053      2.00000
      6      -7.6041      2.00000
      7      -3.8901      2.00000
      8      -3.7773      2.00000
      9       0.6926      0.00000
     10       0.8569      0.00000
     11       6.2504      0.00000
     12       6.2690      0.00000

 k-point    47 :       0.4694    0.4694    0.0000
  band No.  band energies     occupation 
      1     -15.8383      2.00000
      2     -15.8307      2.00000
      3     -14.1410      2.00000
      4     -14.1349      2.00000
      5      -7.6225      2.00000
      6      -7.6213      2.00000
      7      -3.7861      2.00000
      8      -3.6764      2.00000
      9       0.5613      0.00000
     10       0.7292      0.00000
     11       6.2421      0.00000
     12       6.2603      0.00000

 k-point    48 :       0.4796    0.4796    0.0000
  band No.  band energies     occupation 
      1     -15.6806      2.00000
      2     -15.6731      2.00000
      3     -14.3170      2.00000
      4     -14.3108      2.00000
      5      -7.6348      2.00000
      6      -7.6337      2.00000
      7      -3.7076      2.00000
      8      -3.6005      2.00000
      9       0.4633      0.00000
     10       0.6341      0.00000
     11       6.2362      0.00000
     12       6.2541      0.00000

 k-point    49 :       0.4898    0.4898    0.0000
  band No.  band energies     occupation 
      1     -15.5625      2.00000
      2     -15.5551      2.00000
      3     -14.4461      2.00000
      4     -14.4399      2.00000
      5      -7.6422      2.00000
      6      -7.6410      2.00000
      7      -3.6586      2.00000
      8      -3.5531      2.00000
      9       0.4025      0.00000
     10       0.5751      0.00000
     11       6.2325      0.00000
     12       6.2504      0.00000

 k-point    50 :       0.5000    0.5000    0.0000
  band No.  band energies     occupation 
      1     -15.5165      2.00000
      2     -15.5091      2.00000
      3     -14.4958      2.00000
      4     -14.4896      2.00000
      5      -7.6446      2.00000
      6      -7.6435      2.00000
      7      -3.6419      2.00000
      8      -3.5370      2.00000
      9       0.3819      0.00000
[...]
      4      -9.1057      2.00000
      5      -7.7521      2.00000
      6      -7.7500      2.00000
      7      -6.5686      2.00000
      8      -6.4091      2.00000
      9       4.6852      0.00000
     10       5.0213      0.00000
     11       5.0806      0.00000
     12       5.2787      0.00000

 k-point   126 :       0.3265    0.1633    0.0000
  band No.  band energies     occupation 
      1     -18.9163      2.00000
      2     -18.9063      2.00000
      3      -8.8609      2.00000
      4      -8.8581      2.00000
      5      -7.5368      2.00000
      6      -7.5348      2.00000
      7      -6.7511      2.00000
      8      -6.5897      2.00000
      9       4.4703      0.00000
     10       5.0617      0.00000
     11       5.3288      0.00000
     12       5.3858      0.00000

 k-point   127 :       0.3129    0.1565    0.0000
  band No.  band energies     occupation 
      1     -19.0677      2.00000
      2     -19.0576      2.00000
      3      -8.6109      2.00000
      4      -8.6082      2.00000
      5      -7.3227      2.00000
      6      -7.3208      2.00000
      7      -6.9273      2.00000
      8      -6.7640      2.00000
      9       4.2639      0.00000
     10       4.8531      0.00000
     11       5.4835      0.00000
     12       5.6512      0.00000

 k-point   128 :       0.2993    0.1497    0.0000
  band No.  band energies     occupation 
      1     -19.2131      2.00000
      2     -19.2028      2.00000
      3      -8.3591      2.00000
      4      -8.3565      2.00000
      5      -7.1106      2.00000
      6      -7.1086      2.00000
      7      -7.0968      2.00000
      8      -6.9320      2.00000
      9       4.0660      0.00000
     10       4.6532      0.00000
     11       5.2843      0.00000
     12       5.9701      0.00000

 k-point   129 :       0.2857    0.1429    0.0000
  band No.  band energies     occupation 
      1     -19.3523      2.00000
      2     -19.3419      2.00000
      3      -8.1059      2.00000
      4      -8.1035      2.00000
      5      -7.2598      2.00000
      6      -7.0933      2.00000
      7      -6.9005      2.00000
      8      -6.8988      2.00000
      9       3.8768      0.00000
     10       4.4618      0.00000
     11       5.0936      0.00000
     12       5.9516      0.00000

 k-point   130 :       0.2721    0.1361    0.0000
  band No.  band energies     occupation 
      1     -19.4853      2.00000
      2     -19.4748      2.00000
      3      -7.8518      2.00000
      4      -7.8495      2.00000
      5      -7.4160      2.00000
      6      -7.2479      2.00000
      7      -6.6935      2.00000
      8      -6.6919      2.00000
      9       3.6963      0.00000
     10       4.2792      0.00000
     11       4.9114      0.00000
     12       5.7728      0.00000

 k-point   131 :       0.2585    0.1293    0.0000
  band No.  band energies     occupation 
      1     -19.6120      2.00000
      2     -19.6014      2.00000
      3      -7.5974      2.00000
      4      -7.5952      2.00000
      5      -7.5651      2.00000
      6      -7.3957      2.00000
      7      -6.4902      2.00000
      8      -6.4887      2.00000
      9       3.5245      0.00000
     10       4.1053      0.00000
     11       4.7378      0.00000
     12       5.6023      0.00000

 k-point   132 :       0.2449    0.1224    0.0000
  band No.  band energies     occupation 
      1     -19.7325      2.00000
      2     -19.7217      2.00000
      3      -7.7072      2.00000
      4      -7.5364      2.00000
      5      -7.3434      2.00000
      6      -7.3414      2.00000
      7      -6.2913      2.00000
      8      -6.2898      2.00000
      9       3.3613      0.00000
     10       3.9402      0.00000
     11       4.5728      0.00000
     12       5.4403      0.00000

 k-point   133 :       0.2313    0.1156    0.0000
  band No.  band energies     occupation 
      1     -19.8466      2.00000
      2     -19.8357      2.00000
      3      -7.8421      2.00000
      4      -7.6701      2.00000
      5      -7.0906      2.00000
      6      -7.0886      2.00000
      7      -6.0973      2.00000
      8      -6.0959      2.00000
      9       3.2069      0.00000
     10       3.7839      0.00000
     11       4.4166      0.00000
     12       5.2868      0.00000

 k-point   134 :       0.2177    0.1088    0.0000
  band No.  band energies     occupation 
      1     -19.9543      2.00000
      2     -19.9433      2.00000
      3      -7.9698      2.00000
      4      -7.7966      2.00000
      5      -6.8397      2.00000
      6      -6.8378      2.00000
      7      -5.9090      2.00000
      8      -5.9078      2.00000
      9       3.0613      0.00000
     10       3.6364      0.00000
     11       4.2692      0.00000
     12       5.1418      0.00000

 k-point   135 :       0.2041    0.1020    0.0000
  band No.  band energies     occupation 
      1     -20.0556      2.00000
      2     -20.0446      2.00000
      3      -8.0901      2.00000
      4      -7.9158      2.00000
      5      -6.5916      2.00000
      6      -6.5899      2.00000
      7      -5.7272      2.00000
      8      -5.7260      2.00000
      9       2.9245      0.00000
     10       3.4978      0.00000
     11       4.1306      0.00000
     12       5.0054      0.00000

 k-point   136 :       0.1905    0.0952    0.0000
  band No.  band energies     occupation 
      1     -20.1506      2.00000
      2     -20.1394      2.00000
      3      -8.2029      2.00000
      4      -8.0276      2.00000
      5      -6.3475      2.00000
      6      -6.3459      2.00000
      7      -5.5526      2.00000
      8      -5.5515      2.00000
      9       2.7965      0.00000
     10       3.3681      0.00000
     11       4.0008      0.00000
     12       4.8777      0.00000

 k-point   137 :       0.1769    0.0884    0.0000
  band No.  band energies     occupation 
      1     -20.2390      2.00000
      2     -20.2278      2.00000
      3      -8.3083      2.00000
      4      -8.1321      2.00000
      5      -6.1086      2.00000
      6      -6.1070      2.00000
      7      -5.3859      2.00000
      8      -5.3849      2.00000
      9       2.6772      0.00000
     10       3.2472      0.00000
     11       3.8799      0.00000
     12       4.7586      0.00000

 k-point   138 :       0.1633    0.0816    0.0000
  band No.  band energies     occupation 
      1     -20.3210      2.00000
      2     -20.3097      2.00000
      3      -8.4060      2.00000
      4      -8.2290      2.00000
      5      -5.8761      2.00000
      6      -5.8747      2.00000
      7      -5.2279      2.00000
      8      -5.2269      2.00000
      9       2.5668      0.00000
     10       3.1353      0.00000
     11       3.7680      0.00000
     12       4.6483      0.00000

 k-point   139 :       0.1497    0.0748    0.0000
  band No.  band energies     occupation 
      1     -20.3965      2.00000
      2     -20.3852      2.00000
      3      -8.4962      2.00000
      4      -8.3184      2.00000
      5      -5.6516      2.00000
      6      -5.6503      2.00000
      7      -5.0793      2.00000
      8      -5.0784      2.00000
      9       2.4653      0.00000
     10       3.0323      0.00000
     11       3.6649      0.00000
     12       4.5467      0.00000

 k-point   140 :       0.1361    0.0680    0.0000
  band No.  band energies     occupation 
      1     -20.4655      2.00000
      2     -20.4541      2.00000
      3      -8.5786      2.00000
      4      -8.4001      2.00000
      5      -5.4367      2.00000
      6      -5.4355      2.00000
      7      -4.9408      2.00000
      8      -4.9400      2.00000
      9       2.3725      0.00000
     10       2.9382      0.00000
     11       3.5707      0.00000
     12       4.4539      0.00000

 k-point   141 :       0.1224    0.0612    0.0000
  band No.  band energies     occupation 
      1     -20.5280      2.00000
      2     -20.5165      2.00000
      3      -8.6534      2.00000
      4      -8.4742      2.00000
      5      -5.2332      2.00000
      6      -5.2321      2.00000
      7      -4.8131      2.00000
      8      -4.8124      2.00000
      9       2.2886      0.00000
     10       2.8531      0.00000
     11       3.4855      0.00000
     12       4.3699      0.00000

 k-point   142 :       0.1088    0.0544    0.0000
  band No.  band energies     occupation 
      1     -20.5839      2.00000
      2     -20.5724      2.00000
      3      -8.7203      2.00000
      4      -8.5406      2.00000
      5      -5.0430      2.00000
      6      -5.0420      2.00000
      7      -4.6969      2.00000
      8      -4.6962      2.00000
      9       2.2136      0.00000
     10       2.7769      0.00000
     11       3.4093      0.00000
     12       4.2947      0.00000

 k-point   143 :       0.0952    0.0476    0.0000
  band No.  band energies     occupation 
      1     -20.6333      2.00000
      2     -20.6217      2.00000
      3      -8.7795      2.00000
      4      -8.5993      2.00000
      5      -4.8681      2.00000
      6      -4.8672      2.00000
      7      -4.5928      2.00000
      8      -4.5922      2.00000
      9       2.1473      0.00000
     10       2.7097      0.00000
     11       3.3420      0.00000
     12       4.2283      0.00000

 k-point   144 :       0.0816    0.0408    0.0000
  band No.  band energies     occupation 
      1     -20.6761      2.00000
      2     -20.6645      2.00000
      3      -8.8309      2.00000
      4      -8.6502      2.00000
      5      -4.7107      2.00000
      6      -4.7099      2.00000
      7      -4.5014      2.00000
      8      -4.5008      2.00000
      9       2.0899      0.00000
     10       2.6515      0.00000
     11       3.2836      0.00000
     12       4.1707      0.00000

 k-point   145 :       0.0680    0.0340    0.0000
  band No.  band energies     occupation 
      1     -20.7124      2.00000
      2     -20.7007      2.00000
      3      -8.8743      2.00000
      4      -8.6934      2.00000
      5      -4.5729      2.00000
      6      -4.5722      2.00000
      7      -4.4231      2.00000
      8      -4.4225      2.00000
      9       2.0414      0.00000
     10       2.6022      0.00000
     11       3.2343      0.00000
     12       4.1220      0.00000

 k-point   146 :       0.0544    0.0272    0.0000
  band No.  band energies     occupation 
      1     -20.7420      2.00000
      2     -20.7303      2.00000
      3      -8.9099      2.00000
      4      -8.7287      2.00000
      5      -4.4568      2.00000
      6      -4.4562      2.00000
      7      -4.3584      2.00000
      8      -4.3579      2.00000
      9       2.0017      0.00000
     10       2.5618      0.00000
     11       3.1939      0.00000
     12       4.0821      0.00000

 k-point   147 :       0.0408    0.0204    0.0000
  band No.  band energies     occupation 
      1     -20.7651      2.00000
      2     -20.7534      2.00000
      3      -8.9377      2.00000
      4      -8.7562      2.00000
      5      -4.3642      2.00000
      6      -4.3636      2.00000
      7      -4.3077      2.00000
      8      -4.3072      2.00000
      9       1.9708      0.00000
     10       2.5304      0.00000
     11       3.1625      0.00000
     12       4.0511      0.00000

 k-point   148 :       0.0272    0.0136    0.0000
  band No.  band energies     occupation 
      1     -20.7816      2.00000
      2     -20.7699      2.00000
      3      -8.9575      2.00000
      4      -8.7758      2.00000
      5      -4.2968      2.00000
      6      -4.2963      2.00000
      7      -4.2713      2.00000
      8      -4.2708      2.00000
      9       1.9487      0.00000
     10       2.5080      0.00000
     11       3.1400      0.00000
     12       4.0289      0.00000

 k-point   149 :       0.0136    0.0068    0.0000
  band No.  band energies     occupation 
      1     -20.7915      2.00000
      2     -20.7798      2.00000
      3      -8.9693      2.00000
      4      -8.7876      2.00000
      5      -4.2558      2.00000
      6      -4.2553      2.00000
      7      -4.2494      2.00000
      8      -4.2489      2.00000
      9       1.9355      0.00000
     10       2.4946      0.00000
     11       3.1266      0.00000
     12       4.0156      0.00000

 k-point   150 :      -0.0000    0.0000    0.0000
  band No.  band energies     occupation 
      1     -20.7948      2.00000
      2     -20.7831      2.00000
      3      -8.9733      2.00000
      4      -8.7915      2.00000
      5      -4.2421      2.00000
      6      -4.2420      2.00000
      7      -4.2416      2.00000
      8      -4.2415      2.00000
      9       1.9311      0.00000
     10       2.4901      0.00000
     11       3.1221      0.00000
     12       4.0112      0.00000


--------------------------------------------------------------------------------------------------------


 soft charge-density along one line, spin component           1
         0         1         2         3         4         5         6         7         8         9
 total charge-density along one line
 
 pseudopotential strength for first ion, spin component:           1
 10.133   0.016  -0.000  -0.000   0.000   0.000   0.000  -0.000
  0.016  -0.002   0.000   0.000  -0.000   0.000   0.000  -0.000
 -0.000   0.000  -4.261  -0.000  -0.000  -0.017  -0.000  -0.000
 -0.000   0.000  -0.000  -4.254   0.000  -0.000  -0.014   0.000
  0.000  -0.000  -0.000   0.000  -4.261  -0.000   0.000  -0.017
  0.000   0.000  -0.017  -0.000  -0.000  -0.770  -0.000  -0.000
  0.000   0.000  -0.000  -0.014   0.000  -0.000  -0.770   0.000
 -0.000  -0.000  -0.000   0.000  -0.017  -0.000   0.000  -0.770
 total augmentation occupancy for first ion, spin component:           1
  2.000   0.000   0.000   0.000   0.000   0.000   0.000   0.000
  0.000   0.000   0.000   0.000   0.000   0.000   0.000   0.000
  0.000   0.000   0.667   0.000   0.000   0.000   0.000   0.000
  0.000   0.000   0.000   0.667   0.000   0.000   0.000   0.000
  0.000   0.000   0.000   0.000   0.667   0.000   0.000   0.000
  0.000   0.000   0.000   0.000   0.000   0.000   0.000   0.000
  0.000   0.000   0.000   0.000   0.000   0.000   0.000   0.000
  0.000   0.000   0.000   0.000   0.000   0.000   0.000   0.000


------------------------ aborting loop because EDIFF is reached ----------------------------------------


    CHARGE:  cpu time    0.0760: real time    0.0762
    FORLOC:  cpu time    0.0019: real time    0.0019
    FORNL :  cpu time    0.1019: real time    0.1021
    STRESS:  cpu time    0.4580: real time    0.4591
    FORHAR:  cpu time    0.0037: real time    0.0037
    OFIELD:  cpu time    0.0000: real time    0.0000

  FORCE on cell =-STRESS in cart. coord.  units (eV):
  Direction    XX          YY          ZZ          XY          YZ          ZX
  --------------------------------------------------------------------------------------
  Alpha Z    12.44266    12.44266    12.44266
  Ewald    3012.30630  3012.30506 -3551.46173     0.00000    -0.00000     0.00000
  Hartree  2977.56380  2977.56379 -2954.21187     0.00000     0.00000    -0.00000
  E(xc)     -58.45161   -58.45161   -60.79549    -0.00000    -0.00000    -0.00000
  Local   -6168.20115 -6168.20052  6294.31866     0.00000    -0.00000    -0.00000
  n-local   -16.09115   -15.84646   -14.64878     0.32607     0.00000     0.00000
  augment    -1.64603    -1.64604    -1.50051    -0.00000     0.00000    -0.00000
  Kinetic   251.55479   240.18451   277.37467    -2.94273    -0.00000    -0.00000
  Fock        0.00000     0.00000     0.00000     0.00000     0.00000     0.00000
  -------------------------------------------------------------------------------------
  Total       3.91451     3.91451     1.51761     0.00000    -0.00000     0.00000
  in kB      59.85893    59.85893    23.20664     0.00000    -0.00000     0.00000
  external pressure =       47.64 kB  Pullay stress =        0.00 kB


 VOLUME and BASIS-vectors are now :
 -----------------------------------------------------------------------------
  energy-cutoff  :      800.00
  volume of cell :      104.78
      direct lattice vectors                 reciprocal lattice vectors
     2.130000000 -1.229756000  0.000000000     0.234741784 -0.406584721  0.000000000
     2.130000000  1.229756000  0.000000000     0.234741784  0.406584721  0.000000000
     0.000000000  0.000000000 20.000000000     0.000000000  0.000000000  0.050000000

  length of vectors
     2.459512110  2.459512110 20.000000000     0.469483589  0.469483589  0.050000000


 FORCES acting on ions
    electron-ion (+dipol)            ewald-force                    non-local-force                 convergence-correction
 -----------------------------------------------------------------------------------------------
   0.394E-06 -.108E-13 0.307E+03   -.241E-03 0.693E-14 -.307E+03   -.865E-16 -.862E-17 0.765E-03   -.122E-06 0.545E-14 -.150E-01
   0.276E-03 -.181E-13 0.307E+03   0.241E-03 -.456E-14 -.307E+03   -.536E-17 -.260E-16 0.765E-03   -.389E-06 0.758E-14 -.150E-01
   0.387E-06 -.289E-14 -.307E+03   -.241E-03 0.683E-14 0.307E+03   0.200E-15 -.201E-16 -.770E-03   -.123E-06 0.565E-14 0.153E-01
   0.275E-03 0.686E-13 -.307E+03   0.241E-03 -.465E-14 0.307E+03   -.275E-15 -.410E-16 -.770E-03   -.389E-06 0.205E-15 0.153E-01
 -----------------------------------------------------------------------------------------------
   0.552E-03 0.368E-13 -.519E-03   0.858E-14 0.456E-14 0.000E+00   -.167E-15 -.956E-16 -.952E-05   -.102E-05 0.189E-13 0.529E-03
 
 
 POSITION                                       TOTAL-FORCE (eV/Angst)
 -----------------------------------------------------------------------------------
      0.00000      0.00000      0.00000         0.000000      0.000000      0.001329
      1.42000      0.00000      0.00000        -0.000000     -0.000000      0.001329
      0.00000      0.00000      4.43868        -0.000000      0.000000     -0.001329
      1.42000      0.00000      4.43868        -0.000000     -0.000000     -0.001329
 -----------------------------------------------------------------------------------
    total drift:                                0.000551      0.000000      0.000000


--------------------------------------------------------------------------------------------------------



  FREE ENERGIE OF THE ION-ELECTRON SYSTEM (eV)
  ---------------------------------------------------
  free  energy   TOTEN  =       -34.71316617 eV

  energy  without entropy=      -34.71316617  energy(sigma->0) =      -34.71316617
 


--------------------------------------------------------------------------------------------------------


    POTLOK:  cpu time    0.0174: real time    0.0174


--------------------------------------------------------------------------------------------------------


     LOOP+:  cpu time   10.0317: real time   10.1197
    4ORBIT:  cpu time    0.0000: real time    0.0000

 total amount of memory used by VASP MPI-rank0    50443. kBytes
=======================================================================

   base      :      30000. kBytes
   nonl-proj :       8871. kBytes
   fftplans  :       4591. kBytes
   grid      :       2514. kBytes
   one-center:          3. kBytes
   wavefun   :       4464. kBytes
 
  
  
 General timing and accounting informations for this job:
 ========================================================
  
                  Total CPU time used (sec):       11.885
                            User time (sec):       11.767
                          System time (sec):        0.118
                         Elapsed time (sec):       12.488
  
                   Maximum memory used (kb):       89892.
                   Average memory used (kb):           0.
  
                          Minor page faults:        35249
                          Major page faults:            0
                 Voluntary context switches:          856
