...it's alive! Batch file starting...
 running on   36 total cores
 distrk:  each k-point on   36 cores,    1 groups
 distr:  one band on    6 cores,    6 groups
 using from now: INCAR     
 vasp.5.4.4.18Apr17-6-g9f103f2a35 (build May 31 2018 21:15:54) complex          
  
 POSCAR found type information on POSCAR  C 
 POSCAR found :  1 types and       4 ions
 scaLAPACK will be used
 LDA part: xc-table for Pade appr. of Perdew
 WARNING: stress and forces are not correct
 POSCAR, INCAR and KPOINTS ok, starting setup
 FFT: planning ...
 WAVECAR not read
 charge-density read from file: C-4                                     
 entering main loop
       N       E                     dE             d eps       ncg     rms          rms(c)
DAV:   1     0.916269409997E+02    0.91627E+02   -0.82624E+03  3600   0.145E+03
DAV:   2    -0.283526751363E+02   -0.11998E+03   -0.10937E+03  6096   0.175E+02
DAV:   3    -0.346387492634E+02   -0.62861E+01   -0.61568E+01  4620   0.597E+01
DAV:   4    -0.347119291271E+02   -0.73180E-01   -0.73180E-01  5820   0.625E+00
DAV:   5    -0.347130996030E+02   -0.11705E-02   -0.11705E-02  5676   0.414E-01
DAV:   6    -0.347131623536E+02   -0.62751E-04   -0.62751E-04  6192   0.482E-02
DAV:   7    -0.347131658905E+02   -0.35369E-05   -0.35369E-05  5988   0.626E-03
DAV:   8    -0.347131661722E+02   -0.28173E-06   -0.28169E-06  6348   0.133E-03
DAV:   9    -0.347131661723E+02   -0.82764E-10   -0.35007E-10  6228   0.245E-05
   1 F= -.34713166E+02 E0= -.34713166E+02  d E =-.265538E-12
Bstch file complete.
