<?xml version="1.0" encoding="ISO-8859-1"?>
<modeling>
 <generator>
  <i name="program" type="string">vasp </i>
  <i name="version" type="string">5.4.4.18Apr17-6-g9f103f2a35  </i>
  <i name="subversion" type="string">(build May 31 2018 21:15:54) complex            parallel </i>
  <i name="platform" type="string">c7_intel_O1 </i>
  <i name="date" type="string">2020 08 17 </i>
  <i name="time" type="string">20:04:30 </i>
 </generator>
 <incar>
  <i type="string" name="SYSTEM"> C-4</i>
  <i type="int" name="ISTART">     0</i>
  <i type="string" name="PREC">accurate</i>
  <i type="string" name="ALGO"> N</i>
  <i type="logical" name="ADDGRID"> T  </i>
  <i name="AMIN">      0.01000000</i>
  <i type="int" name="ICHARG">    11</i>
  <i type="int" name="NELMIN">     5</i>
  <i type="int" name="IBRION">    -1</i>
  <i name="EDIFF">      0.00000001</i>
  <i name="EDIFFG">     -0.00000001</i>
  <i type="int" name="NSW">     0</i>
  <i name="SYMPREC">      0.00010000</i>
  <i name="ENCUT">    800.00000000</i>
  <i type="logical" name="LREAL"> F  </i>
  <i type="int" name="ISMEAR">     0</i>
  <i name="SIGMA">      0.01000000</i>
  <i type="logical" name="LWAVE"> F  </i>
  <i type="logical" name="LCHARG"> F  </i>
  <v type="int" name="KPOINT_BSE">    -1     0     0     0</v>
 </incar>
 <structure name="primitive_cell" >
  <crystal>
   <varray name="basis" >
    <v>       2.13000000      -1.22975600       0.00000000 </v>
    <v>       2.13000000       1.22975600       0.00000000 </v>
    <v>       0.00000000       0.00000000      20.00000000 </v>
   </varray>
   <i name="volume">    104.77521120 </i>
   <varray name="rec_basis" >
    <v>       0.23474178      -0.40658472       0.00000000 </v>
    <v>       0.23474178       0.40658472       0.00000000 </v>
    <v>       0.00000000       0.00000000       0.05000000 </v>
   </varray>
  </crystal>
  <varray name="positions" >
   <v>       0.00000000       0.00000000       0.00000000 </v>
   <v>       0.33333300       0.33333300       0.00000000 </v>
   <v>       0.00000000       0.00000000       0.22193400 </v>
   <v>       0.33333300       0.33333300       0.22193400 </v>
  </varray>
 </structure>
 <varray name="primitive_index" >
  <v type="int" >        1 </v>
  <v type="int" >        2 </v>
  <v type="int" >        3 </v>
  <v type="int" >        4 </v>
 </varray>
 <kpoints>
  <generation param="listgenerated">
   <i name="divisions" type="int">      50 </i>
   <v>       0.00000000       0.00000000       0.00000000 </v>
   <v>       0.50000000       0.50000000       0.00000000 </v>
   <v>       0.66666700       0.33333300       0.00000000 </v>
   <v>      -0.00000000       0.00000000       0.00000000 </v>
  </generation>
  <varray name="kpointlist" >
   <v>       0.00000000       0.00000000       0.00000000 </v>
   <v>       0.01020408       0.01020408       0.00000000 </v>
   <v>       0.02040816       0.02040816       0.00000000 </v>
   <v>       0.03061224       0.03061224       0.00000000 </v>
   <v>       0.04081633       0.04081633       0.00000000 </v>
   <v>       0.05102041       0.05102041       0.00000000 </v>
   <v>       0.06122449       0.06122449       0.00000000 </v>
   <v>       0.07142857       0.07142857       0.00000000 </v>
   <v>       0.08163265       0.08163265       0.00000000 </v>
   <v>       0.09183673       0.09183673       0.00000000 </v>
   <v>       0.10204082       0.10204082       0.00000000 </v>
   <v>       0.11224490       0.11224490       0.00000000 </v>
   <v>       0.12244898       0.12244898       0.00000000 </v>
   <v>       0.13265306       0.13265306       0.00000000 </v>
   <v>       0.14285714       0.14285714       0.00000000 </v>
   <v>       0.15306122       0.15306122       0.00000000 </v>
   <v>       0.16326531       0.16326531       0.00000000 </v>
   <v>       0.17346939       0.17346939       0.00000000 </v>
   <v>       0.18367347       0.18367347       0.00000000 </v>
   <v>       0.19387755       0.19387755       0.00000000 </v>
   <v>       0.20408163       0.20408163       0.00000000 </v>
   <v>       0.21428571       0.21428571       0.00000000 </v>
   <v>       0.22448980       0.22448980       0.00000000 </v>
   <v>       0.23469388       0.23469388       0.00000000 </v>
   <v>       0.24489796       0.24489796       0.00000000 </v>
   <v>       0.25510204       0.25510204       0.00000000 </v>
   <v>       0.26530612       0.26530612       0.00000000 </v>
   <v>       0.27551020       0.27551020       0.00000000 </v>
   <v>       0.28571429       0.28571429       0.00000000 </v>
   <v>       0.29591837       0.29591837       0.00000000 </v>
   <v>       0.30612245       0.30612245       0.00000000 </v>
   <v>       0.31632653       0.31632653       0.00000000 </v>
   <v>       0.32653061       0.32653061       0.00000000 </v>
   <v>       0.33673469       0.33673469       0.00000000 </v>
   <v>       0.34693878       0.34693878       0.00000000 </v>
   <v>       0.35714286       0.35714286       0.00000000 </v>
   <v>       0.36734694       0.36734694       0.00000000 </v>
   <v>       0.37755102       0.37755102       0.00000000 </v>
   <v>       0.38775510       0.38775510       0.00000000 </v>
   <v>       0.39795918       0.39795918       0.00000000 </v>
   <v>       0.40816327       0.40816327       0.00000000 </v>
   <v>       0.41836735       0.41836735       0.00000000 </v>
   <v>       0.42857143       0.42857143       0.00000000 </v>
   <v>       0.43877551       0.43877551       0.00000000 </v>
   <v>       0.44897959       0.44897959       0.00000000 </v>
   <v>       0.45918367       0.45918367       0.00000000 </v>
   <v>       0.46938776       0.46938776       0.00000000 </v>
   <v>       0.47959184       0.47959184       0.00000000 </v>
   <v>       0.48979592       0.48979592       0.00000000 </v>
   <v>       0.50000000       0.50000000       0.00000000 </v>
   <v>       0.50000000       0.50000000       0.00000000 </v>
   <v>       0.50340137       0.49659863       0.00000000 </v>
   <v>       0.50680273       0.49319727       0.00000000 </v>
   <v>       0.51020410       0.48979590       0.00000000 </v>
   <v>       0.51360547       0.48639453       0.00000000 </v>
   <v>       0.51700684       0.48299316       0.00000000 </v>
   <v>       0.52040820       0.47959180       0.00000000 </v>
   <v>       0.52380957       0.47619043       0.00000000 </v>
   <v>       0.52721094       0.47278906       0.00000000 </v>
   <v>       0.53061231       0.46938769       0.00000000 </v>
   <v>       0.53401367       0.46598633       0.00000000 </v>
   <v>       0.53741504       0.46258496       0.00000000 </v>
   <v>       0.54081641       0.45918359       0.00000000 </v>
   <v>       0.54421778       0.45578222       0.00000000 </v>
   <v>       0.54761914       0.45238086       0.00000000 </v>
   <v>       0.55102051       0.44897949       0.00000000 </v>
   <v>       0.55442188       0.44557812       0.00000000 </v>
   <v>       0.55782324       0.44217676       0.00000000 </v>
   <v>       0.56122461       0.43877539       0.00000000 </v>
   <v>       0.56462598       0.43537402       0.00000000 </v>
   <v>       0.56802735       0.43197265       0.00000000 </v>
   <v>       0.57142871       0.42857129       0.00000000 </v>
   <v>       0.57483008       0.42516992       0.00000000 </v>
   <v>       0.57823145       0.42176855       0.00000000 </v>
   <v>       0.58163282       0.41836718       0.00000000 </v>
   <v>       0.58503418       0.41496582       0.00000000 </v>
   <v>       0.58843555       0.41156445       0.00000000 </v>
   <v>       0.59183692       0.40816308       0.00000000 </v>
   <v>       0.59523829       0.40476171       0.00000000 </v>
   <v>       0.59863965       0.40136035       0.00000000 </v>
   <v>       0.60204102       0.39795898       0.00000000 </v>
   <v>       0.60544239       0.39455761       0.00000000 </v>
   <v>       0.60884376       0.39115624       0.00000000 </v>
   <v>       0.61224512       0.38775488       0.00000000 </v>
   <v>       0.61564649       0.38435351       0.00000000 </v>
   <v>       0.61904786       0.38095214       0.00000000 </v>
   <v>       0.62244922       0.37755078       0.00000000 </v>
   <v>       0.62585059       0.37414941       0.00000000 </v>
   <v>       0.62925196       0.37074804       0.00000000 </v>
   <v>       0.63265333       0.36734667       0.00000000 </v>
   <v>       0.63605469       0.36394531       0.00000000 </v>
   <v>       0.63945606       0.36054394       0.00000000 </v>
   <v>       0.64285743       0.35714257       0.00000000 </v>
   <v>       0.64625880       0.35374120       0.00000000 </v>
   <v>       0.64966016       0.35033984       0.00000000 </v>
   <v>       0.65306153       0.34693847       0.00000000 </v>
   <v>       0.65646290       0.34353710       0.00000000 </v>
   <v>       0.65986427       0.34013573       0.00000000 </v>
   <v>       0.66326563       0.33673437       0.00000000 </v>
   <v>       0.66666700       0.33333300       0.00000000 </v>
   <v>       0.66666700       0.33333300       0.00000000 </v>
   <v>       0.65306155       0.32653029       0.00000000 </v>
   <v>       0.63945610       0.31972757       0.00000000 </v>
   <v>       0.62585065       0.31292486       0.00000000 </v>
   <v>       0.61224520       0.30612214       0.00000000 </v>
   <v>       0.59863976       0.29931943       0.00000000 </v>
   <v>       0.58503431       0.29251671       0.00000000 </v>
   <v>       0.57142886       0.28571400       0.00000000 </v>
   <v>       0.55782341       0.27891129       0.00000000 </v>
   <v>       0.54421796       0.27210857       0.00000000 </v>
   <v>       0.53061251       0.26530586       0.00000000 </v>
   <v>       0.51700706       0.25850314       0.00000000 </v>
   <v>       0.50340161       0.25170043       0.00000000 </v>
   <v>       0.48979616       0.24489771       0.00000000 </v>
   <v>       0.47619071       0.23809500       0.00000000 </v>
   <v>       0.46258527       0.23129229       0.00000000 </v>
   <v>       0.44897982       0.22448957       0.00000000 </v>
   <v>       0.43537437       0.21768686       0.00000000 </v>
   <v>       0.42176892       0.21088414       0.00000000 </v>
   <v>       0.40816347       0.20408143       0.00000000 </v>
   <v>       0.39455802       0.19727871       0.00000000 </v>
   <v>       0.38095257       0.19047600       0.00000000 </v>
   <v>       0.36734712       0.18367329       0.00000000 </v>
   <v>       0.35374167       0.17687057       0.00000000 </v>
   <v>       0.34013622       0.17006786       0.00000000 </v>
   <v>       0.32653078       0.16326514       0.00000000 </v>
   <v>       0.31292533       0.15646243       0.00000000 </v>
   <v>       0.29931988       0.14965971       0.00000000 </v>
   <v>       0.28571443       0.14285700       0.00000000 </v>
   <v>       0.27210898       0.13605429       0.00000000 </v>
   <v>       0.25850353       0.12925157       0.00000000 </v>
   <v>       0.24489808       0.12244886       0.00000000 </v>
   <v>       0.23129263       0.11564614       0.00000000 </v>
   <v>       0.21768718       0.10884343       0.00000000 </v>
   <v>       0.20408173       0.10204071       0.00000000 </v>
   <v>       0.19047629       0.09523800       0.00000000 </v>
   <v>       0.17687084       0.08843529       0.00000000 </v>
   <v>       0.16326539       0.08163257       0.00000000 </v>
   <v>       0.14965994       0.07482986       0.00000000 </v>
   <v>       0.13605449       0.06802714       0.00000000 </v>
   <v>       0.12244904       0.06122443       0.00000000 </v>
   <v>       0.10884359       0.05442171       0.00000000 </v>
   <v>       0.09523814       0.04761900       0.00000000 </v>
   <v>       0.08163269       0.04081629       0.00000000 </v>
   <v>       0.06802724       0.03401357       0.00000000 </v>
   <v>       0.05442180       0.02721086       0.00000000 </v>
   <v>       0.04081635       0.02040814       0.00000000 </v>
   <v>       0.02721090       0.01360543       0.00000000 </v>
   <v>       0.01360545       0.00680271       0.00000000 </v>
   <v>      -0.00000000       0.00000000       0.00000000 </v>
  </varray>
  <varray name="weights" >
   <v>       0.00666667 </v>
   <v>       0.00666667 </v>
   <v>       0.00666667 </v>
   <v>       0.00666667 </v>
   <v>       0.00666667 </v>
   <v>       0.00666667 </v>
   <v>       0.00666667 </v>
   <v>       0.00666667 </v>
   <v>       0.00666667 </v>
   <v>       0.00666667 </v>
   <v>       0.00666667 </v>
   <v>       0.00666667 </v>
   <v>       0.00666667 </v>
   <v>       0.00666667 </v>
   <v>       0.00666667 </v>
   <v>       0.00666667 </v>
   <v>       0.00666667 </v>
   <v>       0.00666667 </v>
   <v>       0.00666667 </v>
   <v>       0.00666667 </v>
   <v>       0.00666667 </v>
   <v>       0.00666667 </v>
   <v>       0.00666667 </v>
   <v>       0.00666667 </v>
   <v>       0.00666667 </v>
   <v>       0.00666667 </v>
   <v>       0.00666667 </v>
   <v>       0.00666667 </v>
   <v>       0.00666667 </v>
   <v>       0.00666667 </v>
   <v>       0.00666667 </v>
   <v>       0.00666667 </v>
   <v>       0.00666667 </v>
   <v>       0.00666667 </v>
   <v>       0.00666667 </v>
   <v>       0.00666667 </v>
   <v>       0.00666667 </v>
   <v>       0.00666667 </v>
   <v>       0.00666667 </v>
   <v>       0.00666667 </v>
   <v>       0.00666667 </v>
   <v>       0.00666667 </v>
   <v>       0.00666667 </v>
   <v>       0.00666667 </v>
   <v>       0.00666667 </v>
   <v>       0.00666667 </v>
   <v>       0.00666667 </v>
   <v>       0.00666667 </v>
   <v>       0.00666667 </v>
   <v>       0.00666667 </v>
   <v>       0.00666667 </v>
   <v>       0.00666667 </v>
   <v>       0.00666667 </v>
   <v>       0.00666667 </v>
   <v>       0.00666667 </v>
   <v>       0.00666667 </v>
   <v>       0.00666667 </v>
   <v>       0.00666667 </v>
   <v>       0.00666667 </v>
   <v>       0.00666667 </v>
   <v>       0.00666667 </v>
   <v>       0.00666667 </v>
   <v>       0.00666667 </v>
   <v>       0.00666667 </v>
   <v>       0.00666667 </v>
   <v>       0.00666667 </v>
   <v>       0.00666667 </v>
   <v>       0.00666667 </v>
   <v>       0.00666667 </v>
   <v>       0.00666667 </v>
   <v>       0.00666667 </v>
   <v>       0.00666667 </v>
   <v>       0.00666667 </v>
   <v>       0.00666667 </v>
   <v>       0.00666667 </v>
   <v>       0.00666667 </v>
   <v>       0.00666667 </v>
   <v>       0.00666667 </v>
   <v>       0.00666667 </v>
   <v>       0.00666667 </v>
   <v>       0.00666667 </v>
   <v>       0.00666667 </v>
   <v>       0.00666667 </v>
   <v>       0.00666667 </v>
   <v>       0.00666667 </v>
   <v>       0.00666667 </v>
   <v>       0.00666667 </v>
   <v>       0.00666667 </v>
   <v>       0.00666667 </v>
   <v>       0.00666667 </v>
   <v>       0.00666667 </v>
   <v>       0.00666667 </v>
   <v>       0.00666667 </v>
   <v>       0.00666667 </v>
   <v>       0.00666667 </v>
   <v>       0.00666667 </v>
   <v>       0.00666667 </v>
   <v>       0.00666667 </v>
   <v>       0.00666667 </v>
   <v>       0.00666667 </v>
   <v>       0.00666667 </v>
   <v>       0.00666667 </v>
   <v>       0.00666667 </v>
   <v>       0.00666667 </v>
   <v>       0.00666667 </v>
   <v>       0.00666667 </v>
   <v>       0.00666667 </v>
   <v>       0.00666667 </v>
   <v>       0.00666667 </v>
   <v>       0.00666667 </v>
   <v>       0.00666667 </v>
   <v>       0.00666667 </v>
   <v>       0.00666667 </v>
   <v>       0.00666667 </v>
   <v>       0.00666667 </v>
   <v>       0.00666667 </v>
   <v>       0.00666667 </v>
   <v>       0.00666667 </v>
   <v>       0.00666667 </v>
   <v>       0.00666667 </v>
   <v>       0.00666667 </v>
   <v>       0.00666667 </v>
   <v>       0.00666667 </v>
   <v>       0.00666667 </v>
   <v>       0.00666667 </v>
   <v>       0.00666667 </v>
   <v>       0.00666667 </v>
   <v>       0.00666667 </v>
   <v>       0.00666667 </v>
   <v>       0.00666667 </v>
   <v>       0.00666667 </v>
   <v>       0.00666667 </v>
   <v>       0.00666667 </v>
   <v>       0.00666667 </v>
   <v>       0.00666667 </v>
   <v>       0.00666667 </v>
   <v>       0.00666667 </v>
   <v>       0.00666667 </v>
   <v>       0.00666667 </v>
   <v>       0.00666667 </v>
   <v>       0.00666667 </v>
   <v>       0.00666667 </v>
   <v>       0.00666667 </v>
   <v>       0.00666667 </v>
   <v>       0.00666667 </v>
   <v>       0.00666667 </v>
   <v>       0.00666667 </v>
   <v>       0.00666667 </v>
   <v>       0.00666667 </v>
   <v>       0.00666667 </v>
  </varray>
 </kpoints>
 <parameters>
  <separator name="general" >
   <i type="string" name="SYSTEM">C-4</i>
   <i type="logical" name="LCOMPAT"> F  </i>
  </separator>
  <separator name="electronic" >
   <i type="string" name="PREC">accura</i>
   <i name="ENMAX">    800.00000000</i>
   <i name="ENAUG">    644.87300000</i>
   <i name="EDIFF">      0.00000001</i>
   <i type="int" name="IALGO">    38</i>
   <i type="int" name="IWAVPR">    10</i>
   <i type="int" name="NBANDS">    12</i>
   <i name="NELECT">     16.00000000</i>
   <i type="int" name="TURBO">     0</i>
   <i type="int" name="IRESTART">     0</i>
   <i type="int" name="NREBOOT">     0</i>
   <i type="int" name="NMIN">     0</i>
   <i name="EREF">      0.00000000</i>
   <separator name="electronic smearing" >
    <i type="int" name="ISMEAR">     0</i>
    <i name="SIGMA">      0.01000000</i>
    <i name="KSPACING">      0.50000000</i>
    <i type="logical" name="KGAMMA"> T  </i>
   </separator>
   <separator name="electronic projectors" >
    <i type="logical" name="LREAL"> F  </i>
    <v name="ROPT">      0.00000000</v>
    <i type="int" name="LMAXPAW">  -100</i>
    <i type="int" name="LMAXMIX">     2</i>
    <i type="logical" name="NLSPLINE"> F  </i>
   </separator>
   <separator name="electronic startup" >
    <i type="int" name="ISTART">     0</i>
    <i type="int" name="ICHARG">    11</i>
    <i type="int" name="INIWAV">     1</i>
   </separator>
   <separator name="electronic spin" >
    <i type="int" name="ISPIN">     1</i>
    <i type="logical" name="LNONCOLLINEAR"> F  </i>
    <v name="MAGMOM">      1.00000000      1.00000000      1.00000000      1.00000000</v>
    <i name="NUPDOWN">     -1.00000000</i>
    <i type="logical" name="LSORBIT"> F  </i>
    <v name="SAXIS">      0.00000000      0.00000000      1.00000000</v>
    <i type="logical" name="LSPIRAL"> F  </i>
    <v name="QSPIRAL">      0.00000000      0.00000000      0.00000000</v>
    <i type="logical" name="LZEROZ"> F  </i>
   </separator>
   <separator name="electronic exchange-correlation" >
    <i type="logical" name="LASPH"> F  </i>
    <i type="logical" name="LMETAGGA"> F  </i>
   </separator>
   <separator name="electronic convergence" >
    <i type="int" name="NELM">    60</i>
    <i type="int" name="NELMDL">    -5</i>
    <i type="int" name="NELMIN">     5</i>
    <i name="ENINI">    800.00000000</i>
    <separator name="electronic convergence detail" >
     <i type="logical" name="LDIAG"> T  </i>
     <i type="logical" name="LSUBROT"> F  </i>
     <i name="WEIMIN">      0.00000000</i>
     <i name="EBREAK">      0.00000000</i>
     <i name="DEPER">      0.30000000</i>
     <i type="int" name="NRMM">     4</i>
     <i name="TIME">      0.40000000</i>
    </separator>
   </separator>
   <separator name="electronic mixer" >
    <i name="AMIX">      0.40000000</i>
    <i name="BMIX">      1.00000000</i>
    <i name="AMIN">      0.01000000</i>
    <i name="AMIX_MAG">      1.60000000</i>
    <i name="BMIX_MAG">      1.00000000</i>
    <separator name="electronic mixer details" >
     <i type="int" name="IMIX">     4</i>
     <i type="logical" name="MIXFIRST"> F  </i>
     <i type="int" name="MAXMIX">   -45</i>
     <i name="WC">    100.00000000</i>
     <i type="int" name="INIMIX">     1</i>
     <i type="int" name="MIXPRE">     1</i>
     <i type="int" name="MREMOVE">     5</i>
    </separator>
   </separator>
   <separator name="electronic dipolcorrection" >
    <i type="logical" name="LDIPOL"> F  </i>
    <i type="logical" name="LMONO"> F  </i>
    <i type="int" name="IDIPOL">     0</i>
    <i name="EPSILON">      1.00000000</i>
    <v name="DIPOL">   -100.00000000   -100.00000000   -100.00000000</v>
    <i name="EFIELD">      0.00000000</i>
   </separator>
  </separator>
  <separator name="grids" >
   <i type="int" name="NGX">    24</i>
   <i type="int" name="NGY">    24</i>
   <i type="int" name="NGZ">   192</i>
   <i type="int" name="NGXF">    48</i>
   <i type="int" name="NGYF">    48</i>
   <i type="int" name="NGZF">   384</i>
   <i type="logical" name="ADDGRID"> T  </i>
  </separator>
  <separator name="ionic" >
   <i type="int" name="NSW">     0</i>
   <i type="int" name="IBRION">    -1</i>
   <i type="int" name="MDALGO">     0</i>
   <i type="int" name="ISIF">     2</i>
   <i name="PSTRESS">      0.00000000</i>
   <i name="EDIFFG">     -0.00000001</i>
   <i type="int" name="NFREE">     0</i>
   <i name="POTIM">      0.50000000</i>
   <i name="SMASS">     -3.00000000</i>
   <i name="SCALEE">      1.00000000</i>
  </separator>
  <separator name="ionic md" >
   <i name="TEBEG">      0.00010000</i>
   <i name="TEEND">      0.00010000</i>
   <i type="int" name="NBLOCK">     1</i>
   <i type="int" name="KBLOCK">     1</i>
   <i type="int" name="NPACO">   256</i>
   <i name="APACO">     16.00000000</i>
  </separator>
  <separator name="symmetry" >
   <i type="int" name="ISYM">     2</i>
   <i name="SYMPREC">      0.00010000</i>
  </separator>
  <separator name="dos" >
   <i type="int" name="LORBIT">     0</i>
   <v name="RWIGS">     -1.00000000</v>
   <i type="int" name="NEDOS">   301</i>
   <i name="EMIN">     10.00000000</i>
   <i name="EMAX">    -10.00000000</i>
   <i name="EFERMI">      0.00000000</i>
  </separator>
  <separator name="writing" >
   <i type="int" name="NWRITE">     2</i>
   <i type="logical" name="LWAVE"> F  </i>
   <i type="logical" name="LDOWNSAMPLE"> F  </i>
   <i type="logical" name="LCHARG"> F  </i>
   <i type="logical" name="LPARD"> F  </i>
   <i type="logical" name="LVTOT"> F  </i>
   <i type="logical" name="LVHAR"> F  </i>
   <i type="logical" name="LELF"> F  </i>
   <i type="logical" name="LOPTICS"> F  </i>
   <v name="STM">      0.00000000      0.00000000      0.00000000      0.00000000      0.00000000      0.00000000      0.00000000</v>
  </separator>
  <separator name="performance" >
   <i type="int" name="NPAR">     6</i>
   <i type="int" name="NSIM">     4</i>
   <i type="int" name="NBLK">    -1</i>
   <i type="logical" name="LPLANE"> T  </i>
   <i type="logical" name="LSCALAPACK"> T  </i>
   <i type="logical" name="LSCAAWARE"> F  </i>
   <i type="logical" name="LSCALU"> F  </i>
   <i type="logical" name="LASYNC"> F  </i>
   <i type="logical" name="LORBITALREAL"> F  </i>
  </separator>
  <separator name="miscellaneous" >
   <i type="int" name="IDIOT">     3</i>
   <i type="int" name="ISPECIAL">     0</i>
   <i type="logical" name="LMUSIC"> F  </i>
   <v name="POMASS">     12.01100000</v>
   <v name="DARWINR">      0.00000000</v>
   <v name="DARWINV">      1.00000000</v>
   <i type="logical" name="LCORR"> T  </i>
  </separator>
  <i type="logical" name="GGA_COMPAT"> T  </i>
  <i type="logical" name="LBERRY"> F  </i>
  <i type="int" name="ICORELEVEL">     0</i>
  <i type="logical" name="LDAU"> F  </i>
  <i type="int" name="I_CONSTRAINED_M">     0</i>
  <separator name="electronic exchange-correlation" >
   <i type="string" name="GGA">--</i>
   <i type="int" name="VOSKOWN">     0</i>
   <i type="logical" name="LHFCALC"> F  </i>
   <i type="string" name="PRECFOCK"></i>
   <i type="logical" name="LSYMGRAD"> F  </i>
   <i type="logical" name="LHFONE"> F  </i>
   <i type="logical" name="LRHFCALC"> F  </i>
   <i type="logical" name="LTHOMAS"> F  </i>
   <i type="logical" name="LMODELHF"> F  </i>
   <i name="ENCUT4O">     -1.00000000</i>
   <i type="int" name="EXXOEP">     0</i>
   <i type="int" name="FOURORBIT">     0</i>
   <i name="AEXX">      0.00000000</i>
   <i name="HFALPHA">      0.00000000</i>
   <i name="MCALPHA">      0.00000000</i>
   <i name="ALDAX">      1.00000000</i>
   <i name="AGGAX">      1.00000000</i>
   <i name="ALDAC">      1.00000000</i>
   <i name="AGGAC">      1.00000000</i>
   <i type="int" name="NKREDX">     1</i>
   <i type="int" name="NKREDY">     1</i>
   <i type="int" name="NKREDZ">     1</i>
   <i type="logical" name="SHIFTRED"> F  </i>
   <i type="logical" name="ODDONLY"> F  </i>
   <i type="logical" name="EVENONLY"> F  </i>
   <i type="int" name="LMAXFOCK">     0</i>
   <i type="int" name="NMAXFOCKAE">     0</i>
   <i type="logical" name="LFOCKAEDFT"> F  </i>
   <i name="HFSCREEN">      0.00000000</i>
   <i name="HFSCREENC">      0.00000000</i>
   <i type="int" name="NBANDSGWLOW">     0</i>
  </separator>
  <separator name="vdW DFT" >
   <i type="logical" name="LUSE_VDW"> F  </i>
   <i name="Zab_VDW">     -0.84910000</i>
   <i name="PARAM1">      0.12340000</i>
   <i name="PARAM2">      1.00000000</i>
   <i name="PARAM3">      0.00000000</i>
  </separator>
  <separator name="model GW" >
   <i type="int" name="MODEL_GW">     0</i>
   <i name="MODEL_EPS0">     15.71628168</i>
   <i name="MODEL_ALPHA">      1.00000000</i>
  </separator>
  <separator name="linear response parameters" >
   <i type="logical" name="LEPSILON"> F  </i>
   <i type="logical" name="LRPA"> F  </i>
   <i type="logical" name="LNABLA"> F  </i>
   <i type="logical" name="LVEL"> F  </i>
   <i type="int" name="KINTER">     0</i>
   <i name="CSHIFT">      0.10000000</i>
   <i name="OMEGAMAX">     -1.00000000</i>
   <i name="DEG_THRESHOLD">      0.00200000</i>
   <i name="RTIME">     -0.10000000</i>
   <i name="WPLASMAI">      0.00000000</i>
   <v name="DFIELD">      0.00000000      0.00000000      0.00000000</v>
   <v name="WPLASMA">      0.00000000      0.00000000      0.00000000      0.00000000      0.00000000      0.00000000      0.00000000      0.00000000      0.00000000</v>
  </separator>
  <separator name="orbital magnetization" >
   <i type="logical" name="NUCIND"> F  </i>
   <v name="MAGPOS">      0.00000000      0.00000000      0.00000000</v>
   <i type="logical" name="LNICSALL"> T  </i>
   <i type="logical" name="ORBITALMAG"> F  </i>
   <i type="logical" name="LMAGBLOCH"> F  </i>
   <i type="logical" name="LCHIMAG"> F  </i>
   <i type="logical" name="LGAUGE"> T  </i>
   <i type="int" name="MAGATOM">     0</i>
   <v name="MAGDIPOL">      0.00000000      0.00000000      0.00000000</v>
   <v name="AVECCONST">      0.00000000      0.00000000      0.00000000</v>
  </separator>
  <separator name="response functions" >
   <i type="logical" name="LADDER"> F  </i>
   <i type="logical" name="LRPAFORCE"> F  </i>
   <i type="logical" name="LFXC"> F  </i>
   <i type="logical" name="LHARTREE"> T  </i>
   <i type="int" name="IBSE">     0</i>
   <v type="int" name="KPOINT">    -1     0     0     0</v>
   <i type="logical" name="LTCTE"> F  </i>
   <i type="logical" name="LTETE"> F  </i>
   <i type="logical" name="LTRIPLET"> F  </i>
   <i type="logical" name="LFXCEPS"> F  </i>
   <i type="logical" name="LFXHEG"> F  </i>
   <i type="int" name="NATURALO">     2</i>
   <i type="logical" name="L2ORDER"> F  </i>
   <i type="logical" name="LMP2LT"> F  </i>
   <i type="logical" name="LUSEW"> F  </i>
   <i name="ENCUTGW">     -2.00000000</i>
   <i name="ENCUTGWSOFT">     -2.00000000</i>
   <i name="ENCUTLF">     -1.00000000</i>
   <i type="int" name="LMAXMP2">    -1</i>
   <i name="SCISSOR">      0.00000000</i>
   <i type="int" name="NOMEGA">     0</i>
   <i type="int" name="NOMEGAR">     0</i>
   <i type="int" name="NBANDSGW">    -1</i>
   <i type="int" name="NBANDSO">    -1</i>
   <i type="int" name="NBANDSV">    -1</i>
   <i type="int" name="NELM">     1</i>
   <i type="int" name="NELMHF">     1</i>
   <i type="int" name="DIM">     3</i>
   <i type="int" name="ANTIRES">     0</i>
   <i name="OMEGAMAX">    -30.00000000</i>
   <i name="OMEGAMIN">    -30.00000000</i>
   <i name="OMEGATL">   -200.00000000</i>
   <i type="int" name="OMEGAGRID">   140</i>
   <i name="CSHIFT">     -0.10000000</i>
   <i type="logical" name="SELFENERGY"> F  </i>
   <i type="logical" name="LSPECTRAL"> F  </i>
   <i type="logical" name="LSPECTRALGW"> F  </i>
   <i type="logical" name="LSINGLES"> F  </i>
   <i type="logical" name="LFERMIGW"> F  </i>
   <i type="logical" name="ODDONLYGW"> F  </i>
   <i type="logical" name="EVENONLYGW"> F  </i>
   <i type="int" name="NKREDLFX">     1</i>
   <i type="int" name="NKREDLFY">     1</i>
   <i type="int" name="NKREDLFZ">     1</i>
   <i type="int" name="MAXMEM">  2800</i>
   <i type="int" name="TELESCOPE">     0</i>
   <i type="int" name="TAUPAR">     1</i>
   <i type="int" name="OMEGAPAR">    -1</i>
   <i name="LAMBDA">      1.00000000</i>
  </separator>
  <separator name="External order field" >
   <i name="OFIELD_KAPPA">      0.00000000</i>
   <v name="OFIELD_K">      0.00000000      0.00000000      0.00000000</v>
   <i name="OFIELD_Q6_NEAR">      0.00000000</i>
   <i name="OFIELD_Q6_FAR">      0.00000000</i>
   <i name="OFIELD_A">      0.00000000</i>
  </separator>
 </parameters>
 <atominfo>
  <atoms>       4 </atoms>
  <types>       1 </types>
  <array name="atoms" >
   <dimension dim="1">ion</dimension>
   <field type="string">element</field>
   <field type="int">atomtype</field>
   <set>
    <rc><c>C </c><c>   1</c></rc>
    <rc><c>C </c><c>   1</c></rc>
    <rc><c>C </c><c>   1</c></rc>
    <rc><c>C </c><c>   1</c></rc>
   </set>
  </array>
  <array name="atomtypes" >
   <dimension dim="1">type</dimension>
   <field type="int">atomspertype</field>
   <field type="string">element</field>
   <field>mass</field>
   <field>valence</field>
   <field type="string">pseudopotential</field>
   <set>
    <rc><c>   4</c><c>C </c><c>     12.01100000</c><c>      4.00000000</c><c> PAW_PBE C 08Apr2002                    </c></rc>
   </set>
  </array>
 </atominfo>
 <structure name="initialpos" >
  <crystal>
   <varray name="basis" >
    <v>       2.13000000      -1.22975600       0.00000000 </v>
    <v>       2.13000000       1.22975600       0.00000000 </v>
    <v>       0.00000000       0.00000000      20.00000000 </v>
   </varray>
   <i name="volume">    104.77521120 </i>
   <varray name="rec_basis" >
    <v>       0.23474178      -0.40658472       0.00000000 </v>
    <v>       0.23474178       0.40658472       0.00000000 </v>
    <v>       0.00000000       0.00000000       0.05000000 </v>
   </varray>
  </crystal>
  <varray name="positions" >
   <v>       0.00000000       0.00000000       0.00000000 </v>
   <v>       0.33333300       0.33333300       0.00000000 </v>
   <v>       0.00000000       0.00000000       0.22193400 </v>
   <v>       0.33333300       0.33333300       0.22193400 </v>
  </varray>
  <varray name="selective"  type="logical" >
   <v type="logical" >  F  F  F </v>
   <v type="logical" >  F  F  F </v>
   <v type="logical" >  F  F  T </v>
   <v type="logical" >  F  F  T </v>
  </varray>
  <nose>
   <v>      -3.00000000       0.00000000       0.00010000       0.00010000 </v>
  </nose>
 </structure>
 <calculation>
  <scstep>
   <time name="dav">    0.71    0.71</time>
   <time name="total">    0.74    0.76</time>
   <energy>
    <i name="alphaZ">     12.44266281 </i>
    <i name="ewald">   2473.15002607 </i>
    <i name="hartreedc">  -2997.51887033 </i>
    <i name="XCdc">     57.63671239 </i>
    <i name="pawpsdc">    279.84156608 </i>
    <i name="pawaedc">   -285.00257624 </i>
    <i name="eentropy">     -0.00009613 </i>
    <i name="bandstr">    -37.54017745 </i>
    <i name="atom">    588.61769381 </i>
    <i name="e_fr_energy">     91.62694100 </i>
    <i name="e_wo_entrp">     91.62703713 </i>
    <i name="e_0_energy">     91.62698907 </i>
   </energy>
  </scstep>
  <scstep>
   <time name="dav">    1.13    1.14</time>
   <time name="total">    1.13    1.14</time>
   <energy>
    <i name="e_fr_energy">    -28.35267514 </i>
    <i name="e_wo_entrp">    -28.35266087 </i>
    <i name="e_0_energy">    -28.35266800 </i>
   </energy>
  </scstep>
  <scstep>
   <time name="dav">    0.88    0.88</time>
   <time name="total">    0.88    0.88</time>
   <energy>
    <i name="e_fr_energy">    -34.63874926 </i>
    <i name="e_wo_entrp">    -34.63874926 </i>
    <i name="e_0_energy">    -34.63874926 </i>
   </energy>
  </scstep>
  <scstep>
   <time name="dav">    1.02    1.02</time>
   <time name="total">    1.02    1.02</time>
   <energy>
    <i name="e_fr_energy">    -34.71192913 </i>
    <i name="e_wo_entrp">    -34.71192913 </i>
    <i name="e_0_energy">    -34.71192913 </i>
   </energy>
  </scstep>
  <scstep>
   <time name="dav">    1.08    1.08</time>
   <time name="total">    1.08    1.08</time>
   <energy>
    <i name="e_fr_energy">    -34.71309960 </i>
    <i name="e_wo_entrp">    -34.71309960 </i>
    <i name="e_0_energy">    -34.71309960 </i>
   </energy>
  </scstep>
  <scstep>
   <time name="dav">    1.14    1.15</time>
   <time name="total">    1.14    1.15</time>
   <energy>
    <i name="e_fr_energy">    -34.71316235 </i>
    <i name="e_wo_entrp">    -34.71316235 </i>
    <i name="e_0_energy">    -34.71316235 </i>
   </energy>
  </scstep>
  <scstep>
   <time name="dav">    1.14    1.14</time>
   <time name="total">    1.14    1.14</time>
   <energy>
    <i name="e_fr_energy">    -34.71316589 </i>
    <i name="e_wo_entrp">    -34.71316589 </i>
    <i name="e_0_energy">    -34.71316589 </i>
   </energy>
  </scstep>
  <scstep>
   <time name="dav">    1.11    1.12</time>
   <time name="total">    1.11    1.12</time>
   <energy>
    <i name="e_fr_energy">    -34.71316617 </i>
    <i name="e_wo_entrp">    -34.71316617 </i>
    <i name="e_0_energy">    -34.71316617 </i>
   </energy>
  </scstep>
  <scstep>
   <time name="dav">    1.10    1.10</time>
   <time name="total">    1.10    1.10</time>
   <energy>
    <i name="alphaZ">     12.44266281 </i>
    <i name="ewald">   2473.15002607 </i>
    <i name="hartreedc">  -2997.51887033 </i>
    <i name="XCdc">     57.63671239 </i>
    <i name="pawpsdc">    279.84156608 </i>
    <i name="pawaedc">   -285.00257624 </i>
    <i name="eentropy">     -0.00000000 </i>
    <i name="bandstr">   -163.88038076 </i>
    <i name="atom">    588.61769381 </i>
    <i name="e_fr_energy">    -34.71316617 </i>
    <i name="e_wo_entrp">    -34.71316617 </i>
    <i name="e_0_energy">    -34.71316617 </i>
   </energy>
  </scstep>
  <structure>
   <crystal>
    <varray name="basis" >
     <v>       2.13000000      -1.22975600       0.00000000 </v>
     <v>       2.13000000       1.22975600       0.00000000 </v>
     <v>       0.00000000       0.00000000      20.00000000 </v>
    </varray>
    <i name="volume">    104.77521120 </i>
    <varray name="rec_basis" >
     <v>       0.23474178      -0.40658472       0.00000000 </v>
     <v>       0.23474178       0.40658472       0.00000000 </v>
     <v>       0.00000000       0.00000000       0.05000000 </v>
    </varray>
   </crystal>
   <varray name="positions" >
    <v>       0.00000000       0.00000000       0.00000000 </v>
    <v>       0.33333300       0.33333300       0.00000000 </v>
    <v>       0.00000000       0.00000000       0.22193400 </v>
    <v>       0.33333300       0.33333300       0.22193400 </v>
   </varray>
  </structure>
  <varray name="forces" >
   <v>       0.00000000       0.00000000       0.00132888 </v>
   <v>      -0.00000000      -0.00000000       0.00132888 </v>
   <v>      -0.00000000       0.00000000      -0.00132888 </v>
   <v>      -0.00000000      -0.00000000      -0.00132888 </v>
  </varray>
  <varray name="stress" >
   <v>      59.85893354       0.00000000       0.00000000 </v>
   <v>       0.00000000      59.85892640       0.00000000 </v>
   <v>       0.00000000      -0.00000000      23.20663590 </v>
  </varray>
  <energy>
   <i name="e_fr_energy">    -34.71316617 </i>
   <i name="e_wo_entrp">    -34.71316617 </i>
   <i name="e_0_energy">     -0.00000000 </i>
  </energy>
  <time name="totalsc">   10.03   10.12</time>
  <eigenvalues>
   <array>
    <dimension dim="1">band</dimension>
    <dimension dim="2">kpoint</dimension>
    <dimension dim="3">spin</dimension>
    <field>eigene</field>
    <field>occ</field>
    <set>
     <set comment="spin 1">
      <set comment="kpoint 1">
       <r>  -20.7948    1.0000 </r>
       <r>  -20.7831    1.0000 </r>
       <r>   -8.9733    1.0000 </r>
       <r>   -8.7915    1.0000 </r>
       <r>   -4.2421    1.0000 </r>
       <r>   -4.2420    1.0000 </r>
       <r>   -4.2416    1.0000 </r>
       <r>   -4.2415    1.0000 </r>
       <r>    1.9311    0.0000 </r>
       <r>    2.4901    0.0000 </r>
       <r>    3.1221    0.0000 </r>
       <r>    4.0112    0.0000 </r>
      </set>
      <set comment="kpoint 2">
       <r>  -20.7923    1.0000 </r>
       <r>  -20.7806    1.0000 </r>
       <r>   -8.9703    1.0000 </r>
       <r>   -8.7886    1.0000 </r>
       <r>   -4.2524    1.0000 </r>
       <r>   -4.2519    1.0000 </r>
       <r>   -4.2475    1.0000 </r>
       <r>   -4.2470    1.0000 </r>
       <r>    1.9344    0.0000 </r>
       <r>    2.4935    0.0000 </r>
       <r>    3.1254    0.0000 </r>
       <r>    4.0145    0.0000 </r>
      </set>
      <set comment="kpoint 3">
       <r>  -20.7849    1.0000 </r>
       <r>  -20.7732    1.0000 </r>
       <r>   -8.9614    1.0000 </r>
       <r>   -8.7797    1.0000 </r>
       <r>   -4.2833    1.0000 </r>
       <r>   -4.2827    1.0000 </r>
       <r>   -4.2639    1.0000 </r>
       <r>   -4.2634    1.0000 </r>
       <r>    1.9443    0.0000 </r>
       <r>    2.5035    0.0000 </r>
       <r>    3.1355    0.0000 </r>
       <r>    4.0245    0.0000 </r>
      </set>
      <set comment="kpoint 4">
       <r>  -20.7726    1.0000 </r>
       <r>  -20.7608    1.0000 </r>
       <r>   -8.9466    1.0000 </r>
       <r>   -8.7650    1.0000 </r>
       <r>   -4.3344    1.0000 </r>
       <r>   -4.3338    1.0000 </r>
       <r>   -4.2910    1.0000 </r>
       <r>   -4.2905    1.0000 </r>
       <r>    1.9609    0.0000 </r>
       <r>    2.5204    0.0000 </r>
       <r>    3.1524    0.0000 </r>
       <r>    4.0411    0.0000 </r>
      </set>
      <set comment="kpoint 5">
       <r>  -20.7552    1.0000 </r>
       <r>  -20.7435    1.0000 </r>
       <r>   -8.9258    1.0000 </r>
       <r>   -8.7444    1.0000 </r>
       <r>   -4.4052    1.0000 </r>
       <r>   -4.4046    1.0000 </r>
       <r>   -4.3284    1.0000 </r>
       <r>   -4.3279    1.0000 </r>
       <r>    1.9840    0.0000 </r>
       <r>    2.5439    0.0000 </r>
       <r>    3.1759    0.0000 </r>
       <r>    4.0644    0.0000 </r>
      </set>
      <set comment="kpoint 6">
       <r>  -20.7330    1.0000 </r>
       <r>  -20.7213    1.0000 </r>
       <r>   -8.8991    1.0000 </r>
       <r>   -8.7179    1.0000 </r>
       <r>   -4.4951    1.0000 </r>
       <r>   -4.4944    1.0000 </r>
       <r>   -4.3757    1.0000 </r>
       <r>   -4.3752    1.0000 </r>
       <r>    2.0138    0.0000 </r>
       <r>    2.5741    0.0000 </r>
       <r>    3.2062    0.0000 </r>
       <r>    4.0943    0.0000 </r>
      </set>
      <set comment="kpoint 7">
       <r>  -20.7058    1.0000 </r>
       <r>  -20.6941    1.0000 </r>
       <r>   -8.8664    1.0000 </r>
       <r>   -8.6855    1.0000 </r>
       <r>   -4.6033    1.0000 </r>
       <r>   -4.6025    1.0000 </r>
       <r>   -4.4323    1.0000 </r>
       <r>   -4.4317    1.0000 </r>
       <r>    2.0502    0.0000 </r>
       <r>    2.6111    0.0000 </r>
       <r>    3.2433    0.0000 </r>
       <r>    4.1308    0.0000 </r>
      </set>
      <set comment="kpoint 8">
       <r>  -20.6737    1.0000 </r>
       <r>  -20.6620    1.0000 </r>
       <r>   -8.8279    1.0000 </r>
       <r>   -8.6473    1.0000 </r>
       <r>   -4.7287    1.0000 </r>
       <r>   -4.7279    1.0000 </r>
       <r>   -4.4974    1.0000 </r>
       <r>   -4.4968    1.0000 </r>
       <r>    2.0932    0.0000 </r>
       <r>    2.6548    0.0000 </r>
       <r>    3.2870    0.0000 </r>
       <r>    4.1740    0.0000 </r>
      </set>
      <set comment="kpoint 9">
       <r>  -20.6366    1.0000 </r>
       <r>  -20.6250    1.0000 </r>
       <r>   -8.7834    1.0000 </r>
       <r>   -8.6032    1.0000 </r>
       <r>   -4.8705    1.0000 </r>
       <r>   -4.8696    1.0000 </r>
       <r>   -4.5705    1.0000 </r>
       <r>   -4.5698    1.0000 </r>
       <r>    2.1429    0.0000 </r>
       <r>    2.7052    0.0000 </r>
       <r>    3.3375    0.0000 </r>
       <r>    4.2238    0.0000 </r>
      </set>
      <set comment="kpoint 10">
       <r>  -20.5946    1.0000 </r>
       <r>  -20.5831    1.0000 </r>
       <r>   -8.7331    1.0000 </r>
       <r>   -8.5533    1.0000 </r>
       <r>   -5.0276    1.0000 </r>
       <r>   -5.0266    1.0000 </r>
       <r>   -4.6506    1.0000 </r>
       <r>   -4.6499    1.0000 </r>
       <r>    2.1992    0.0000 </r>
       <r>    2.7624    0.0000 </r>
       <r>    3.3947    0.0000 </r>
       <r>    4.2803    0.0000 </r>
      </set>
      <set comment="kpoint 11">
       <r>  -20.5477    1.0000 </r>
       <r>  -20.5362    1.0000 </r>
       <r>   -8.6770    1.0000 </r>
       <r>   -8.4977    1.0000 </r>
       <r>   -5.1988    1.0000 </r>
       <r>   -5.1977    1.0000 </r>
       <r>   -4.7371    1.0000 </r>
       <r>   -4.7364    1.0000 </r>
       <r>    2.2621    0.0000 </r>
       <r>    2.8262    0.0000 </r>
       <r>    3.4586    0.0000 </r>
       <r>    4.3433    0.0000 </r>
      </set>
      <set comment="kpoint 12">
       <r>  -20.4959    1.0000 </r>
       <r>  -20.4845    1.0000 </r>
       <r>   -8.6150    1.0000 </r>
       <r>   -8.4362    1.0000 </r>
       <r>   -5.3830    1.0000 </r>
       <r>   -5.3818    1.0000 </r>
       <r>   -4.8290    1.0000 </r>
       <r>   -4.8283    1.0000 </r>
       <r>    2.3316    0.0000 </r>
       <r>    2.8968    0.0000 </r>
       <r>    3.5292    0.0000 </r>
       <r>    4.4129    0.0000 </r>
      </set>
      <set comment="kpoint 13">
       <r>  -20.4392    1.0000 </r>
       <r>  -20.4278    1.0000 </r>
       <r>   -8.5472    1.0000 </r>
       <r>   -8.3690    1.0000 </r>
       <r>   -5.5791    1.0000 </r>
       <r>   -5.5778    1.0000 </r>
       <r>   -4.9257    1.0000 </r>
       <r>   -4.9250    1.0000 </r>
       <r>    2.4077    0.0000 </r>
       <r>    2.9740    0.0000 </r>
       <r>    3.6065    0.0000 </r>
       <r>    4.4892    0.0000 </r>
      </set>
      <set comment="kpoint 14">
       <r>  -20.3776    1.0000 </r>
       <r>  -20.3663    1.0000 </r>
       <r>   -8.4736    1.0000 </r>
       <r>   -8.2960    1.0000 </r>
       <r>   -5.7860    1.0000 </r>
       <r>   -5.7846    1.0000 </r>
       <r>   -5.0265    1.0000 </r>
       <r>   -5.0257    1.0000 </r>
       <r>    2.4905    0.0000 </r>
       <r>    3.0579    0.0000 </r>
       <r>    3.6905    0.0000 </r>
       <r>    4.5720    0.0000 </r>
      </set>
      <set comment="kpoint 15">
       <r>  -20.3112    1.0000 </r>
       <r>  -20.2999    1.0000 </r>
       <r>   -8.3943    1.0000 </r>
       <r>   -8.2174    1.0000 </r>
       <r>   -6.0028    1.0000 </r>
       <r>   -6.0012    1.0000 </r>
       <r>   -5.1305    1.0000 </r>
       <r>   -5.1297    1.0000 </r>
       <r>    2.5798    0.0000 </r>
       <r>    3.1486    0.0000 </r>
       <r>    3.7812    0.0000 </r>
       <r>    4.6613    0.0000 </r>
      </set>
      <set comment="kpoint 16">
       <r>  -20.2398    1.0000 </r>
       <r>  -20.2286    1.0000 </r>
       <r>   -8.3093    1.0000 </r>
       <r>   -8.1331    1.0000 </r>
       <r>   -6.2283    1.0000 </r>
       <r>   -6.2266    1.0000 </r>
       <r>   -5.2370    1.0000 </r>
       <r>   -5.2362    1.0000 </r>
       <r>    2.6758    0.0000 </r>
       <r>    3.2459    0.0000 </r>
       <r>    3.8786    0.0000 </r>
       <r>    4.7571    0.0000 </r>
      </set>
      <set comment="kpoint 17">
       <r>  -20.1636    1.0000 </r>
       <r>  -20.1525    1.0000 </r>
       <r>   -8.2187    1.0000 </r>
       <r>   -8.0432    1.0000 </r>
       <r>   -6.4616    1.0000 </r>
       <r>   -6.4599    1.0000 </r>
       <r>   -5.3454    1.0000 </r>
       <r>   -5.3446    1.0000 </r>
       <r>    2.7783    0.0000 </r>
       <r>    3.3498    0.0000 </r>
       <r>    3.9825    0.0000 </r>
       <r>    4.8593    0.0000 </r>
      </set>
      <set comment="kpoint 18">
       <r>  -20.0826    1.0000 </r>
       <r>  -20.0715    1.0000 </r>
       <r>   -8.1224    1.0000 </r>
       <r>   -7.9478    1.0000 </r>
       <r>   -6.7020    1.0000 </r>
       <r>   -6.7001    1.0000 </r>
       <r>   -5.4551    1.0000 </r>
       <r>   -5.4543    1.0000 </r>
       <r>    2.8875    0.0000 </r>
       <r>    3.4604    0.0000 </r>
       <r>    4.0931    0.0000 </r>
       <r>    4.9679    0.0000 </r>
      </set>
      <set comment="kpoint 19">
       <r>  -19.9967    1.0000 </r>
       <r>  -19.9857    1.0000 </r>
       <r>   -8.0205    1.0000 </r>
       <r>   -7.8468    1.0000 </r>
       <r>   -6.9484    1.0000 </r>
       <r>   -6.9464    1.0000 </r>
       <r>   -5.5655    1.0000 </r>
       <r>   -5.5647    1.0000 </r>
       <r>    3.0032    0.0000 </r>
       <r>    3.5776    0.0000 </r>
       <r>    4.2102    0.0000 </r>
       <r>    5.0828    0.0000 </r>
      </set>
      <set comment="kpoint 20">
       <r>  -19.9061    1.0000 </r>
       <r>  -19.8951    1.0000 </r>
       <r>   -7.9131    1.0000 </r>
       <r>   -7.7405    1.0000 </r>
       <r>   -7.2001    1.0000 </r>
       <r>   -7.1980    1.0000 </r>
       <r>   -5.6761    1.0000 </r>
       <r>   -5.6752    1.0000 </r>
       <r>    3.1254    0.0000 </r>
       <r>    3.7014    0.0000 </r>
       <r>    4.3338    0.0000 </r>
       <r>    5.2036    0.0000 </r>
      </set>
      <set comment="kpoint 21">
       <r>  -19.8106    1.0000 </r>
       <r>  -19.7998    1.0000 </r>
       <r>   -7.8003    1.0000 </r>
       <r>   -7.6287    1.0000 </r>
       <r>   -7.4564    1.0000 </r>
       <r>   -7.4542    1.0000 </r>
       <r>   -5.7864    1.0000 </r>
       <r>   -5.7855    1.0000 </r>
       <r>    3.2542    0.0000 </r>
       <r>    3.8317    0.0000 </r>
       <r>    4.4638    0.0000 </r>
       <r>    5.3302    0.0000 </r>
      </set>
      <set comment="kpoint 22">
       <r>  -19.7104    1.0000 </r>
       <r>  -19.6996    1.0000 </r>
       <r>   -7.7167    1.0000 </r>
       <r>   -7.7143    1.0000 </r>
       <r>   -7.6821    1.0000 </r>
       <r>   -7.5116    1.0000 </r>
       <r>   -5.8960    1.0000 </r>
       <r>   -5.8950    1.0000 </r>
       <r>    3.3896    0.0000 </r>
       <r>    3.9685    0.0000 </r>
       <r>    4.6001    0.0000 </r>
       <r>    5.4617    0.0000 </r>
      </set>
      <set comment="kpoint 23">
       <r>  -19.6054    1.0000 </r>
       <r>  -19.5947    1.0000 </r>
       <r>   -7.9802    1.0000 </r>
       <r>   -7.9777    1.0000 </r>
       <r>   -7.5586    1.0000 </r>
       <r>   -7.3892    1.0000 </r>
       <r>   -6.0043    1.0000 </r>
       <r>   -6.0034    1.0000 </r>
       <r>    3.5314    0.0000 </r>
       <r>    4.1117    0.0000 </r>
       <r>    4.7422    0.0000 </r>
       <r>    5.5963    0.0000 </r>
      </set>
      <set comment="kpoint 24">
       <r>  -19.4956    1.0000 </r>
       <r>  -19.4851    1.0000 </r>
       <r>   -8.2464    1.0000 </r>
       <r>   -8.2437    1.0000 </r>
       <r>   -7.4299    1.0000 </r>
       <r>   -7.2618    1.0000 </r>
       <r>   -6.1111    1.0000 </r>
       <r>   -6.1102    1.0000 </r>
       <r>    3.6797    0.0000 </r>
       <r>    4.2610    0.0000 </r>
       <r>    4.8896    0.0000 </r>
       <r>    5.7288    0.0000 </r>
      </set>
      <set comment="kpoint 25">
       <r>  -19.3812    1.0000 </r>
       <r>  -19.3708    1.0000 </r>
       <r>   -8.5147    1.0000 </r>
       <r>   -8.5119    1.0000 </r>
       <r>   -7.2961    1.0000 </r>
       <r>   -7.1293    1.0000 </r>
       <r>   -6.2160    1.0000 </r>
       <r>   -6.2151    1.0000 </r>
       <r>    3.8344    0.0000 </r>
       <r>    4.4162    0.0000 </r>
       <r>    5.0407    0.0000 </r>
       <r>    5.8354    0.0000 </r>
      </set>
      <set comment="kpoint 26">
       <r>  -19.2621    1.0000 </r>
       <r>  -19.2518    1.0000 </r>
       <r>   -8.7847    1.0000 </r>
       <r>   -8.7817    1.0000 </r>
       <r>   -7.1573    1.0000 </r>
       <r>   -6.9919    1.0000 </r>
       <r>   -6.3187    1.0000 </r>
       <r>   -6.3177    1.0000 </r>
       <r>    3.9956    0.0000 </r>
       <r>    4.5764    0.0000 </r>
       <r>    5.1898    0.0000 </r>
       <r>    5.8105    0.0000 </r>
      </set>
      <set comment="kpoint 27">
       <r>  -19.1383    1.0000 </r>
       <r>  -19.1281    1.0000 </r>
       <r>   -9.0558    1.0000 </r>
       <r>   -9.0527    1.0000 </r>
       <r>   -7.0136    1.0000 </r>
       <r>   -6.8498    1.0000 </r>
       <r>   -6.4189    1.0000 </r>
       <r>   -6.4179    1.0000 </r>
       <r>    4.1630    0.0000 </r>
       <r>    4.7396    0.0000 </r>
       <r>    5.3039    0.0000 </r>
       <r>    5.6510    0.0000 </r>
      </set>
      <set comment="kpoint 28">
       <r>  -19.0100    1.0000 </r>
       <r>  -18.9999    1.0000 </r>
       <r>   -9.3277    1.0000 </r>
       <r>   -9.3245    1.0000 </r>
       <r>   -6.8653    1.0000 </r>
       <r>   -6.7030    1.0000 </r>
       <r>   -6.5163    1.0000 </r>
       <r>   -6.5153    1.0000 </r>
       <r>    4.3366    0.0000 </r>
       <r>    4.8968    0.0000 </r>
       <r>    5.2217    0.0000 </r>
       <r>    5.4480    0.0000 </r>
      </set>
      <set comment="kpoint 29">
       <r>  -18.8770    1.0000 </r>
       <r>  -18.8670    1.0000 </r>
       <r>   -9.5999    1.0000 </r>
       <r>   -9.5965    1.0000 </r>
       <r>   -6.7124    1.0000 </r>
       <r>   -6.6107    1.0000 </r>
       <r>   -6.6097    1.0000 </r>
       <r>   -6.5517    1.0000 </r>
       <r>    4.5154    0.0000 </r>
       <r>    4.9742    0.0000 </r>
       <r>    4.9814    0.0000 </r>
       <r>    5.2693    0.0000 </r>
      </set>
      <set comment="kpoint 30">
       <r>  -18.7395    1.0000 </r>
       <r>  -18.7296    1.0000 </r>
       <r>   -9.8720    1.0000 </r>
       <r>   -9.8685    1.0000 </r>
       <r>   -6.7019    1.0000 </r>
       <r>   -6.7009    1.0000 </r>
       <r>   -6.5551    1.0000 </r>
       <r>   -6.3962    1.0000 </r>
       <r>    4.6681    0.0000 </r>
       <r>    4.7427    0.0000 </r>
       <r>    4.7930    0.0000 </r>
       <r>    5.3546    0.0000 </r>
      </set>
      <set comment="kpoint 31">
       <r>  -18.5975    1.0000 </r>
       <r>  -18.5878    1.0000 </r>
       <r>  -10.1437    1.0000 </r>
       <r>  -10.1401    1.0000 </r>
       <r>   -6.7897    1.0000 </r>
       <r>   -6.7886    1.0000 </r>
       <r>   -6.3937    1.0000 </r>
       <r>   -6.2367    1.0000 </r>
       <r>    4.4218    0.0000 </r>
       <r>    4.5268    0.0000 </r>
       <r>    4.9005    0.0000 </r>
       <r>    5.5307    0.0000 </r>
      </set>
      <set comment="kpoint 32">
       <r>  -18.4510    1.0000 </r>
       <r>  -18.4415    1.0000 </r>
       <r>  -10.4147    1.0000 </r>
       <r>  -10.4109    1.0000 </r>
       <r>   -6.8738    1.0000 </r>
       <r>   -6.8728    1.0000 </r>
       <r>   -6.2285    1.0000 </r>
       <r>   -6.0735    1.0000 </r>
       <r>    4.1391    0.0000 </r>
       <r>    4.2484    0.0000 </r>
       <r>    5.0976    0.0000 </r>
       <r>    5.7249    0.0000 </r>
      </set>
      <set comment="kpoint 33">
       <r>  -18.3002    1.0000 </r>
       <r>  -18.2907    1.0000 </r>
       <r>  -10.6846    1.0000 </r>
       <r>  -10.6806    1.0000 </r>
       <r>   -6.9542    1.0000 </r>
       <r>   -6.9531    1.0000 </r>
       <r>   -6.0597    1.0000 </r>
       <r>   -5.9068    1.0000 </r>
       <r>    3.8547    0.0000 </r>
       <r>    3.9675    0.0000 </r>
       <r>    5.3013    0.0000 </r>
       <r>    5.9276    0.0000 </r>
      </set>
      <set comment="kpoint 34">
       <r>  -18.1451    1.0000 </r>
       <r>  -18.1357    1.0000 </r>
       <r>  -10.9532    1.0000 </r>
       <r>  -10.9491    1.0000 </r>
       <r>   -7.0307    1.0000 </r>
       <r>   -7.0296    1.0000 </r>
       <r>   -5.8878    1.0000 </r>
       <r>   -5.7371    1.0000 </r>
       <r>    3.5708    0.0000 </r>
       <r>    3.6870    0.0000 </r>
       <r>    5.5102    0.0000 </r>
       <r>    6.1336    0.0000 </r>
      </set>
      <set comment="kpoint 35">
       <r>  -17.9857    1.0000 </r>
       <r>  -17.9765    1.0000 </r>
       <r>  -11.2201    1.0000 </r>
       <r>  -11.2158    1.0000 </r>
       <r>   -7.1031    1.0000 </r>
       <r>   -7.1021    1.0000 </r>
       <r>   -5.7131    1.0000 </r>
       <r>   -5.5647    1.0000 </r>
       <r>    3.2886    0.0000 </r>
       <r>    3.4083    0.0000 </r>
       <r>    5.7230    0.0000 </r>
       <r>    6.3280    0.0000 </r>
      </set>
      <set comment="kpoint 36">
       <r>  -17.8221    1.0000 </r>
       <r>  -17.8130    1.0000 </r>
       <r>  -11.4851    1.0000 </r>
       <r>  -11.4806    1.0000 </r>
       <r>   -7.1714    1.0000 </r>
       <r>   -7.1703    1.0000 </r>
       <r>   -5.5362    1.0000 </r>
       <r>   -5.3903    1.0000 </r>
       <r>    3.0093    0.0000 </r>
       <r>    3.1325    0.0000 </r>
       <r>    5.9362    0.0000 </r>
       <r>    6.4375    0.0000 </r>
      </set>
      <set comment="kpoint 37">
       <r>  -17.6545    1.0000 </r>
       <r>  -17.6456    1.0000 </r>
       <r>  -11.7478    1.0000 </r>
       <r>  -11.7431    1.0000 </r>
       <r>   -7.2354    1.0000 </r>
       <r>   -7.2343    1.0000 </r>
       <r>   -5.3577    1.0000 </r>
       <r>   -5.2144    1.0000 </r>
       <r>    2.7340    0.0000 </r>
       <r>    2.8609    0.0000 </r>
       <r>    6.1383    0.0000 </r>
       <r>    6.4366    0.0000 </r>
      </set>
      <set comment="kpoint 38">
       <r>  -17.4830    1.0000 </r>
       <r>  -17.4742    1.0000 </r>
       <r>  -12.0080    1.0000 </r>
       <r>  -12.0032    1.0000 </r>
       <r>   -7.2949    1.0000 </r>
       <r>   -7.2938    1.0000 </r>
       <r>   -5.1783    1.0000 </r>
       <r>   -5.0379    1.0000 </r>
       <r>    2.4638    0.0000 </r>
       <r>    2.5946    0.0000 </r>
       <r>    6.2858    0.0000 </r>
       <r>    6.4374    0.0000 </r>
      </set>
      <set comment="kpoint 39">
       <r>  -17.3077    1.0000 </r>
       <r>  -17.2990    1.0000 </r>
       <r>  -12.2653    1.0000 </r>
       <r>  -12.2603    1.0000 </r>
       <r>   -7.3501    1.0000 </r>
       <r>   -7.3490    1.0000 </r>
       <r>   -4.9991    1.0000 </r>
       <r>   -4.8617    1.0000 </r>
       <r>    2.2000    0.0000 </r>
       <r>    2.3347    0.0000 </r>
       <r>    6.3322    0.0000 </r>
       <r>    6.3909    0.0000 </r>
      </set>
      <set comment="kpoint 40">
       <r>  -17.1289    1.0000 </r>
       <r>  -17.1204    1.0000 </r>
       <r>  -12.5194    1.0000 </r>
       <r>  -12.5143    1.0000 </r>
       <r>   -7.4007    1.0000 </r>
       <r>   -7.3996    1.0000 </r>
       <r>   -4.8212    1.0000 </r>
       <r>   -4.6869    1.0000 </r>
       <r>    1.9439    0.0000 </r>
       <r>    2.0827    0.0000 </r>
       <r>    6.3311    0.0000 </r>
       <r>    6.3684    0.0000 </r>
      </set>
      <set comment="kpoint 41">
       <r>  -16.9469    1.0000 </r>
       <r>  -16.9385    1.0000 </r>
       <r>  -12.7699    1.0000 </r>
       <r>  -12.7647    1.0000 </r>
       <r>   -7.4466    1.0000 </r>
       <r>   -7.4455    1.0000 </r>
       <r>   -4.6460    1.0000 </r>
       <r>   -4.5150    1.0000 </r>
       <r>    1.6974    0.0000 </r>
       <r>    1.8404    0.0000 </r>
       <r>    6.3183    0.0000 </r>
       <r>    6.3466    0.0000 </r>
      </set>
      <set comment="kpoint 42">
       <r>  -16.7621    1.0000 </r>
       <r>  -16.7539    1.0000 </r>
       <r>  -13.0162    1.0000 </r>
       <r>  -13.0108    1.0000 </r>
       <r>   -7.4879    1.0000 </r>
       <r>   -7.4868    1.0000 </r>
       <r>   -4.4753    1.0000 </r>
       <r>   -4.3478    1.0000 </r>
       <r>    1.4623    0.0000 </r>
       <r>    1.6096    0.0000 </r>
       <r>    6.3029    0.0000 </r>
       <r>    6.3268    0.0000 </r>
      </set>
      <set comment="kpoint 43">
       <r>  -16.5752    1.0000 </r>
       <r>  -16.5671    1.0000 </r>
       <r>  -13.2577    1.0000 </r>
       <r>  -13.2522    1.0000 </r>
       <r>   -7.5245    1.0000 </r>
       <r>   -7.5233    1.0000 </r>
       <r>   -4.3113    1.0000 </r>
       <r>   -4.1875    1.0000 </r>
       <r>    1.2411    0.0000 </r>
       <r>    1.3927    0.0000 </r>
       <r>    6.2875    0.0000 </r>
       <r>    6.3090    0.0000 </r>
      </set>
      <set comment="kpoint 44">
       <r>  -16.3870    1.0000 </r>
       <r>  -16.3791    1.0000 </r>
       <r>  -13.4933    1.0000 </r>
       <r>  -13.4876    1.0000 </r>
       <r>   -7.5562    1.0000 </r>
       <r>   -7.5551    1.0000 </r>
       <r>   -4.1569    1.0000 </r>
       <r>   -4.0367    1.0000 </r>
       <r>    1.0367    0.0000 </r>
       <r>    1.1927    0.0000 </r>
       <r>    6.2733    0.0000 </r>
       <r>    6.2934    0.0000 </r>
      </set>
      <set comment="kpoint 45">
       <r>  -16.1992    1.0000 </r>
       <r>  -16.1914    1.0000 </r>
       <r>  -13.7213    1.0000 </r>
       <r>  -13.7155    1.0000 </r>
       <r>   -7.5832    1.0000 </r>
       <r>   -7.5821    1.0000 </r>
       <r>   -4.0152    1.0000 </r>
       <r>   -3.8987    1.0000 </r>
       <r>    0.8525    0.0000 </r>
       <r>    1.0128    0.0000 </r>
       <r>    6.2608    0.0000 </r>
       <r>    6.2800    0.0000 </r>
      </set>
      <set comment="kpoint 46">
       <r>  -16.0146    1.0000 </r>
       <r>  -16.0069    1.0000 </r>
       <r>  -13.9389    1.0000 </r>
       <r>  -13.9330    1.0000 </r>
       <r>   -7.6053    1.0000 </r>
       <r>   -7.6041    1.0000 </r>
       <r>   -3.8901    1.0000 </r>
       <r>   -3.7773    1.0000 </r>
       <r>    0.6926    0.0000 </r>
       <r>    0.8569    0.0000 </r>
       <r>    6.2504    0.0000 </r>
       <r>    6.2690    0.0000 </r>
      </set>
      <set comment="kpoint 47">
       <r>  -15.8383    1.0000 </r>
       <r>  -15.8307    1.0000 </r>
       <r>  -14.1410    1.0000 </r>
       <r>  -14.1349    1.0000 </r>
       <r>   -7.6225    1.0000 </r>
       <r>   -7.6213    1.0000 </r>
       <r>   -3.7861    1.0000 </r>
       <r>   -3.6764    1.0000 </r>
       <r>    0.5613    0.0000 </r>
       <r>    0.7292    0.0000 </r>
       <r>    6.2421    0.0000 </r>
       <r>    6.2603    0.0000 </r>
      </set>
      <set comment="kpoint 48">
       <r>  -15.6806    1.0000 </r>
       <r>  -15.6731    1.0000 </r>
       <r>  -14.3170    1.0000 </r>
       <r>  -14.3108    1.0000 </r>
       <r>   -7.6348    1.0000 </r>
       <r>   -7.6337    1.0000 </r>
       <r>   -3.7076    1.0000 </r>
       <r>   -3.6005    1.0000 </r>
       <r>    0.4633    0.0000 </r>
       <r>    0.6341    0.0000 </r>
       <r>    6.2362    0.0000 </r>
       <r>    6.2541    0.0000 </r>
      </set>
      <set comment="kpoint 49">
       <r>  -15.5625    1.0000 </r>
       <r>  -15.5551    1.0000 </r>
       <r>  -14.4461    1.0000 </r>
       <r>  -14.4399    1.0000 </r>
       <r>   -7.6422    1.0000 </r>
       <r>   -7.6410    1.0000 </r>
       <r>   -3.6586    1.0000 </r>
       <r>   -3.5531    1.0000 </r>
       <r>    0.4025    0.0000 </r>
       <r>    0.5751    0.0000 </r>
       <r>    6.2325    0.0000 </r>
       <r>    6.2504    0.0000 </r>
      </set>
      <set comment="kpoint 50">
       <r>  -15.5165    1.0000 </r>
       <r>  -15.5091    1.0000 </r>
       <r>  -14.4958    1.0000 </r>
       <r>  -14.4896    1.0000 </r>
       <r>   -7.6446    1.0000 </r>
       <r>   -7.6435    1.0000 </r>
       <r>   -3.6419    1.0000 </r>
       <r>   -3.5370    1.0000 </r>
       <r>    0.3819    0.0000 </r>
       <r>    0.5552    0.0000 </r>
       <r>    6.2314    0.0000 </r>
       <r>    6.2492    0.0000 </r>
      </set>
      <set comment="kpoint 51">
       <r>  -15.5165    1.0000 </r>
       <r>  -15.5091    1.0000 </r>
       <r>  -14.4958    1.0000 </r>
       <r>  -14.4896    1.0000 </r>
       <r>   -7.6446    1.0000 </r>
       <r>   -7.6435    1.0000 </r>
       <r>   -3.6419    1.0000 </r>
       <r>   -3.5370    1.0000 </r>
       <r>    0.3819    0.0000 </r>
       <r>    0.5552    0.0000 </r>
       <r>    6.2314    0.0000 </r>
       <r>    6.2492    0.0000 </r>
      </set>
      <set comment="kpoint 52">
       <r>  -15.5158    1.0000 </r>
       <r>  -15.5084    1.0000 </r>
       <r>  -14.4951    1.0000 </r>
       <r>  -14.4889    1.0000 </r>
       <r>   -7.6484    1.0000 </r>
       <r>   -7.6472    1.0000 </r>
       <r>   -3.6409    1.0000 </r>
       <r>   -3.5360    1.0000 </r>
       <r>    0.3817    0.0000 </r>
       <r>    0.5549    0.0000 </r>
       <r>    6.2364    0.0000 </r>
       <r>    6.2542    0.0000 </r>
      </set>
      <set comment="kpoint 53">
       <r>  -15.5137    1.0000 </r>
       <r>  -15.5063    1.0000 </r>
       <r>  -14.4930    1.0000 </r>
       <r>  -14.4868    1.0000 </r>
       <r>   -7.6596    1.0000 </r>
       <r>   -7.6584    1.0000 </r>
       <r>   -3.6378    1.0000 </r>
       <r>   -3.5330    1.0000 </r>
       <r>    0.3812    0.0000 </r>
       <r>    0.5541    0.0000 </r>
       <r>    6.2514    0.0000 </r>
       <r>    6.2693    0.0000 </r>
      </set>
      <set comment="kpoint 54">
       <r>  -15.5102    1.0000 </r>
       <r>  -15.5027    1.0000 </r>
       <r>  -14.4895    1.0000 </r>
       <r>  -14.4832    1.0000 </r>
       <r>   -7.6782    1.0000 </r>
       <r>   -7.6770    1.0000 </r>
       <r>   -3.6328    1.0000 </r>
       <r>   -3.5280    1.0000 </r>
       <r>    0.3802    0.0000 </r>
       <r>    0.5528    0.0000 </r>
       <r>    6.2765    0.0000 </r>
       <r>    6.2945    0.0000 </r>
      </set>
      <set comment="kpoint 55">
       <r>  -15.5052    1.0000 </r>
       <r>  -15.4978    1.0000 </r>
       <r>  -14.4846    1.0000 </r>
       <r>  -14.4783    1.0000 </r>
       <r>   -7.7040    1.0000 </r>
       <r>   -7.7029    1.0000 </r>
       <r>   -3.6258    1.0000 </r>
       <r>   -3.5210    1.0000 </r>
       <r>    0.3788    0.0000 </r>
       <r>    0.5509    0.0000 </r>
       <r>    6.3114    0.0000 </r>
       <r>    6.3296    0.0000 </r>
      </set>
      <set comment="kpoint 56">
       <r>  -15.4989    1.0000 </r>
       <r>  -15.4915    1.0000 </r>
       <r>  -14.4782    1.0000 </r>
       <r>  -14.4720    1.0000 </r>
       <r>   -7.7371    1.0000 </r>
       <r>   -7.7359    1.0000 </r>
       <r>   -3.6167    1.0000 </r>
       <r>   -3.5120    1.0000 </r>
       <r>    0.3770    0.0000 </r>
       <r>    0.5484    0.0000 </r>
       <r>    6.3560    0.0000 </r>
       <r>    6.3744    0.0000 </r>
      </set>
      <set comment="kpoint 57">
       <r>  -15.4911    1.0000 </r>
       <r>  -15.4837    1.0000 </r>
       <r>  -14.4705    1.0000 </r>
       <r>  -14.4643    1.0000 </r>
       <r>   -7.7772    1.0000 </r>
       <r>   -7.7759    1.0000 </r>
       <r>   -3.6056    1.0000 </r>
       <r>   -3.5009    1.0000 </r>
       <r>    0.3748    0.0000 </r>
       <r>    0.5453    0.0000 </r>
       <r>    6.4102    0.0000 </r>
       <r>    6.4289    0.0000 </r>
      </set>
      <set comment="kpoint 58">
       <r>  -15.4819    1.0000 </r>
       <r>  -15.4745    1.0000 </r>
       <r>  -14.4614    1.0000 </r>
       <r>  -14.4552    1.0000 </r>
       <r>   -7.8241    1.0000 </r>
       <r>   -7.8228    1.0000 </r>
       <r>   -3.5926    1.0000 </r>
       <r>   -3.4879    1.0000 </r>
       <r>    0.3721    0.0000 </r>
       <r>    0.5416    0.0000 </r>
       <r>    6.4738    0.0000 </r>
       <r>    6.4929    0.0000 </r>
      </set>
      <set comment="kpoint 59">
       <r>  -15.4713    1.0000 </r>
       <r>  -15.4640    1.0000 </r>
       <r>  -14.4509    1.0000 </r>
       <r>  -14.4447    1.0000 </r>
       <r>   -7.8776    1.0000 </r>
       <r>   -7.8763    1.0000 </r>
       <r>   -3.5775    1.0000 </r>
       <r>   -3.4728    1.0000 </r>
       <r>    0.3688    0.0000 </r>
       <r>    0.5373    0.0000 </r>
       <r>    6.5465    0.0000 </r>
       <r>    6.5660    0.0000 </r>
      </set>
      <set comment="kpoint 60">
       <r>  -15.4594    1.0000 </r>
       <r>  -15.4520    1.0000 </r>
       <r>  -14.4390    1.0000 </r>
       <r>  -14.4328    1.0000 </r>
       <r>   -7.9376    1.0000 </r>
       <r>   -7.9362    1.0000 </r>
       <r>   -3.5603    1.0000 </r>
       <r>   -3.4558    1.0000 </r>
       <r>    0.3650    0.0000 </r>
       <r>    0.5321    0.0000 </r>
       <r>    6.6281    0.0000 </r>
       <r>    6.6480    0.0000 </r>
      </set>
      <set comment="kpoint 61">
       <r>  -15.4460    1.0000 </r>
       <r>  -15.4386    1.0000 </r>
       <r>  -14.4258    1.0000 </r>
       <r>  -14.4196    1.0000 </r>
       <r>   -8.0036    1.0000 </r>
       <r>   -8.0022    1.0000 </r>
       <r>   -3.5412    1.0000 </r>
       <r>   -3.4368    1.0000 </r>
       <r>    0.3605    0.0000 </r>
       <r>    0.5263    0.0000 </r>
       <r>    6.7183    0.0000 </r>
       <r>    6.7387    0.0000 </r>
      </set>
      <set comment="kpoint 62">
       <r>  -15.4311    1.0000 </r>
       <r>  -15.4238    1.0000 </r>
       <r>  -14.4112    1.0000 </r>
       <r>  -14.4050    1.0000 </r>
       <r>   -8.0756    1.0000 </r>
       <r>   -8.0740    1.0000 </r>
       <r>   -3.5201    1.0000 </r>
       <r>   -3.4157    1.0000 </r>
       <r>    0.3553    0.0000 </r>
       <r>    0.5196    0.0000 </r>
       <r>    6.8167    0.0000 </r>
       <r>    6.8378    0.0000 </r>
      </set>
      <set comment="kpoint 63">
       <r>  -15.4149    1.0000 </r>
       <r>  -15.4076    1.0000 </r>
       <r>  -14.3953    1.0000 </r>
       <r>  -14.3891    1.0000 </r>
       <r>   -8.1531    1.0000 </r>
       <r>   -8.1515    1.0000 </r>
       <r>   -3.4970    1.0000 </r>
       <r>   -3.3927    1.0000 </r>
       <r>    0.3494    0.0000 </r>
       <r>    0.5120    0.0000 </r>
       <r>    6.9231    0.0000 </r>
       <r>    6.9450    0.0000 </r>
      </set>
      <set comment="kpoint 64">
       <r>  -15.3973    1.0000 </r>
       <r>  -15.3900    1.0000 </r>
       <r>  -14.3780    1.0000 </r>
       <r>  -14.3719    1.0000 </r>
       <r>   -8.2359    1.0000 </r>
       <r>   -8.2342    1.0000 </r>
       <r>   -3.4719    1.0000 </r>
       <r>   -3.3677    1.0000 </r>
       <r>    0.3427    0.0000 </r>
       <r>    0.5034    0.0000 </r>
       <r>    7.0372    0.0000 </r>
       <r>    7.0598    0.0000 </r>
      </set>
      <set comment="kpoint 65">
       <r>  -15.3783    1.0000 </r>
       <r>  -15.3710    1.0000 </r>
       <r>  -14.3595    1.0000 </r>
       <r>  -14.3533    1.0000 </r>
       <r>   -8.3237    1.0000 </r>
       <r>   -8.3219    1.0000 </r>
       <r>   -3.4447    1.0000 </r>
       <r>   -3.3406    1.0000 </r>
       <r>    0.3351    0.0000 </r>
       <r>    0.4939    0.0000 </r>
       <r>    7.1585    0.0000 </r>
       <r>    7.1821    0.0000 </r>
      </set>
      <set comment="kpoint 66">
       <r>  -15.3578    1.0000 </r>
       <r>  -15.3506    1.0000 </r>
       <r>  -14.3396    1.0000 </r>
       <r>  -14.3335    1.0000 </r>
       <r>   -8.4161    1.0000 </r>
       <r>   -8.4143    1.0000 </r>
       <r>   -3.4156    1.0000 </r>
       <r>   -3.3116    1.0000 </r>
       <r>    0.3265    0.0000 </r>
       <r>    0.4832    0.0000 </r>
       <r>    7.2867    0.0000 </r>
       <r>    7.3114    0.0000 </r>
      </set>
      <set comment="kpoint 67">
       <r>  -15.3360    1.0000 </r>
       <r>  -15.3287    1.0000 </r>
       <r>  -14.3185    1.0000 </r>
       <r>  -14.3124    1.0000 </r>
       <r>   -8.5129    1.0000 </r>
       <r>   -8.5110    1.0000 </r>
       <r>   -3.3845    1.0000 </r>
       <r>   -3.2806    1.0000 </r>
       <r>    0.3168    0.0000 </r>
       <r>    0.4714    0.0000 </r>
       <r>    7.4215    0.0000 </r>
       <r>    7.4474    0.0000 </r>
      </set>
      <set comment="kpoint 68">
       <r>  -15.3127    1.0000 </r>
       <r>  -15.3055    1.0000 </r>
       <r>  -14.2961    1.0000 </r>
       <r>  -14.2900    1.0000 </r>
       <r>   -8.6138    1.0000 </r>
       <r>   -8.6118    1.0000 </r>
       <r>   -3.3513    1.0000 </r>
       <r>   -3.2476    1.0000 </r>
       <r>    0.3059    0.0000 </r>
       <r>    0.4583    0.0000 </r>
       <r>    7.5624    0.0000 </r>
       <r>    7.5897    0.0000 </r>
      </set>
      <set comment="kpoint 69">
       <r>  -15.2880    1.0000 </r>
       <r>  -15.2808    1.0000 </r>
       <r>  -14.2726    1.0000 </r>
       <r>  -14.2665    1.0000 </r>
       <r>   -8.7185    1.0000 </r>
       <r>   -8.7163    1.0000 </r>
       <r>   -3.3162    1.0000 </r>
       <r>   -3.2126    1.0000 </r>
       <r>    0.2938    0.0000 </r>
       <r>    0.4438    0.0000 </r>
       <r>    7.7091    0.0000 </r>
       <r>    7.7380    0.0000 </r>
      </set>
      <set comment="kpoint 70">
       <r>  -15.2620    1.0000 </r>
       <r>  -15.2548    1.0000 </r>
       <r>  -14.2478    1.0000 </r>
       <r>  -14.2417    1.0000 </r>
       <r>   -8.8265    1.0000 </r>
       <r>   -8.8243    1.0000 </r>
       <r>   -3.2791    1.0000 </r>
       <r>   -3.1757    1.0000 </r>
       <r>    0.2803    0.0000 </r>
       <r>    0.4278    0.0000 </r>
       <r>    7.8612    0.0000 </r>
       <r>    7.8919    0.0000 </r>
      </set>
      <set comment="kpoint 71">
       <r>  -15.2345    1.0000 </r>
       <r>  -15.2273    1.0000 </r>
       <r>  -14.2219    1.0000 </r>
       <r>  -14.2158    1.0000 </r>
       <r>   -8.9378    1.0000 </r>
       <r>   -8.9355    1.0000 </r>
       <r>   -3.2400    1.0000 </r>
       <r>   -3.1367    1.0000 </r>
       <r>    0.2653    0.0000 </r>
       <r>    0.4103    0.0000 </r>
       <r>    8.0182    0.0000 </r>
       <r>    8.0511    0.0000 </r>
      </set>
      <set comment="kpoint 72">
       <r>  -15.2056    1.0000 </r>
       <r>  -15.1985    1.0000 </r>
       <r>  -14.1949    1.0000 </r>
       <r>  -14.1888    1.0000 </r>
       <r>   -9.0519    1.0000 </r>
       <r>   -9.0495    1.0000 </r>
       <r>   -3.1990    1.0000 </r>
       <r>   -3.0958    1.0000 </r>
       <r>    0.2488    0.0000 </r>
       <r>    0.3912    0.0000 </r>
       <r>    8.1799    0.0000 </r>
       <r>    8.2151    0.0000 </r>
      </set>
      <set comment="kpoint 73">
       <r>  -15.1753    1.0000 </r>
       <r>  -15.1682    1.0000 </r>
       <r>  -14.1668    1.0000 </r>
       <r>  -14.1608    1.0000 </r>
       <r>   -9.1685    1.0000 </r>
       <r>   -9.1660    1.0000 </r>
       <r>   -3.1559    1.0000 </r>
       <r>   -3.0529    1.0000 </r>
       <r>    0.2305    0.0000 </r>
       <r>    0.3703    0.0000 </r>
       <r>    8.3457    0.0000 </r>
       <r>    8.3836    0.0000 </r>
      </set>
      <set comment="kpoint 74">
       <r>  -15.1436    1.0000 </r>
       <r>  -15.1365    1.0000 </r>
       <r>  -14.1377    1.0000 </r>
       <r>  -14.1317    1.0000 </r>
       <r>   -9.2874    1.0000 </r>
       <r>   -9.2848    1.0000 </r>
       <r>   -3.1109    1.0000 </r>
       <r>   -3.0081    1.0000 </r>
       <r>    0.2104    0.0000 </r>
       <r>    0.3475    0.0000 </r>
       <r>    8.5151    0.0000 </r>
       <r>    8.5563    0.0000 </r>
      </set>
      <set comment="kpoint 75">
       <r>  -15.1105    1.0000 </r>
       <r>  -15.1035    1.0000 </r>
       <r>  -14.1077    1.0000 </r>
       <r>  -14.1017    1.0000 </r>
       <r>   -9.4083    1.0000 </r>
       <r>   -9.4056    1.0000 </r>
       <r>   -3.0638    1.0000 </r>
       <r>   -2.9612    1.0000 </r>
       <r>    0.1884    0.0000 </r>
       <r>    0.3227    0.0000 </r>
       <r>    8.6879    0.0000 </r>
       <r>    8.7327    0.0000 </r>
      </set>
      <set comment="kpoint 76">
       <r>  -15.0760    1.0000 </r>
       <r>  -15.0690    1.0000 </r>
       <r>  -14.0768    1.0000 </r>
       <r>  -14.0709    1.0000 </r>
       <r>   -9.5308    1.0000 </r>
       <r>   -9.5280    1.0000 </r>
       <r>   -3.0149    1.0000 </r>
       <r>   -2.9124    1.0000 </r>
       <r>    0.1643    0.0000 </r>
       <r>    0.2959    0.0000 </r>
       <r>    8.8634    0.0000 </r>
       <r>    8.9125    0.0000 </r>
      </set>
      <set comment="kpoint 77">
       <r>  -15.0401    1.0000 </r>
       <r>  -15.0331    1.0000 </r>
       <r>  -14.0452    1.0000 </r>
       <r>  -14.0392    1.0000 </r>
       <r>   -9.6548    1.0000 </r>
       <r>   -9.6519    1.0000 </r>
       <r>   -2.9639    1.0000 </r>
       <r>   -2.8617    1.0000 </r>
       <r>    0.1380    0.0000 </r>
       <r>    0.2668    0.0000 </r>
       <r>    9.0420    0.0000 </r>
       <r>    9.0960    0.0000 </r>
      </set>
      <set comment="kpoint 78">
       <r>  -15.0028    1.0000 </r>
       <r>  -14.9959    1.0000 </r>
       <r>  -14.0128    1.0000 </r>
       <r>  -14.0068    1.0000 </r>
       <r>   -9.7799    1.0000 </r>
       <r>   -9.7769    1.0000 </r>
       <r>   -2.9110    1.0000 </r>
       <r>   -2.8090    1.0000 </r>
       <r>    0.1094    0.0000 </r>
       <r>    0.2354    0.0000 </r>
       <r>    9.2207    0.0000 </r>
       <r>    9.2830    0.0000 </r>
      </set>
      <set comment="kpoint 79">
       <r>  -14.9641    1.0000 </r>
       <r>  -14.9572    1.0000 </r>
       <r>  -13.9798    1.0000 </r>
       <r>  -13.9739    1.0000 </r>
       <r>   -9.9057    1.0000 </r>
       <r>   -9.9026    1.0000 </r>
       <r>   -2.8561    1.0000 </r>
       <r>   -2.7543    1.0000 </r>
       <r>    0.0783    0.0000 </r>
       <r>    0.2017    0.0000 </r>
       <r>    9.4053    0.0000 </r>
       <r>    9.6045    0.0000 </r>
      </set>
      <set comment="kpoint 80">
       <r>  -14.9240    1.0000 </r>
       <r>  -14.9171    1.0000 </r>
       <r>  -13.9464    1.0000 </r>
       <r>  -13.9406    1.0000 </r>
       <r>  -10.0321    1.0000 </r>
       <r>  -10.0289    1.0000 </r>
       <r>   -2.7993    1.0000 </r>
       <r>   -2.6977    1.0000 </r>
       <r>    0.0448    0.0000 </r>
       <r>    0.1655    0.0000 </r>
       <r>    9.6050    0.0000 </r>
       <r>    9.7360    0.0000 </r>
      </set>
      <set comment="kpoint 81">
       <r>  -14.8825    1.0000 </r>
       <r>  -14.8757    1.0000 </r>
       <r>  -13.9128    1.0000 </r>
       <r>  -13.9069    1.0000 </r>
       <r>  -10.1586    1.0000 </r>
       <r>  -10.1553    1.0000 </r>
       <r>   -2.7405    1.0000 </r>
       <r>   -2.6392    1.0000 </r>
       <r>    0.0085    0.0000 </r>
       <r>    0.1266    0.0000 </r>
       <r>    9.7039    0.0000 </r>
       <r>    9.7713    0.0000 </r>
      </set>
      <set comment="kpoint 82">
       <r>  -14.8396    1.0000 </r>
       <r>  -14.8328    1.0000 </r>
       <r>  -13.8790    1.0000 </r>
       <r>  -13.8731    1.0000 </r>
       <r>  -10.2850    1.0000 </r>
       <r>  -10.2816    1.0000 </r>
       <r>   -2.6798    1.0000 </r>
       <r>   -2.5787    1.0000 </r>
       <r>   -0.0305    0.0000 </r>
       <r>    0.0850    0.0000 </r>
       <r>    9.6422    0.0000 </r>
       <r>    9.9757    0.0000 </r>
      </set>
      <set comment="kpoint 83">
       <r>  -14.7953    1.0000 </r>
       <r>  -14.7886    1.0000 </r>
       <r>  -13.8453    1.0000 </r>
       <r>  -13.8394    1.0000 </r>
       <r>  -10.4108    1.0000 </r>
       <r>  -10.4074    1.0000 </r>
       <r>   -2.6172    1.0000 </r>
       <r>   -2.5163    1.0000 </r>
       <r>   -0.0723    0.0000 </r>
       <r>    0.0407    0.0000 </r>
       <r>    9.5806    0.0000 </r>
       <r>   10.2637    0.0000 </r>
      </set>
      <set comment="kpoint 84">
       <r>  -14.7496    1.0000 </r>
       <r>  -14.7430    1.0000 </r>
       <r>  -13.8119    1.0000 </r>
       <r>  -13.8061    1.0000 </r>
       <r>  -10.5358    1.0000 </r>
       <r>  -10.5322    1.0000 </r>
       <r>   -2.5526    1.0000 </r>
       <r>   -2.4520    1.0000 </r>
       <r>   -0.1171    0.0000 </r>
       <r>   -0.0064    0.0000 </r>
       <r>    9.5205    0.0000 </r>
       <r>   10.3059    0.0000 </r>
      </set>
      <set comment="kpoint 85">
       <r>  -14.7025    1.0000 </r>
       <r>  -14.6959    1.0000 </r>
       <r>  -13.7793    1.0000 </r>
       <r>  -13.7735    1.0000 </r>
       <r>  -10.6593    1.0000 </r>
       <r>  -10.6556    1.0000 </r>
       <r>   -2.4860    1.0000 </r>
       <r>   -2.3858    1.0000 </r>
       <r>   -0.1650    0.0000 </r>
       <r>   -0.0565    0.0000 </r>
       <r>    9.4623    0.0000 </r>
       <r>   10.2458    0.0000 </r>
      </set>
      <set comment="kpoint 86">
       <r>  -14.6541    1.0000 </r>
       <r>  -14.6475    1.0000 </r>
       <r>  -13.7477    1.0000 </r>
       <r>  -13.7419    1.0000 </r>
       <r>  -10.7810    1.0000 </r>
       <r>  -10.7772    1.0000 </r>
       <r>   -2.4176    1.0000 </r>
       <r>   -2.3176    1.0000 </r>
       <r>   -0.2159    0.0000 </r>
       <r>   -0.1095    0.0000 </r>
       <r>    9.4064    0.0000 </r>
       <r>   10.2010    0.0000 </r>
      </set>
      <set comment="kpoint 87">
       <r>  -14.6042    1.0000 </r>
       <r>  -14.5977    1.0000 </r>
       <r>  -13.7176    1.0000 </r>
       <r>  -13.7119    1.0000 </r>
       <r>  -10.9002    1.0000 </r>
       <r>  -10.8964    1.0000 </r>
       <r>   -2.3473    1.0000 </r>
       <r>   -2.2476    1.0000 </r>
       <r>   -0.2700    0.0000 </r>
       <r>   -0.1656    0.0000 </r>
       <r>    9.3534    0.0000 </r>
       <r>   10.1582    0.0000 </r>
      </set>
      <set comment="kpoint 88">
       <r>  -14.5530    1.0000 </r>
       <r>  -14.5465    1.0000 </r>
       <r>  -13.6895    1.0000 </r>
       <r>  -13.6838    1.0000 </r>
       <r>  -11.0164    1.0000 </r>
       <r>  -11.0124    1.0000 </r>
       <r>   -2.2750    1.0000 </r>
       <r>   -2.1756    1.0000 </r>
       <r>   -0.3273    0.0000 </r>
       <r>   -0.2247    0.0000 </r>
       <r>    9.3035    0.0000 </r>
       <r>   10.1167    0.0000 </r>
      </set>
      <set comment="kpoint 89">
       <r>  -14.5003    1.0000 </r>
       <r>  -14.4939    1.0000 </r>
       <r>  -13.6642    1.0000 </r>
       <r>  -13.6585    1.0000 </r>
       <r>  -11.1287    1.0000 </r>
       <r>  -11.1247    1.0000 </r>
       <r>   -2.2008    1.0000 </r>
       <r>   -2.1017    1.0000 </r>
       <r>   -0.3878    0.0000 </r>
       <r>   -0.2869    0.0000 </r>
       <r>    9.2570    0.0000 </r>
       <r>   10.0771    0.0000 </r>
      </set>
      <set comment="kpoint 90">
       <r>  -14.4463    1.0000 </r>
       <r>  -14.4399    1.0000 </r>
       <r>  -13.6423    1.0000 </r>
       <r>  -13.6366    1.0000 </r>
       <r>  -11.2363    1.0000 </r>
       <r>  -11.2322    1.0000 </r>
       <r>   -2.1248    1.0000 </r>
       <r>   -2.0260    1.0000 </r>
       <r>   -0.4516    0.0000 </r>
       <r>   -0.3521    0.0000 </r>
       <r>    9.2142    0.0000 </r>
       <r>   10.0399    0.0000 </r>
      </set>
      <set comment="kpoint 91">
       <r>  -14.3909    1.0000 </r>
       <r>  -14.3846    1.0000 </r>
       <r>  -13.6247    1.0000 </r>
       <r>  -13.6190    1.0000 </r>
       <r>  -11.3383    1.0000 </r>
       <r>  -11.3341    1.0000 </r>
       <r>   -2.0468    1.0000 </r>
       <r>   -1.9484    1.0000 </r>
       <r>   -0.5186    0.0000 </r>
       <r>   -0.4204    0.0000 </r>
       <r>    9.1752    0.0000 </r>
       <r>   10.0054    0.0000 </r>
      </set>
      <set comment="kpoint 92">
       <r>  -14.3341    1.0000 </r>
       <r>  -14.3278    1.0000 </r>
       <r>  -13.6125    1.0000 </r>
       <r>  -13.6068    1.0000 </r>
       <r>  -11.4335    1.0000 </r>
       <r>  -11.4293    1.0000 </r>
       <r>   -1.9670    1.0000 </r>
       <r>   -1.8689    1.0000 </r>
[...]
       <r>    2.1473    0.0000 </r>
       <r>    2.7097    0.0000 </r>
       <r>    3.3420    0.0000 </r>
       <r>    4.2283    0.0000 </r>
      </set>
      <set comment="kpoint 144">
       <r>  -20.6761    1.0000 </r>
       <r>  -20.6645    1.0000 </r>
       <r>   -8.8309    1.0000 </r>
       <r>   -8.6502    1.0000 </r>
       <r>   -4.7107    1.0000 </r>
       <r>   -4.7099    1.0000 </r>
       <r>   -4.5014    1.0000 </r>
       <r>   -4.5008    1.0000 </r>
       <r>    2.0899    0.0000 </r>
       <r>    2.6515    0.0000 </r>
       <r>    3.2836    0.0000 </r>
       <r>    4.1707    0.0000 </r>
      </set>
      <set comment="kpoint 145">
       <r>  -20.7124    1.0000 </r>
       <r>  -20.7007    1.0000 </r>
       <r>   -8.8743    1.0000 </r>
       <r>   -8.6934    1.0000 </r>
       <r>   -4.5729    1.0000 </r>
       <r>   -4.5722    1.0000 </r>
       <r>   -4.4231    1.0000 </r>
       <r>   -4.4225    1.0000 </r>
       <r>    2.0414    0.0000 </r>
       <r>    2.6022    0.0000 </r>
       <r>    3.2343    0.0000 </r>
       <r>    4.1220    0.0000 </r>
      </set>
      <set comment="kpoint 146">
       <r>  -20.7420    1.0000 </r>
       <r>  -20.7303    1.0000 </r>
       <r>   -8.9099    1.0000 </r>
       <r>   -8.7287    1.0000 </r>
       <r>   -4.4568    1.0000 </r>
       <r>   -4.4562    1.0000 </r>
       <r>   -4.3584    1.0000 </r>
       <r>   -4.3579    1.0000 </r>
       <r>    2.0017    0.0000 </r>
       <r>    2.5618    0.0000 </r>
       <r>    3.1939    0.0000 </r>
       <r>    4.0821    0.0000 </r>
      </set>
      <set comment="kpoint 147">
       <r>  -20.7651    1.0000 </r>
       <r>  -20.7534    1.0000 </r>
       <r>   -8.9377    1.0000 </r>
       <r>   -8.7562    1.0000 </r>
       <r>   -4.3642    1.0000 </r>
       <r>   -4.3636    1.0000 </r>
       <r>   -4.3077    1.0000 </r>
       <r>   -4.3072    1.0000 </r>
       <r>    1.9708    0.0000 </r>
       <r>    2.5304    0.0000 </r>
       <r>    3.1625    0.0000 </r>
       <r>    4.0511    0.0000 </r>
      </set>
      <set comment="kpoint 148">
       <r>  -20.7816    1.0000 </r>
       <r>  -20.7699    1.0000 </r>
       <r>   -8.9575    1.0000 </r>
       <r>   -8.7758    1.0000 </r>
       <r>   -4.2968    1.0000 </r>
       <r>   -4.2963    1.0000 </r>
       <r>   -4.2713    1.0000 </r>
       <r>   -4.2708    1.0000 </r>
       <r>    1.9487    0.0000 </r>
       <r>    2.5080    0.0000 </r>
       <r>    3.1400    0.0000 </r>
       <r>    4.0289    0.0000 </r>
      </set>
      <set comment="kpoint 149">
       <r>  -20.7915    1.0000 </r>
       <r>  -20.7798    1.0000 </r>
       <r>   -8.9693    1.0000 </r>
       <r>   -8.7876    1.0000 </r>
       <r>   -4.2558    1.0000 </r>
       <r>   -4.2553    1.0000 </r>
       <r>   -4.2494    1.0000 </r>
       <r>   -4.2489    1.0000 </r>
       <r>    1.9355    0.0000 </r>
       <r>    2.4946    0.0000 </r>
       <r>    3.1266    0.0000 </r>
       <r>    4.0156    0.0000 </r>
      </set>
      <set comment="kpoint 150">
       <r>  -20.7948    1.0000 </r>
       <r>  -20.7831    1.0000 </r>
       <r>   -8.9733    1.0000 </r>
       <r>   -8.7915    1.0000 </r>
       <r>   -4.2421    1.0000 </r>
       <r>   -4.2420    1.0000 </r>
       <r>   -4.2416    1.0000 </r>
       <r>   -4.2415    1.0000 </r>
       <r>    1.9311    0.0000 </r>
       <r>    2.4901    0.0000 </r>
       <r>    3.1221    0.0000 </r>
       <r>    4.0112    0.0000 </r>
      </set>
     </set>
    </set>
   </array>
  </eigenvalues>
  <separator name="orbital magnetization" >
   <v name="MAGDIPOLOUT">      0.00000000      0.00000000      0.00000000</v>
  </separator>
  <dos>
   <i name="efermi">     -1.21222578 </i>
   <total>
    <array>
     <dimension dim="1">gridpoints</dimension>
     <dimension dim="2">spin</dimension>
     <field>energy</field>
     <field>total</field>
     <field>integrated</field>
     <set>
      <set comment="spin 1">
       <r>   -22.3498     0.0000     0.0000 </r>
       <r>   -22.2358     0.0000     0.0000 </r>
       <r>   -22.1218     0.0000     0.0000 </r>
       <r>   -22.0077     0.0000     0.0000 </r>
       <r>   -21.8937     0.0000     0.0000 </r>
       <r>   -21.7797     0.0000     0.0000 </r>
       <r>   -21.6656     0.0000     0.0000 </r>
       <r>   -21.5516     0.0000     0.0000 </r>
       <r>   -21.4376     0.0000     0.0000 </r>
       <r>   -21.3235     0.0000     0.0000 </r>
       <r>   -21.2095     0.0000     0.0000 </r>
       <r>   -21.0954     0.0000     0.0000 </r>
       <r>   -20.9814     0.0000     0.0000 </r>
       <r>   -20.8674     0.0000     0.0000 </r>
       <r>   -20.7533     1.8755     0.2139 </r>
       <r>   -20.6393     1.0029     0.4077 </r>
       <r>   -20.5253     0.7830     0.5426 </r>
       <r>   -20.4112     0.5857     0.6401 </r>
       <r>   -20.2972     0.5360     0.7411 </r>
       <r>   -20.1832     0.4680     0.8000 </r>
       <r>   -20.0691     0.3078     0.8751 </r>
       <r>   -19.9551     0.2928     0.9401 </r>
       <r>   -19.8411     0.3515     1.0001 </r>
       <r>   -19.7270     0.2356     1.0535 </r>
       <r>   -19.6130     0.0750     1.1019 </r>
       <r>   -19.4989     0.0434     1.1516 </r>
       <r>   -19.3849     0.0377     1.2043 </r>
       <r>   -19.2709     0.1298     1.2548 </r>
       <r>   -19.1568     0.2344     1.3067 </r>
       <r>   -19.0428     0.2317     1.3598 </r>
       <r>   -18.9288     0.1215     1.3872 </r>
       <r>   -18.8147     0.2338     1.4400 </r>
       <r>   -18.7007     0.4677     1.4933 </r>
       <r>   -18.5867     0.3302     1.5310 </r>
       <r>   -18.4726     0.0001     1.5467 </r>
       <r>   -18.3586     0.2338     1.6000 </r>
       <r>   -18.2446     0.3653     1.6417 </r>
       <r>   -18.1305     0.2046     1.6767 </r>
       <r>   -18.0165     0.2338     1.7067 </r>
       <r>   -17.9024     0.1173     1.7334 </r>
       <r>   -17.7884     0.2338     1.7867 </r>
       <r>   -17.6744     0.2173     1.8114 </r>
       <r>   -17.5603     0.0000     1.8400 </r>
       <r>   -17.4463     0.4677     1.8933 </r>
       <r>   -17.3323     0.0000     1.8933 </r>
       <r>   -17.2182     0.2338     1.9467 </r>
       <r>   -17.1042     0.2327     1.9732 </r>
       <r>   -16.9902     0.0000     2.0000 </r>
       <r>   -16.8761     0.2658     2.0303 </r>
       <r>   -16.7621     0.0731     2.0617 </r>
       <r>   -16.6481     0.1413     2.0961 </r>
       <r>   -16.5340     0.2338     2.1333 </r>
       <r>   -16.4200     0.2038     2.1566 </r>
       <r>   -16.3059     0.1169     2.1867 </r>
       <r>   -16.1919     0.3744     2.2294 </r>
       <r>   -16.0779     0.0000     2.2400 </r>
       <r>   -15.9638     0.4535     2.2917 </r>
       <r>   -15.8498     0.0064     2.2941 </r>
       <r>   -15.7358     0.2068     2.3436 </r>
       <r>   -15.6217     0.2338     2.3733 </r>
       <r>   -15.5077     1.2248     2.5130 </r>
       <r>   -15.3937     1.2849     2.8132 </r>
       <r>   -15.2796     0.9776     2.9648 </r>
       <r>   -15.1656     0.6502     3.0875 </r>
       <r>   -15.0515     0.5230     3.1796 </r>
       <r>   -14.9375     0.4709     3.2804 </r>
       <r>   -14.8235     0.4821     3.3616 </r>
       <r>   -14.7094     0.3733     3.4426 </r>
       <r>   -14.5954     0.4490     3.5179 </r>
       <r>   -14.4814     1.6616     3.7362 </r>
       <r>   -14.3673     2.1124     4.0942 </r>
       <r>   -14.2533     1.3123     4.3230 </r>
       <r>   -14.1393     1.4420     4.5244 </r>
       <r>   -14.0252     0.9537     4.6821 </r>
       <r>   -13.9112     1.2738     4.8653 </r>
       <r>   -13.7972     1.5066     5.0918 </r>
       <r>   -13.6831     1.3914     5.2920 </r>
       <r>   -13.5691     1.6370     5.5467 </r>
       <r>   -13.4550     0.2338     5.6000 </r>
       <r>   -13.3410     0.2338     5.6267 </r>
       <r>   -13.2270     0.4475     5.6777 </r>
       <r>   -13.1129     0.0000     5.6800 </r>
       <r>   -12.9989     0.3446     5.7326 </r>
       <r>   -12.8849     0.2338     5.7600 </r>
       <r>   -12.7708     0.0747     5.7685 </r>
       <r>   -12.6568     0.1169     5.8133 </r>
       <r>   -12.5428     0.2329     5.8399 </r>
       <r>   -12.4287     0.0000     5.8667 </r>
       <r>   -12.3147     0.2338     5.8933 </r>
       <r>   -12.2007     0.2772     5.9249 </r>
       <r>   -12.0866     0.0000     5.9467 </r>
       <r>   -11.9726     0.4677     6.0000 </r>
       <r>   -11.8585     0.0000     6.0000 </r>
       <r>   -11.7445     1.8093     6.2063 </r>
       <r>   -11.6305     0.4669     6.3199 </r>
       <r>   -11.5164     0.4938     6.4163 </r>
       <r>   -11.4024     0.6360     6.5125 </r>
       <r>   -11.2884     0.2386     6.5605 </r>
       <r>   -11.1743     0.6927     6.6657 </r>
       <r>   -11.0603     0.4677     6.7200 </r>
       <r>   -10.9463     0.8706     6.8193 </r>
       <r>   -10.8322     0.2338     6.8533 </r>
       <r>   -10.7182     0.7015     6.9333 </r>
       <r>   -10.6041     0.5741     7.0121 </r>
       <r>   -10.4901     0.4677     7.0667 </r>
       <r>   -10.3761     0.7015     7.1467 </r>
       <r>   -10.2620     0.4727     7.2006 </r>
       <r>   -10.1480     0.2557     7.2558 </r>
       <r>   -10.0340     0.5411     7.3417 </r>
       <r>    -9.9199     0.0034     7.3604 </r>
       <r>    -9.8059     0.7015     7.4667 </r>
       <r>    -9.6919     0.0000     7.4933 </r>
       <r>    -9.5778     0.8153     7.5996 </r>
       <r>    -9.4638     0.2585     7.6295 </r>
       <r>    -9.3498     0.3826     7.6970 </r>
       <r>    -9.2357     0.4568     7.7854 </r>
       <r>    -9.1217     0.2390     7.8139 </r>
       <r>    -9.0076     0.7015     7.9200 </r>
       <r>    -8.8936     1.4934     8.0903 </r>
       <r>    -8.7796     1.6481     8.3213 </r>
       <r>    -8.6655     1.1701     8.5201 </r>
       <r>    -8.5515     1.2787     8.7058 </r>
       <r>    -8.4375     0.9857     8.8457 </r>
       <r>    -8.3234     0.9591     9.0027 </r>
       <r>    -8.2094     0.8129     9.1594 </r>
       <r>    -8.0954     0.8227     9.2938 </r>
       <r>    -7.9813     0.6818     9.4111 </r>
       <r>    -7.8673     0.6839     9.5580 </r>
       <r>    -7.7533     0.7961     9.7041 </r>
       <r>    -7.6392     2.0591     9.9948 </r>
       <r>    -7.5252     1.4840    10.2626 </r>
       <r>    -7.4111     0.9217    10.3984 </r>
       <r>    -7.2971     0.8354    10.5486 </r>
       <r>    -7.1831     0.8254    10.6675 </r>
       <r>    -7.0690     1.0518    10.8266 </r>
       <r>    -6.9550     0.6007    10.8952 </r>
       <r>    -6.8410     0.7772    11.0486 </r>
       <r>    -6.7269     0.4701    11.1203 </r>
       <r>    -6.6129     0.1995    11.2361 </r>
       <r>    -6.4989     0.6046    11.3623 </r>
       <r>    -6.3848     0.8284    11.4811 </r>
       <r>    -6.2708     0.7009    11.5733 </r>
       <r>    -6.1568     0.9354    11.6800 </r>
       <r>    -6.0427     0.9385    11.7870 </r>
       <r>    -5.9287     0.5852    11.8667 </r>
       <r>    -5.8146     0.4668    11.9866 </r>
       <r>    -5.7006     0.5801    12.1062 </r>
       <r>    -5.5866     0.3812    12.1768 </r>
       <r>    -5.4725     0.2352    12.2935 </r>
       <r>    -5.3585     1.0159    12.4358 </r>
       <r>    -5.2445     0.0440    12.4850 </r>
       <r>    -5.1304     0.6459    12.6470 </r>
       <r>    -5.0164     1.0176    12.7827 </r>
       <r>    -4.9024     0.5547    12.8766 </r>
       <r>    -4.7883     0.9354    13.0133 </r>
       <r>    -4.6743     1.1337    13.1559 </r>
       <r>    -4.5602     0.9074    13.3035 </r>
       <r>    -4.4462     1.2220    13.4594 </r>
       <r>    -4.3322     1.2597    13.6637 </r>
       <r>    -4.2181     3.0661    14.0963 </r>
       <r>    -4.1041     0.1170    14.1333 </r>
       <r>    -3.9901     0.2369    14.1737 </r>
       <r>    -3.8760     0.2311    14.2130 </r>
       <r>    -3.7620     0.2320    14.2531 </r>
       <r>    -3.6480     0.4179    14.3143 </r>
       <r>    -3.5339     1.2291    14.5402 </r>
       <r>    -3.4199     0.9986    14.7405 </r>
       <r>    -3.3059     0.7859    14.8630 </r>
       <r>    -3.1918     0.5675    14.9580 </r>
       <r>    -3.0778     0.5869    15.0403 </r>
       <r>    -2.9637     0.4525    15.1183 </r>
       <r>    -2.8497     0.5580    15.1970 </r>
       <r>    -2.7357     0.5553    15.2633 </r>
       <r>    -2.6216     0.4977    15.3234 </r>
       <r>    -2.5076     0.4551    15.3852 </r>
       <r>    -2.3936     0.3665    15.4418 </r>
       <r>    -2.2795     0.3813    15.4968 </r>
       <r>    -2.1655     0.3418    15.5590 </r>
       <r>    -2.0515     0.3808    15.6034 </r>
       <r>    -1.9374     0.3437    15.6659 </r>
       <r>    -1.8234     0.3509    15.7067 </r>
       <r>    -1.7094     0.3600    15.7611 </r>
       <r>    -1.5953     0.3507    15.8133 </r>
       <r>    -1.4813     0.2339    15.8533 </r>
       <r>    -1.3672     0.1511    15.8972 </r>
       <r>    -1.2532     0.5162    15.9922 </r>
       <r>    -1.1392     0.5846    16.0667 </r>
       <r>    -1.0251     0.3508    16.1067 </r>
       <r>    -0.9111     0.3621    16.1480 </r>
       <r>    -0.7971     0.3416    16.2123 </r>
       <r>    -0.6830     0.2341    16.2534 </r>
       <r>    -0.5690     0.3078    16.3151 </r>
       <r>    -0.4550     0.2747    16.3647 </r>
       <r>    -0.3409     0.4544    16.4385 </r>
       <r>    -0.2269     0.3035    16.4879 </r>
       <r>    -0.1128     0.4721    16.5738 </r>
       <r>     0.0012     0.4846    16.6419 </r>
       <r>     0.1152     0.6832    16.7446 </r>
       <r>     0.2293     0.6592    16.8485 </r>
       <r>     0.3433     1.3875    17.0516 </r>
       <r>     0.4573     1.3614    17.3419 </r>
       <r>     0.5714     2.0595    17.6349 </r>
       <r>     0.6854     0.1351    17.6687 </r>
       <r>     0.7994     0.2342    17.7067 </r>
       <r>     0.9135     0.2338    17.7467 </r>
       <r>     1.0275     0.2431    17.7744 </r>
       <r>     1.1415     0.1169    17.8000 </r>
       <r>     1.2556     0.3359    17.8383 </r>
       <r>     1.3696     0.1170    17.8533 </r>
       <r>     1.4837     0.1168    17.8800 </r>
       <r>     1.5977     0.0921    17.9038 </r>
       <r>     1.7117     0.1145    17.9331 </r>
       <r>     1.8258     0.1192    17.9469 </r>
       <r>     1.9398     0.5772    18.0258 </r>
       <r>     2.0538     0.5773    18.1592 </r>
       <r>     2.1679     0.5844    18.2533 </r>
       <r>     2.2819     0.2536    18.3089 </r>
       <r>     2.3959     0.4736    18.3740 </r>
       <r>     2.5100     0.9900    18.5129 </r>
       <r>     2.6240     0.8775    18.6601 </r>
       <r>     2.7380     0.6682    18.7695 </r>
       <r>     2.8521     0.5317    18.8473 </r>
       <r>     2.9661     0.6004    18.9351 </r>
       <r>     3.0802     0.5841    19.0266 </r>
       <r>     3.1942     1.5957    19.2086 </r>
       <r>     3.3082     1.0518    19.3733 </r>
       <r>     3.4223     0.8118    19.4926 </r>
       <r>     3.5363     0.8829    19.5940 </r>
       <r>     3.6503     0.7010    19.6799 </r>
       <r>     3.7644     0.5048    19.7642 </r>
       <r>     3.8784     0.7479    19.8853 </r>
       <r>     3.9924     0.5115    19.9650 </r>
       <r>     4.1065     1.0974    20.1785 </r>
       <r>     4.2205     0.6295    20.3251 </r>
       <r>     4.3346     0.8226    20.4538 </r>
       <r>     4.4486     0.7335    20.5636 </r>
       <r>     4.5626     0.4888    20.6824 </r>
       <r>     4.6767     0.5829    20.7865 </r>
       <r>     4.7907     0.9767    20.9114 </r>
       <r>     4.9047     0.7064    21.0006 </r>
       <r>     5.0188     0.5063    21.0844 </r>
       <r>     5.1328     0.6131    21.1766 </r>
       <r>     5.2468     0.3508    21.2400 </r>
       <r>     5.3609     0.7970    21.3576 </r>
       <r>     5.4749     0.3603    21.4278 </r>
       <r>     5.5889     0.2545    21.4824 </r>
       <r>     5.7030     0.3512    21.5467 </r>
       <r>     5.8170     0.3303    21.6243 </r>
       <r>     5.9311     0.2250    21.6657 </r>
       <r>     6.0451     0.2338    21.7200 </r>
       <r>     6.1591     0.3400    21.7588 </r>
       <r>     6.2732     2.1495    22.0051 </r>
       <r>     6.3872     1.4334    22.2701 </r>
       <r>     6.5012     0.9186    22.3981 </r>
       <r>     6.6153     0.2379    22.4271 </r>
       <r>     6.7293     0.2376    22.4804 </r>
       <r>     6.8433     0.2084    22.5304 </r>
       <r>     6.9574     0.2292    22.5595 </r>
       <r>     7.0714     0.3449    22.6127 </r>
       <r>     7.1854     0.1969    22.6358 </r>
       <r>     7.2995     0.2659    22.6703 </r>
       <r>     7.4135     0.0153    22.6951 </r>
       <r>     7.5276     0.0000    22.7200 </r>
       <r>     7.6416     0.4677    22.7733 </r>
       <r>     7.7556     0.2331    22.7999 </r>
       <r>     7.8697     0.1164    22.8133 </r>
       <r>     7.9837     0.0000    22.8533 </r>
       <r>     8.0977     0.2338    22.8800 </r>
       <r>     8.2118     0.3870    22.9241 </r>
       <r>     8.3258     0.0003    22.9334 </r>
       <r>     8.4398     0.1169    22.9600 </r>
       <r>     8.5539     0.2767    23.0049 </r>
       <r>     8.6679     0.0003    23.0134 </r>
       <r>     8.7819     0.2348    23.0534 </r>
       <r>     8.8960     0.1180    23.0801 </r>
       <r>     9.0100     0.1635    23.1120 </r>
       <r>     9.1241     0.8307    23.3214 </r>
       <r>     9.2381     0.3503    23.4133 </r>
       <r>     9.3521     0.4010    23.4724 </r>
       <r>     9.4662     0.4338    23.5295 </r>
       <r>     9.5802     0.1727    23.5530 </r>
       <r>     9.6942     0.1271    23.6145 </r>
       <r>     9.8083     0.2338    23.6533 </r>
       <r>     9.9223     1.5627    23.8315 </r>
       <r>    10.0363     0.3869    23.8975 </r>
       <r>    10.1504     0.2496    23.9351 </r>
       <r>    10.2644     0.2964    23.9805 </r>
       <r>    10.3785     0.1169    24.0000 </r>
       <r>    10.4925     0.0000    24.0000 </r>
       <r>    10.6065     0.0000    24.0000 </r>
       <r>    10.7206     0.0000    24.0000 </r>
       <r>    10.8346     0.0000    24.0000 </r>
       <r>    10.9486     0.0000    24.0000 </r>
       <r>    11.0627     0.0000    24.0000 </r>
       <r>    11.1767     0.0000    24.0000 </r>
       <r>    11.2907     0.0000    24.0000 </r>
       <r>    11.4048     0.0000    24.0000 </r>
       <r>    11.5188     0.0000    24.0000 </r>
       <r>    11.6328     0.0000    24.0000 </r>
       <r>    11.7469     0.0000    24.0000 </r>
       <r>    11.8609     0.0000    24.0000 </r>
      </set>
     </set>
    </array>
   </total>
  </dos>
 </calculation>
 <structure name="finalpos" >
  <crystal>
   <varray name="basis" >
    <v>       2.13000000      -1.22975600       0.00000000 </v>
    <v>       2.13000000       1.22975600       0.00000000 </v>
    <v>       0.00000000       0.00000000      20.00000000 </v>
   </varray>
   <i name="volume">    104.77521120 </i>
   <varray name="rec_basis" >
    <v>       0.23474178      -0.40658472       0.00000000 </v>
    <v>       0.23474178       0.40658472       0.00000000 </v>
    <v>       0.00000000       0.00000000       0.05000000 </v>
   </varray>
  </crystal>
  <varray name="positions" >
   <v>       0.00000000       0.00000000       0.00000000 </v>
   <v>       0.33333300       0.33333300       0.00000000 </v>
   <v>       0.00000000       0.00000000       0.22193400 </v>
   <v>       0.33333300       0.33333300       0.22193400 </v>
  </varray>
  <varray name="selective"  type="logical" >
   <v type="logical" >  F  F  F </v>
   <v type="logical" >  F  F  F </v>
   <v type="logical" >  F  F  T </v>
   <v type="logical" >  F  F  T </v>
  </varray>
  <nose>
   <v>      -3.00000000       0.00000000       0.00010000       0.00010000 </v>
  </nose>
 </structure>
</modeling>
