   2   2   0   0
  0.5238761E+02  0.2459512E-09  0.2459512E-09  0.2000000E-08  0.5000000E-15
  1.000000000000000E-004
  CAR 
 C:graphene                              
     11.84391107    -23.92498155 9001     -2.72501324      1.00000000
    -23.925  0.0000E+00  0.0000E+00
    -23.921  0.0000E+00  0.0000E+00
    -23.917  0.0000E+00  0.0000E+00
    -23.913  0.0000E+00  0.0000E+00
    -23.909  0.0000E+00  0.0000E+00
    -23.905  0.0000E+00  0.0000E+00
    -23.901  0.0000E+00  0.0000E+00
    -23.897  0.0000E+00  0.0000E+00
    -23.893  0.0000E+00  0.0000E+00
    -23.889  0.0000E+00  0.0000E+00
    -23.885  0.0000E+00  0.0000E+00
    -23.881  0.0000E+00  0.0000E+00
    -23.877  0.0000E+00  0.0000E+00
    -23.873  0.0000E+00  0.0000E+00
    -23.869  0.0000E+00  0.0000E+00
    -23.865  0.0000E+00  0.0000E+00
    -23.861  0.0000E+00  0.0000E+00
    -23.857  0.0000E+00  0.0000E+00
    -23.853  0.0000E+00  0.0000E+00
    -23.849  0.0000E+00  0.0000E+00
    -23.845  0.0000E+00  0.0000E+00
    -23.842  0.0000E+00  0.0000E+00
    -23.838  0.0000E+00  0.0000E+00
    -23.834  0.0000E+00  0.0000E+00
    -23.830  0.0000E+00  0.0000E+00
    -23.826  0.0000E+00  0.0000E+00
    -23.822  0.0000E+00  0.0000E+00
    -23.818  0.0000E+00  0.0000E+00
    -23.814  0.0000E+00  0.0000E+00
    -23.810  0.0000E+00  0.0000E+00
    -23.806  0.0000E+00  0.0000E+00
    -23.802  0.0000E+00  0.0000E+00
    -23.798  0.0000E+00  0.0000E+00
    -23.794  0.0000E+00  0.0000E+00
    -23.790  0.0000E+00  0.0000E+00
    -23.786  0.0000E+00  0.0000E+00
    -23.782  0.0000E+00  0.0000E+00
    -23.778  0.0000E+00  0.0000E+00
    -23.774  0.0000E+00  0.0000E+00
    -23.770  0.0000E+00  0.0000E+00
    -23.766  0.0000E+00  0.0000E+00
    -23.762  0.0000E+00  0.0000E+00
    -23.758  0.0000E+00  0.0000E+00
    -23.754  0.0000E+00  0.0000E+00
    -23.750  0.0000E+00  0.0000E+00
    -23.746  0.0000E+00  0.0000E+00
    -23.742  0.0000E+00  0.0000E+00
    -23.738  0.0000E+00  0.0000E+00
    -23.734  0.0000E+00  0.0000E+00
    -23.730  0.0000E+00  0.0000E+00
    -23.726  0.0000E+00  0.0000E+00
    -23.722  0.0000E+00  0.0000E+00
    -23.718  0.0000E+00  0.0000E+00
    -23.714  0.0000E+00  0.0000E+00
    -23.710  0.0000E+00  0.0000E+00
    -23.706  0.0000E+00  0.0000E+00
    -23.702  0.0000E+00  0.0000E+00
    -23.698  0.0000E+00  0.0000E+00
    -23.694  0.0000E+00  0.0000E+00
    -23.690  0.0000E+00  0.0000E+00
    -23.687  0.0000E+00  0.0000E+00
    -23.683  0.0000E+00  0.0000E+00
    -23.679  0.0000E+00  0.0000E+00
    -23.675  0.0000E+00  0.0000E+00
    -23.671  0.0000E+00  0.0000E+00
    -23.667  0.0000E+00  0.0000E+00
    -23.663  0.0000E+00  0.0000E+00
    -23.659  0.0000E+00  0.0000E+00
    -23.655  0.0000E+00  0.0000E+00
    -23.651  0.0000E+00  0.0000E+00
    -23.647  0.0000E+00  0.0000E+00
    -23.643  0.0000E+00  0.0000E+00
    -23.639  0.0000E+00  0.0000E+00
    -23.635  0.0000E+00  0.0000E+00
    -23.631  0.0000E+00  0.0000E+00
    -23.627  0.0000E+00  0.0000E+00
    -23.623  0.0000E+00  0.0000E+00
    -23.619  0.0000E+00  0.0000E+00
    -23.615  0.0000E+00  0.0000E+00
    -23.611  0.0000E+00  0.0000E+00
    -23.607  0.0000E+00  0.0000E+00
    -23.603  0.0000E+00  0.0000E+00
    -23.599  0.0000E+00  0.0000E+00
    -23.595  0.0000E+00  0.0000E+00
    -23.591  0.0000E+00  0.0000E+00
    -23.587  0.0000E+00  0.0000E+00
    -23.583  0.0000E+00  0.0000E+00
    -23.579  0.0000E+00  0.0000E+00
    -23.575  0.0000E+00  0.0000E+00
    -23.571  0.0000E+00  0.0000E+00
    -23.567  0.0000E+00  0.0000E+00
    -23.563  0.0000E+00  0.0000E+00
    -23.559  0.0000E+00  0.0000E+00
    -23.555  0.0000E+00  0.0000E+00
    -23.551  0.0000E+00  0.0000E+00
    -23.547  0.0000E+00  0.0000E+00
    -23.543  0.0000E+00  0.0000E+00
    -23.539  0.0000E+00  0.0000E+00
    -23.535  0.0000E+00  0.0000E+00
    -23.532  0.0000E+00  0.0000E+00
    -23.528  0.0000E+00  0.0000E+00
    -23.524  0.0000E+00  0.0000E+00
    -23.520  0.0000E+00  0.0000E+00
    -23.516  0.0000E+00  0.0000E+00
    -23.512  0.0000E+00  0.0000E+00
    -23.508  0.0000E+00  0.0000E+00
    -23.504  0.0000E+00  0.0000E+00
    -23.500  0.0000E+00  0.0000E+00
    -23.496  0.0000E+00  0.0000E+00
    -23.492  0.0000E+00  0.0000E+00
    -23.488  0.0000E+00  0.0000E+00
    -23.484  0.0000E+00  0.0000E+00
    -23.480  0.0000E+00  0.0000E+00
    -23.476  0.0000E+00  0.0000E+00
    -23.472  0.0000E+00  0.0000E+00
    -23.468  0.0000E+00  0.0000E+00
    -23.464  0.0000E+00  0.0000E+00
    -23.460  0.0000E+00  0.0000E+00
    -23.456  0.0000E+00  0.0000E+00
    -23.452  0.0000E+00  0.0000E+00
    -23.448  0.0000E+00  0.0000E+00
    -23.444  0.0000E+00  0.0000E+00
    -23.440  0.0000E+00  0.0000E+00
    -23.436  0.0000E+00  0.0000E+00
    -23.432  0.0000E+00  0.0000E+00
    -23.428  0.0000E+00  0.0000E+00
    -23.424  0.0000E+00  0.0000E+00
    -23.420  0.0000E+00  0.0000E+00
    -23.416  0.0000E+00  0.0000E+00
    -23.412  0.0000E+00  0.0000E+00
    -23.408  0.0000E+00  0.0000E+00
    -23.404  0.0000E+00  0.0000E+00
    -23.400  0.0000E+00  0.0000E+00
    -23.396  0.0000E+00  0.0000E+00
    -23.392  0.0000E+00  0.0000E+00
    -23.388  0.0000E+00  0.0000E+00
    -23.384  0.0000E+00  0.0000E+00
    -23.380  0.0000E+00  0.0000E+00
    -23.377  0.0000E+00  0.0000E+00
    -23.373  0.0000E+00  0.0000E+00
    -23.369  0.0000E+00  0.0000E+00
    -23.365  0.0000E+00  0.0000E+00
    -23.361  0.0000E+00  0.0000E+00
    -23.357  0.0000E+00  0.0000E+00
    -23.353  0.0000E+00  0.0000E+00
    -23.349  0.0000E+00  0.0000E+00
    -23.345  0.0000E+00  0.0000E+00
    -23.341  0.0000E+00  0.0000E+00
    -23.337  0.0000E+00  0.0000E+00
    -23.333  0.0000E+00  0.0000E+00
    -23.329  0.0000E+00  0.0000E+00
    -23.325  0.0000E+00  0.0000E+00
    -23.321  0.0000E+00  0.0000E+00
    -23.317  0.0000E+00  0.0000E+00
    -23.313  0.0000E+00  0.0000E+00
    -23.309  0.0000E+00  0.0000E+00
    -23.305  0.0000E+00  0.0000E+00
    -23.301  0.0000E+00  0.0000E+00
    -23.297  0.0000E+00  0.0000E+00
    -23.293  0.0000E+00  0.0000E+00
    -23.289  0.0000E+00  0.0000E+00
    -23.285  0.0000E+00  0.0000E+00
    -23.281  0.0000E+00  0.0000E+00
    -23.277  0.0000E+00  0.0000E+00
    -23.273  0.0000E+00  0.0000E+00
    -23.269  0.0000E+00  0.0000E+00
    -23.265  0.0000E+00  0.0000E+00
    -23.261  0.0000E+00  0.0000E+00
    -23.257  0.0000E+00  0.0000E+00
    -23.253  0.0000E+00  0.0000E+00
    -23.249  0.0000E+00  0.0000E+00
    -23.245  0.0000E+00  0.0000E+00
    -23.241  0.0000E+00  0.0000E+00
    -23.237  0.0000E+00  0.0000E+00
    -23.233  0.0000E+00  0.0000E+00
    -23.229  0.0000E+00  0.0000E+00
    -23.226  0.0000E+00  0.0000E+00
    -23.222  0.0000E+00  0.0000E+00
    -23.218  0.0000E+00  0.0000E+00
    -23.214  0.0000E+00  0.0000E+00
    -23.210  0.0000E+00  0.0000E+00
    -23.206  0.0000E+00  0.0000E+00
    -23.202  0.0000E+00  0.0000E+00
    -23.198  0.0000E+00  0.0000E+00
    -23.194  0.0000E+00  0.0000E+00
    -23.190  0.0000E+00  0.0000E+00
    -23.186  0.0000E+00  0.0000E+00
    -23.182  0.0000E+00  0.0000E+00
    -23.178  0.0000E+00  0.0000E+00
    -23.174  0.0000E+00  0.0000E+00
    -23.170  0.0000E+00  0.0000E+00
    -23.166  0.0000E+00  0.0000E+00
    -23.162  0.0000E+00  0.0000E+00
    -23.158  0.0000E+00  0.0000E+00
    -23.154  0.0000E+00  0.0000E+00
    -23.150  0.0000E+00  0.0000E+00
    -23.146  0.0000E+00  0.0000E+00
    -23.142  0.0000E+00  0.0000E+00
    -23.138  0.0000E+00  0.0000E+00
    -23.134  0.0000E+00  0.0000E+00
    -23.130  0.0000E+00  0.0000E+00
    -23.126  0.0000E+00  0.0000E+00
    -23.122  0.0000E+00  0.0000E+00
    -23.118  0.0000E+00  0.0000E+00
    -23.114  0.0000E+00  0.0000E+00
    -23.110  0.0000E+00  0.0000E+00
    -23.106  0.0000E+00  0.0000E+00
    -23.102  0.0000E+00  0.0000E+00
    -23.098  0.0000E+00  0.0000E+00
    -23.094  0.0000E+00  0.0000E+00
    -23.090  0.0000E+00  0.0000E+00
    -23.086  0.0000E+00  0.0000E+00
    -23.082  0.0000E+00  0.0000E+00
    -23.078  0.0000E+00  0.0000E+00
    -23.074  0.0000E+00  0.0000E+00
    -23.071  0.0000E+00  0.0000E+00
    -23.067  0.0000E+00  0.0000E+00
    -23.063  0.0000E+00  0.0000E+00
    -23.059  0.0000E+00  0.0000E+00
    -23.055  0.0000E+00  0.0000E+00
    -23.051  0.0000E+00  0.0000E+00
    -23.047  0.0000E+00  0.0000E+00
    -23.043  0.0000E+00  0.0000E+00
    -23.039  0.0000E+00  0.0000E+00
    -23.035  0.0000E+00  0.0000E+00
    -23.031  0.0000E+00  0.0000E+00
    -23.027  0.0000E+00  0.0000E+00
    -23.023  0.0000E+00  0.0000E+00
    -23.019  0.0000E+00  0.0000E+00
    -23.015  0.0000E+00  0.0000E+00
    -23.011  0.0000E+00  0.0000E+00
    -23.007  0.0000E+00  0.0000E+00
    -23.003  0.0000E+00  0.0000E+00
    -22.999  0.0000E+00  0.0000E+00
    -22.995  0.0000E+00  0.0000E+00
    -22.991  0.0000E+00  0.0000E+00
    -22.987  0.0000E+00  0.0000E+00
    -22.983  0.0000E+00  0.0000E+00
    -22.979  0.0000E+00  0.0000E+00
    -22.975  0.0000E+00  0.0000E+00
    -22.971  0.0000E+00  0.0000E+00
    -22.967  0.0000E+00  0.0000E+00
    -22.963  0.0000E+00  0.0000E+00
    -22.959  0.0000E+00  0.0000E+00
    -22.955  0.0000E+00  0.0000E+00
    -22.951  0.0000E+00  0.0000E+00
    -22.947  0.0000E+00  0.0000E+00
    -22.943  0.0000E+00  0.0000E+00
    -22.939  0.0000E+00  0.0000E+00
    -22.935  0.0000E+00  0.0000E+00
    -22.931  0.0000E+00  0.0000E+00
    -22.927  0.0000E+00  0.0000E+00
    -22.923  0.0000E+00  0.0000E+00
    -22.919  0.0000E+00  0.0000E+00
    -22.916  0.0000E+00  0.0000E+00
    -22.912  0.0000E+00  0.0000E+00
    -22.908  0.0000E+00  0.0000E+00
    -22.904  0.0000E+00  0.0000E+00
    -22.900  0.0000E+00  0.0000E+00
    -22.896  0.0000E+00  0.0000E+00
    -22.892  0.0000E+00  0.0000E+00
    -22.888  0.0000E+00  0.0000E+00
    -22.884  0.0000E+00  0.0000E+00
    -22.880  0.0000E+00  0.0000E+00
    -22.876  0.0000E+00  0.0000E+00
    -22.872  0.0000E+00  0.0000E+00
    -22.868  0.0000E+00  0.0000E+00
    -22.864  0.0000E+00  0.0000E+00
    -22.860  0.0000E+00  0.0000E+00
    -22.856  0.0000E+00  0.0000E+00
    -22.852  0.0000E+00  0.0000E+00
    -22.848  0.0000E+00  0.0000E+00
    -22.844  0.0000E+00  0.0000E+00
    -22.840  0.0000E+00  0.0000E+00
    -22.836  0.0000E+00  0.0000E+00
    -22.832  0.0000E+00  0.0000E+00
    -22.828  0.0000E+00  0.0000E+00
    -22.824  0.0000E+00  0.0000E+00
    -22.820  0.0000E+00  0.0000E+00
    -22.816  0.0000E+00  0.0000E+00
    -22.812  0.0000E+00  0.0000E+00
    -22.808  0.0000E+00  0.0000E+00
    -22.804  0.0000E+00  0.0000E+00
    -22.800  0.0000E+00  0.0000E+00
    -22.796  0.0000E+00  0.0000E+00
    -22.792  0.0000E+00  0.0000E+00
    -22.788  0.0000E+00  0.0000E+00
    -22.784  0.0000E+00  0.0000E+00
    -22.780  0.0000E+00  0.0000E+00
    -22.776  0.0000E+00  0.0000E+00
    -22.772  0.0000E+00  0.0000E+00
    -22.768  0.0000E+00  0.0000E+00
    -22.764  0.0000E+00  0.0000E+00
    -22.761  0.0000E+00  0.0000E+00
    -22.757  0.0000E+00  0.0000E+00
    -22.753  0.0000E+00  0.0000E+00
    -22.749  0.0000E+00  0.0000E+00
    -22.745  0.0000E+00  0.0000E+00
    -22.741  0.0000E+00  0.0000E+00
    -22.737  0.0000E+00  0.0000E+00
    -22.733  0.0000E+00  0.0000E+00
    -22.729  0.0000E+00  0.0000E+00
    -22.725  0.0000E+00  0.0000E+00
    -22.721  0.0000E+00  0.0000E+00
    -22.717  0.0000E+00  0.0000E+00
    -22.713  0.0000E+00  0.0000E+00
    -22.709  0.0000E+00  0.0000E+00
    -22.705  0.0000E+00  0.0000E+00
    -22.701  0.0000E+00  0.0000E+00
    -22.697  0.0000E+00  0.0000E+00
    -22.693  0.0000E+00  0.0000E+00
    -22.689  0.0000E+00  0.0000E+00
    -22.685  0.0000E+00  0.0000E+00
    -22.681  0.0000E+00  0.0000E+00
    -22.677  0.0000E+00  0.0000E+00
    -22.673  0.0000E+00  0.0000E+00
    -22.669  0.0000E+00  0.0000E+00
    -22.665  0.0000E+00  0.0000E+00
    -22.661  0.0000E+00  0.0000E+00
    -22.657  0.0000E+00  0.0000E+00
    -22.653  0.0000E+00  0.0000E+00
    -22.649  0.0000E+00  0.0000E+00
    -22.645  0.0000E+00  0.0000E+00
    -22.641  0.0000E+00  0.0000E+00
    -22.637  0.0000E+00  0.0000E+00
    -22.633  0.0000E+00  0.0000E+00
    -22.629  0.0000E+00  0.0000E+00
    -22.625  0.0000E+00  0.0000E+00
    -22.621  0.0000E+00  0.0000E+00
    -22.617  0.0000E+00  0.0000E+00
    -22.613  0.0000E+00  0.0000E+00
    -22.609  0.0000E+00  0.0000E+00
    -22.606  0.0000E+00  0.0000E+00
    -22.602  0.0000E+00  0.0000E+00
    -22.598  0.0000E+00  0.0000E+00
    -22.594  0.0000E+00  0.0000E+00
    -22.590  0.0000E+00  0.0000E+00
    -22.586  0.0000E+00  0.0000E+00
    -22.582  0.0000E+00  0.0000E+00
    -22.578  0.0000E+00  0.0000E+00
    -22.574  0.0000E+00  0.0000E+00
    -22.570  0.0000E+00  0.0000E+00
    -22.566  0.0000E+00  0.0000E+00
    -22.562  0.0000E+00  0.0000E+00
    -22.558  0.0000E+00  0.0000E+00
    -22.554  0.0000E+00  0.0000E+00
    -22.550  0.0000E+00  0.0000E+00
    -22.546  0.0000E+00  0.0000E+00
    -22.542  0.0000E+00  0.0000E+00
    -22.538  0.0000E+00  0.0000E+00
    -22.534  0.0000E+00  0.0000E+00
    -22.530  0.0000E+00  0.0000E+00
    -22.526  0.0000E+00  0.0000E+00
    -22.522  0.0000E+00  0.0000E+00
    -22.518  0.0000E+00  0.0000E+00
    -22.514  0.0000E+00  0.0000E+00
    -22.510  0.0000E+00  0.0000E+00
    -22.506  0.0000E+00  0.0000E+00
    -22.502  0.0000E+00  0.0000E+00
    -22.498  0.0000E+00  0.0000E+00
    -22.494  0.0000E+00  0.0000E+00
    -22.490  0.0000E+00  0.0000E+00
    -22.486  0.0000E+00  0.0000E+00
    -22.482  0.0000E+00  0.0000E+00
    -22.478  0.0000E+00  0.0000E+00
    -22.474  0.0000E+00  0.0000E+00
    -22.470  0.0000E+00  0.0000E+00
    -22.466  0.0000E+00  0.0000E+00
    -22.462  0.0000E+00  0.0000E+00
    -22.458  0.0000E+00  0.0000E+00
    -22.454  0.0000E+00  0.0000E+00
    -22.451  0.0000E+00  0.0000E+00
    -22.447  0.0000E+00  0.0000E+00
    -22.443  0.0000E+00  0.0000E+00
    -22.439  0.0000E+00  0.0000E+00
    -22.435  0.0000E+00  0.0000E+00
    -22.431  0.0000E+00  0.0000E+00
    -22.427  0.0000E+00  0.0000E+00
    -22.423  0.0000E+00  0.0000E+00
    -22.419  0.0000E+00  0.0000E+00
    -22.415  0.0000E+00  0.0000E+00
    -22.411  0.0000E+00  0.0000E+00
    -22.407  0.0000E+00  0.0000E+00
    -22.403  0.0000E+00  0.0000E+00
    -22.399  0.0000E+00  0.0000E+00
    -22.395  0.0000E+00  0.0000E+00
    -22.391  0.0000E+00  0.0000E+00
    -22.387  0.0000E+00  0.0000E+00
    -22.383  0.0000E+00  0.0000E+00
    -22.379  0.0000E+00  0.0000E+00
    -22.375  0.0000E+00  0.0000E+00
    -22.371  0.0000E+00  0.0000E+00
    -22.367  0.0000E+00  0.0000E+00
    -22.363  0.0000E+00  0.0000E+00
    -22.359  0.0000E+00  0.0000E+00
    -22.355  0.1663E-16  0.6608E-19
    -22.351  0.1317E-14  0.5299E-17
    -22.347  0.7552E-13  0.3054E-15
    -22.343  0.3172E-11  0.1291E-13
    -22.339  0.9763E-10  0.4009E-12
    -22.335  0.2202E-08  0.9152E-11
    -22.331  0.3641E-07  0.1539E-09
    -22.327  0.4416E-06  0.1909E-08
    -22.323  0.3930E-05  0.1753E-07
    -22.319  0.2567E-04  0.1196E-06
    -22.315  0.1232E-03  0.6090E-06
    -22.311  0.4340E-03  0.2334E-05
    -22.307  0.1124E-02  0.6800E-05
    -22.303  0.2139E-02  0.1530E-04
    -22.299  0.2992E-02  0.2719E-04
    -22.296  0.3077E-02  0.3942E-04
    -22.292  0.2326E-02  0.4866E-04
    -22.288  0.1293E-02  0.5380E-04
    -22.284  0.5279E-03  0.5590E-04
    -22.280  0.1585E-03  0.5653E-04
    -22.276  0.3564E-04  0.5667E-04
    -22.272  0.1309E-04  0.5672E-04
    -22.268  0.5817E-04  0.5695E-04
    -22.264  0.3265E-03  0.5825E-04
    -22.260  0.1361E-02  0.6366E-04
    -22.256  0.4169E-02  0.8023E-04
    -22.252  0.9385E-02  0.1175E-03
    -22.248  0.1553E-01  0.1792E-03
    -22.244  0.1889E-01  0.2543E-03
    -22.240  0.1689E-01  0.3214E-03
    -22.236  0.1110E-01  0.3655E-03
    -22.232  0.5363E-02  0.3868E-03
    -22.228  0.1904E-02  0.3944E-03
    -22.224  0.4969E-03  0.3964E-03
    -22.220  0.9521E-04  0.3968E-03
    -22.216  0.1340E-04  0.3968E-03
    -22.212  0.1384E-05  0.3968E-03
    -22.208  0.1048E-06  0.3968E-03
    -22.204  0.5825E-08  0.3968E-03
    -22.200  0.2373E-09  0.3968E-03
    -22.196  0.7084E-11  0.3968E-03
    -22.192  0.1555E-12  0.3968E-03
    -22.188  0.4157E-13  0.3968E-03
    -22.184  0.1988E-11  0.3968E-03
    -22.180  0.7408E-10  0.3968E-03
    -22.176  0.2022E-08  0.3968E-03
    -22.172  0.4046E-07  0.3968E-03
    -22.168  0.5935E-06  0.3968E-03
    -22.164  0.6388E-05  0.3969E-03
    -22.160  0.5046E-04  0.3971E-03
    -22.156  0.2926E-03  0.3982E-03
    -22.152  0.1246E-02  0.4032E-03
    -22.148  0.3899E-02  0.4187E-03
    -22.144  0.8964E-02  0.4543E-03
    -22.141  0.1515E-01  0.5145E-03
    -22.137  0.1882E-01  0.5893E-03
    -22.133  0.1719E-01  0.6576E-03
    -22.129  0.1154E-01  0.7034E-03
    -22.125  0.5694E-02  0.7261E-03
    -22.121  0.2065E-02  0.7343E-03
    -22.117  0.5504E-03  0.7365E-03
    -22.113  0.1096E-03  0.7369E-03
    -22.109  0.3328E-04  0.7370E-03
    -22.105  0.1230E-03  0.7375E-03
    -22.101  0.6073E-03  0.7399E-03
    -22.097  0.2232E-02  0.7488E-03
    -22.093  0.6028E-02  0.7728E-03
    -22.089  0.1196E-01  0.8203E-03
    -22.085  0.1746E-01  0.8897E-03
    -22.081  0.1873E-01  0.9641E-03
    -22.077  0.1477E-01  0.1023E-02
    -22.073  0.8559E-02  0.1057E-02
    -22.069  0.3647E-02  0.1071E-02
    -22.065  0.1142E-02  0.1076E-02
    -22.061  0.2626E-03  0.1077E-02
    -22.057  0.4436E-04  0.1077E-02
    -22.053  0.5500E-05  0.1077E-02
    -22.049  0.5006E-06  0.1077E-02
    -22.045  0.3342E-07  0.1077E-02
    -22.041  0.1636E-08  0.1077E-02
    -22.037  0.5869E-10  0.1077E-02
    -22.033  0.1543E-11  0.1077E-02
    -22.029  0.2971E-13  0.1077E-02
    -22.025  0.4181E-15  0.1077E-02
    -22.021  0.0000E+00  0.1077E-02
    -22.017  0.0000E+00  0.1077E-02
    -22.013  0.0000E+00  0.1077E-02
    -22.009  0.0000E+00  0.1077E-02
    -22.005  0.0000E+00  0.1077E-02
    -22.001  0.0000E+00  0.1077E-02
    -21.997  0.0000E+00  0.1077E-02
    -21.993  0.0000E+00  0.1077E-02
    -21.989  0.0000E+00  0.1077E-02
    -21.986  0.0000E+00  0.1077E-02
    -21.982  0.9502E-17  0.1077E-02
    -21.978  0.9312E-15  0.1077E-02
    -21.974  0.6578E-13  0.1077E-02
    -21.970  0.3390E-11  0.1077E-02
    -21.966  0.1280E-09  0.1077E-02
    -21.962  0.3539E-08  0.1077E-02
    -21.958  0.7174E-07  0.1077E-02
    -21.954  0.1066E-05  0.1077E-02
    -21.950  0.1163E-04  0.1077E-02
    -21.946  0.9306E-04  0.1078E-02
    -21.942  0.5467E-03  0.1080E-02
    -21.938  0.2359E-02  0.1089E-02
    -21.934  0.7477E-02  0.1119E-02
    -21.930  0.1742E-01  0.1188E-02
    -21.926  0.2982E-01  0.1307E-02
    -21.922  0.3753E-01  0.1456E-02
    -21.918  0.3472E-01  0.1594E-02
    -21.914  0.2361E-01  0.1687E-02
    -21.910  0.1181E-01  0.1734E-02
    -21.906  0.4338E-02  0.1752E-02
    -21.902  0.1171E-02  0.1756E-02
    -21.898  0.2322E-03  0.1757E-02
    -21.894  0.3382E-04  0.1757E-02
    -21.890  0.3614E-05  0.1757E-02
    -21.886  0.2834E-06  0.1757E-02
    -21.882  0.1630E-07  0.1757E-02
    -21.878  0.6874E-09  0.1757E-02
    -21.874  0.2124E-10  0.1757E-02
    -21.870  0.4813E-12  0.1757E-02
    -21.866  0.4435E-13  0.1757E-02
    -21.862  0.1861E-11  0.1757E-02
    -21.858  0.6971E-10  0.1757E-02
    -21.854  0.1913E-08  0.1757E-02
    -21.850  0.3849E-07  0.1757E-02
    -21.846  0.5677E-06  0.1757E-02
    -21.842  0.6144E-05  0.1757E-02
    -21.838  0.4879E-04  0.1758E-02
    -21.834  0.2845E-03  0.1759E-02
    -21.831  0.1218E-02  0.1764E-02
    -21.827  0.3832E-02  0.1779E-02
    -21.823  0.8857E-02  0.1814E-02
    -21.819  0.1505E-01  0.1874E-02
    -21.815  0.1880E-01  0.1949E-02
    -21.811  0.1726E-01  0.2017E-02
    -21.807  0.1165E-01  0.2063E-02
    -21.803  0.5780E-02  0.2086E-02
    -21.799  0.2108E-02  0.2095E-02
    -21.795  0.5647E-03  0.2097E-02
    -21.791  0.1111E-03  0.2097E-02
    -21.787  0.1606E-04  0.2097E-02
    -21.783  0.1703E-05  0.2098E-02
    -21.779  0.1326E-06  0.2098E-02
    -21.775  0.7566E-08  0.2098E-02
    -21.771  0.3166E-09  0.2098E-02
    -21.767  0.9708E-11  0.2098E-02
    -21.763  0.2181E-12  0.2098E-02
    -21.759  0.3592E-14  0.2098E-02
    -21.755  0.3801E-16  0.2098E-02
    -21.751  0.0000E+00  0.2098E-02
    -21.747  0.0000E+00  0.2098E-02
    -21.743  0.0000E+00  0.2098E-02
    -21.739  0.0000E+00  0.2098E-02
    -21.735  0.0000E+00  0.2098E-02
    -21.731  0.0000E+00  0.2098E-02
    -21.727  0.0000E+00  0.2098E-02
    -21.723  0.0000E+00  0.2098E-02
    -21.719  0.0000E+00  0.2098E-02
    -21.715  0.0000E+00  0.2098E-02
    -21.711  0.9027E-16  0.2098E-02
    -21.707  0.7153E-14  0.2098E-02
    -21.703  0.4132E-12  0.2098E-02
    -21.699  0.1749E-10  0.2098E-02
    -21.695  0.5421E-09  0.2098E-02
    -21.691  0.1232E-07  0.2098E-02
    -21.687  0.2052E-06  0.2098E-02
    -21.683  0.2507E-05  0.2098E-02
    -21.679  0.2247E-04  0.2098E-02
    -21.676  0.1479E-03  0.2098E-02
    -21.672  0.7146E-03  0.2101E-02
    -21.668  0.2537E-02  0.2111E-02
    -21.664  0.6616E-02  0.2137E-02
    -21.660  0.1268E-01  0.2188E-02
    -21.656  0.1787E-01  0.2259E-02
    -21.652  0.1851E-01  0.2332E-02
    -21.648  0.1410E-01  0.2388E-02
    -21.644  0.7892E-02  0.2420E-02
    -21.640  0.3247E-02  0.2433E-02
    -21.636  0.9817E-03  0.2437E-02
    -21.632  0.2197E-03  0.2437E-02
    -21.628  0.5288E-04  0.2438E-02
    -21.624  0.1353E-03  0.2438E-02
    -21.620  0.7287E-03  0.2441E-02
    -21.616  0.2972E-02  0.2453E-02
    -21.612  0.8911E-02  0.2488E-02
    -21.608  0.1963E-01  0.2566E-02
    -21.604  0.3180E-01  0.2693E-02
    -21.600  0.3786E-01  0.2843E-02
    -21.596  0.3313E-01  0.2975E-02
    -21.592  0.2132E-01  0.3060E-02
    -21.588  0.1008E-01  0.3100E-02
    -21.584  0.3503E-02  0.3114E-02
    -21.580  0.8946E-03  0.3117E-02
    -21.576  0.1678E-03  0.3118E-02
    -21.572  0.2310E-04  0.3118E-02
    -21.568  0.2335E-05  0.3118E-02
    -21.564  0.1732E-06  0.3118E-02
    -21.560  0.9416E-08  0.3118E-02
    -21.556  0.3754E-09  0.3118E-02
    -21.552  0.1097E-10  0.3118E-02
    -21.548  0.2346E-12  0.3118E-02
    -21.544  0.3687E-14  0.3118E-02
    -21.540  0.3801E-16  0.3118E-02
    -21.536  0.0000E+00  0.3118E-02
    -21.532  0.0000E+00  0.3118E-02
    -21.528  0.0000E+00  0.3118E-02
    -21.524  0.0000E+00  0.3118E-02
    -21.521  0.0000E+00  0.3118E-02
    -21.517  0.0000E+00  0.3118E-02
    -21.513  0.0000E+00  0.3118E-02
    -21.509  0.0000E+00  0.3118E-02
    -21.505  0.0000E+00  0.3118E-02
    -21.501  0.4751E-17  0.3118E-02
    -21.497  0.2708E-15  0.3118E-02
    -21.493  0.1997E-13  0.3118E-02
    -21.489  0.1069E-11  0.3118E-02
    -21.485  0.4189E-10  0.3118E-02
    -21.481  0.1203E-08  0.3118E-02
    -21.477  0.2532E-07  0.3118E-02
    -21.473  0.3908E-06  0.3118E-02
    -21.469  0.4425E-05  0.3118E-02
    -21.465  0.3676E-04  0.3118E-02
    -21.461  0.2242E-03  0.3119E-02
    -21.457  0.1004E-02  0.3123E-02
    -21.453  0.3304E-02  0.3136E-02
    -21.449  0.7990E-02  0.3168E-02
    -21.445  0.1420E-01  0.3224E-02
    -21.441  0.1855E-01  0.3298E-02
    -21.437  0.1781E-01  0.3369E-02
    -21.433  0.1258E-01  0.3419E-02
    -21.429  0.6527E-02  0.3445E-02
    -21.425  0.2489E-02  0.3455E-02
    -21.421  0.6976E-03  0.3457E-02
    -21.417  0.1436E-03  0.3458E-02
    -21.413  0.2171E-04  0.3458E-02
    -21.409  0.2409E-05  0.3458E-02
    -21.405  0.1962E-06  0.3458E-02
    -21.401  0.1171E-07  0.3458E-02
    -21.397  0.5129E-09  0.3458E-02
    -21.393  0.1646E-10  0.3458E-02
    -21.389  0.3869E-12  0.3458E-02
    -21.385  0.6654E-14  0.3458E-02
    -21.381  0.8552E-16  0.3458E-02
    -21.377  0.0000E+00  0.3458E-02
    -21.373  0.0000E+00  0.3458E-02
    -21.369  0.0000E+00  0.3458E-02
    -21.366  0.0000E+00  0.3458E-02
    -21.362  0.0000E+00  0.3458E-02
    -21.358  0.0000E+00  0.3458E-02
    -21.354  0.0000E+00  0.3458E-02
    -21.350  0.0000E+00  0.3458E-02
    -21.346  0.0000E+00  0.3458E-02
    -21.342  0.0000E+00  0.3458E-02
    -21.338  0.2280E-15  0.3458E-02
    -21.334  0.1750E-13  0.3458E-02
    -21.330  0.9960E-12  0.3458E-02
    -21.326  0.4153E-10  0.3458E-02
    -21.322  0.1268E-08  0.3458E-02
    -21.318  0.2839E-07  0.3458E-02
    -21.314  0.4659E-06  0.3458E-02
    -21.310  0.5609E-05  0.3458E-02
    -21.306  0.4954E-04  0.3458E-02
    -21.302  0.3212E-03  0.3460E-02
    -21.298  0.1529E-02  0.3466E-02
    -21.294  0.5349E-02  0.3487E-02
    -21.290  0.1375E-01  0.3542E-02
    -21.286  0.2597E-01  0.3645E-02
    -21.282  0.3606E-01  0.3788E-02
    -21.278  0.3680E-01  0.3934E-02
    -21.274  0.2762E-01  0.4044E-02
    -21.270  0.1523E-01  0.4105E-02
    -21.266  0.6175E-02  0.4129E-02
    -21.262  0.1840E-02  0.4136E-02
    -21.258  0.4026E-03  0.4138E-02
    -21.254  0.6470E-04  0.4138E-02
    -21.250  0.7633E-05  0.4138E-02
    -21.246  0.6608E-06  0.4138E-02
    -21.242  0.4196E-07  0.4138E-02
    -21.238  0.1954E-08  0.4138E-02
    -21.234  0.6667E-10  0.4138E-02
    -21.230  0.1668E-11  0.4138E-02
    -21.226  0.7391E-13  0.4138E-02
    -21.222  0.2308E-11  0.4138E-02
    -21.218  0.8990E-10  0.4138E-02
    -21.214  0.2566E-08  0.4138E-02
    -21.211  0.5367E-07  0.4138E-02
    -21.207  0.8232E-06  0.4138E-02
    -21.203  0.9262E-05  0.4138E-02
    -21.199  0.7647E-04  0.4139E-02
    -21.195  0.4635E-03  0.4141E-02
    -21.191  0.2063E-02  0.4149E-02
    -21.187  0.6748E-02  0.4176E-02
    -21.183  0.1621E-01  0.4240E-02
    -21.179  0.2864E-01  0.4354E-02
    -21.175  0.3718E-01  0.4502E-02
    -21.171  0.3549E-01  0.4643E-02
    -21.167  0.2490E-01  0.4742E-02
    -21.163  0.1284E-01  0.4793E-02
    -21.159  0.4868E-02  0.4812E-02
    -21.155  0.1356E-02  0.4817E-02
    -21.151  0.2774E-03  0.4818E-02
    -21.147  0.4167E-04  0.4819E-02
    -21.143  0.4595E-05  0.4819E-02
    -21.139  0.3718E-06  0.4819E-02
    -21.135  0.2207E-07  0.4819E-02
    -21.131  0.9602E-09  0.4819E-02
    -21.127  0.3062E-10  0.4819E-02
    -21.123  0.7153E-12  0.4819E-02
    -21.119  0.1223E-13  0.4819E-02
    -21.115  0.1520E-15  0.4819E-02
    -21.111  0.0000E+00  0.4819E-02
    -21.107  0.0000E+00  0.4819E-02
    -21.103  0.0000E+00  0.4819E-02
    -21.099  0.0000E+00  0.4819E-02
    -21.095  0.0000E+00  0.4819E-02
    -21.091  0.0000E+00  0.4819E-02
    -21.087  0.0000E+00  0.4819E-02
    -21.083  0.0000E+00  0.4819E-02
    -21.079  0.0000E+00  0.4819E-02
    -21.075  0.0000E+00  0.4819E-02
    -21.071  0.0000E+00  0.4819E-02
    -21.067  0.0000E+00  0.4819E-02
    -21.063  0.0000E+00  0.4819E-02
    -21.059  0.0000E+00  0.4819E-02
    -21.056  0.0000E+00  0.4819E-02
    -21.052  0.0000E+00  0.4819E-02
    -21.048  0.0000E+00  0.4819E-02
    -21.044  0.0000E+00  0.4819E-02
    -21.040  0.0000E+00  0.4819E-02
    -21.036  0.0000E+00  0.4819E-02
    -21.032  0.0000E+00  0.4819E-02
    -21.028  0.0000E+00  0.4819E-02
    -21.024  0.0000E+00  0.4819E-02
    -21.020  0.4276E-16  0.4819E-02
    -21.016  0.3440E-14  0.4819E-02
    -21.012  0.2098E-12  0.4819E-02
    -21.008  0.9368E-11  0.4819E-02
    -21.004  0.3064E-09  0.4819E-02
    -21.000  0.7346E-08  0.4819E-02
    -20.996  0.1291E-06  0.4819E-02
    -20.992  0.1664E-05  0.4819E-02
    -20.988  0.1573E-04  0.4819E-02
    -20.984  0.1092E-03  0.4819E-02
    -20.980  0.5566E-03  0.4821E-02
    -20.976  0.2084E-02  0.4830E-02
    -20.972  0.5732E-02  0.4852E-02
    -20.968  0.1159E-01  0.4898E-02
    -20.964  0.1722E-01  0.4967E-02
    -20.960  0.1881E-01  0.5042E-02
    -20.956  0.1510E-01  0.5102E-02
    -20.952  0.8917E-02  0.5137E-02
    -20.948  0.3869E-02  0.5152E-02
    -20.944  0.1234E-02  0.5157E-02
    -20.940  0.2890E-03  0.5159E-02
    -20.936  0.4971E-04  0.5159E-02
    -20.932  0.6279E-05  0.5159E-02
    -20.928  0.5820E-06  0.5159E-02
    -20.924  0.3957E-07  0.5159E-02
    -20.920  0.1973E-08  0.5159E-02
    -20.916  0.7211E-10  0.5159E-02
    -20.912  0.1931E-11  0.5159E-02
    -20.908  0.5740E-13  0.5159E-02
    -20.904  0.1048E-11  0.5159E-02
    -20.901  0.4111E-10  0.5159E-02
    -20.897  0.1183E-08  0.5159E-02
    -20.893  0.2493E-07  0.5159E-02
    -20.889  0.3854E-06  0.5159E-02
    -20.885  0.4371E-05  0.5159E-02
    -20.881  0.3638E-04  0.5159E-02
    -20.877  0.2222E-03  0.5160E-02
    -20.873  0.9970E-03  0.5164E-02
    -20.869  0.3286E-02  0.5177E-02
    -20.865  0.7959E-02  0.5208E-02
    -20.861  0.1417E-01  0.5265E-02
    -20.857  0.1854E-01  0.5338E-02
    -20.853  0.1783E-01  0.5409E-02
    -20.849  0.1261E-01  0.5459E-02
    -20.845  0.6555E-02  0.5485E-02
    -20.841  0.2504E-02  0.5495E-02
    -20.837  0.7033E-03  0.5498E-02
    -20.833  0.1490E-03  0.5499E-02
    -20.829  0.5942E-04  0.5499E-02
    -20.825  0.2559E-03  0.5500E-02
    -20.821  0.1259E-02  0.5505E-02
    -20.817  0.4591E-02  0.5523E-02
    -20.813  0.1231E-01  0.5572E-02
    -20.809  0.2424E-01  0.5669E-02
    -20.805  0.3511E-01  0.5808E-02
    -20.801  0.3737E-01  0.5957E-02
    -20.797  0.2925E-01  0.6073E-02
    -20.793  0.1682E-01  0.6140E-02
    -20.789  0.7114E-02  0.6168E-02
    -20.785  0.2210E-02  0.6177E-02
    -20.781  0.5045E-03  0.6179E-02
    -20.777  0.8457E-04  0.6179E-02
    -20.773  0.1041E-04  0.6179E-02
    -20.769  0.9400E-06  0.6179E-02
    -20.765  0.6227E-07  0.6179E-02
    -20.761  0.3025E-08  0.6179E-02
    -20.757  0.1077E-09  0.6179E-02
    -20.753  0.2810E-11  0.6179E-02
    -20.749  0.5369E-13  0.6179E-02
    -20.746  0.7601E-15  0.6179E-02
    -20.742  0.0000E+00  0.6179E-02
    -20.738  0.0000E+00  0.6179E-02
    -20.734  0.0000E+00  0.6179E-02
    -20.730  0.0000E+00  0.6179E-02
    -20.726  0.0000E+00  0.6179E-02
    -20.722  0.0000E+00  0.6179E-02
    -20.718  0.0000E+00  0.6179E-02
    -20.714  0.0000E+00  0.6179E-02
    -20.710  0.0000E+00  0.6179E-02
    -20.706  0.0000E+00  0.6179E-02
    -20.702  0.1805E-15  0.6179E-02
    -20.698  0.1386E-13  0.6179E-02
    -20.694  0.8032E-12  0.6179E-02
    -20.690  0.3407E-10  0.6179E-02
    -20.686  0.1059E-08  0.6179E-02
    -20.682  0.2410E-07  0.6179E-02
    -20.678  0.4024E-06  0.6179E-02
    -20.674  0.4928E-05  0.6179E-02
    -20.670  0.4428E-04  0.6179E-02
    -20.666  0.2920E-03  0.6180E-02
    -20.662  0.1414E-02  0.6186E-02
    -20.658  0.5032E-02  0.6206E-02
    -20.654  0.1315E-01  0.6258E-02
    -20.650  0.2527E-01  0.6359E-02
    -20.646  0.3569E-01  0.6501E-02