    2    2   80    1
  0.5238761E+02  0.2459512E-09  0.2459512E-09  0.2000000E-08  0.5000000E-15
  1.000000000000000E-004
  CAR 
 C:graphene                              
      8    221      8
 
  0.3742002E-15  0.3742002E-15  0.1262379E-14  0.2267574E-02
    1      -22.299123   1.000000
    2      -10.393040   1.000000
    3       -5.752724   1.000000
    4       -5.752360   1.000000
    5        0.523531   0.000000
    6        1.325699   0.000000
    7        1.699864   0.000000
    8        2.604918   0.000000
 
  0.4761905E-01  0.3771171E-15  0.1262379E-14  0.4535147E-02
    1      -22.245289   1.000000
    2      -10.328624   1.000000
    3       -5.973312   1.000000
    4       -5.869495   1.000000
    5        0.596607   0.000000
    6        1.399755   0.000000
    7        1.774807   0.000000
    8        2.679216   0.000000
 
  0.9523810E-01  0.3768972E-15  0.1262379E-14  0.4535147E-02
    1      -22.083965   1.000000
    2      -10.135862   1.000000
    3       -6.593164   1.000000
    4       -6.189256   1.000000
    5        0.815883   0.000000
    6        1.621810   0.000000
    7        1.999648   0.000000
    8        2.902022   0.000000
 
  0.1428571E+00  0.3593300E-15  0.1262379E-14  0.4535147E-02
    1      -21.815719   1.000000
    2       -9.816478   1.000000
    3       -7.512521   1.000000
    4       -6.640854   1.000000
    5        1.181335   0.000000
    6        1.991439   0.000000
    7        2.374392   0.000000
    8        3.272985   0.000000
 
  0.1904762E+00  0.3695184E-15  0.1262379E-14  0.4535147E-02
    1      -21.441552   1.000000
    2       -9.373609   1.000000
    3       -8.625114   1.000000
    4       -7.149574   1.000000
    5        1.692648   0.000000
    6        2.507473   0.000000
    7        2.899004   0.000000
    8        3.790894   0.000000
 
  0.2380952E+00  0.1267399E-14  0.1262379E-14  0.4535147E-02
    1      -20.962969   1.000000
    2       -9.844720   1.000000
    3       -8.812603   1.000000
    4       -7.656542   1.000000
    5        2.349062   0.000000
    6        3.164445   0.000000
    7        3.573338   0.000000
    8        4.437893   0.000000
 
  0.2857143E+00  0.3625559E-15  0.1262379E-14  0.4535147E-02
    1      -20.382231   1.000000
    2      -11.108627   1.000000
    3       -8.142618   1.000000
    4       -8.120882   1.000000
    5        3.148919   0.000000
    6        3.501185   0.000000
    7        4.049809   0.000000
    8        4.396617   0.000000
 
  0.3333333E+00  0.3588666E-15  0.1262379E-14  0.4535147E-02
    1      -19.702806   1.000000
    2      -12.372213   1.000000
    3       -8.515764   1.000000
    4       -7.380249   1.000000
    5        2.212137   0.000000
    6        4.086034   0.000000
    7        4.959582   0.000000
    8        5.063316   0.000000
 
  0.3809524E+00  0.3551772E-15  0.1262379E-14  0.4535147E-02
    1      -18.930822   1.000000
    2      -13.602013   1.000000
    3       -8.823911   1.000000
    4       -6.559342   1.000000
    5        0.930286   0.000000
    6        4.857399   0.000000
    7        5.234846   0.000000
    8        6.053261   0.000000
 
  0.4285714E+00  0.3810475E-15  0.1262379E-14  0.4535147E-02
    1      -18.081399   1.000000
    2      -14.765296   1.000000
    3       -9.034524   1.000000
    4       -5.759969   1.000000
    5       -0.193887   0.000000
    6        4.787813   0.000000
    7        6.421842   0.000000
    8        7.286616   0.000000
 
  0.4761905E+00  0.3496025E-15  0.1262379E-14  0.4535147E-02
    1      -17.236622   1.000000
    2      -15.769443   1.000000
    3       -9.141271   1.000000
    4       -5.187334   1.000000
    5       -0.933757   0.000000
    6        4.736318   0.000000
    7        7.769020   0.000000
    8        8.643373   0.000000
 
  0.3771171E-15  0.4761905E-01  0.1262379E-14  0.4535147E-02
    1      -22.245289   1.000000
    2      -10.328624   1.000000
    3       -5.973362   1.000000
    4       -5.869445   1.000000
    5        0.596607   0.000000
    6        1.399755   0.000000
    7        1.774807   0.000000
    8        2.679216   0.000000
 
  0.4761905E-01  0.4761905E-01  0.1262379E-14  0.4535147E-02
    1      -22.245289   1.000000
    2      -10.328623   1.000000
    3       -5.973594   1.000000
    4       -5.869210   1.000000
    5        0.596607   0.000000
    6        1.399755   0.000000
    7        1.774807   0.000000
    8        2.679216   0.000000
 
  0.9523810E-01  0.4761905E-01  0.1262379E-14  0.4535147E-02
    1      -22.137709   1.000000
    2      -10.200032   1.000000
    3       -6.378416   1.000000
    4       -6.103155   1.000000
    5        0.742796   0.000000
    6        1.547814   0.000000
    7        1.924701   0.000000
    8        2.827771   0.000000
 
  0.1428571E+00  0.4761905E-01  0.1262379E-14  0.4535147E-02
    1      -21.922928   1.000000
    2       -9.943924   1.000000
    3       -7.115154   1.000000
    4       -6.522259   1.000000
    5        1.035232   0.000000
    6        1.843688   0.000000
    7        2.224506   0.000000
    8        3.124692   0.000000
 
  0.1904762E+00  0.4761905E-01  0.1262379E-14  0.4535147E-02
    1      -21.601725   1.000000
    2       -9.562676   1.000000
    3       -8.101167   1.000000
    4       -7.033184   1.000000
    5        1.473760   0.000000
    6        2.286707   0.000000
    7        2.674214   0.000000
    8        3.569398   0.000000
 
  0.2380952E+00  0.4761905E-01  0.1262379E-14  0.4535147E-02
    1      -21.175353   1.000000
    2       -9.245929   1.000000
    3       -9.060384   1.000000
    4       -7.563019   1.000000
    5        2.057864   0.000000
    6        2.874732   0.000000
    7        3.273757   0.000000
    8        4.158873   0.000000
 
  0.2857143E+00  0.4761905E-01  0.1262379E-14  0.4535147E-02
    1      -20.645681   1.000000
    2      -10.473851   1.000000
    3       -8.444007   1.000000
    4       -8.062865   1.000000
    5        2.786497   0.000000
    6        3.581863   0.000000
    7        4.022906   0.000000
    8        4.199488   0.000000
 
  0.3333333E+00  0.4761905E-01  0.1262379E-14  0.4535147E-02
    1      -20.015525   1.000000
    2      -11.729018   1.000000
    3       -8.501179   1.000000
    4       -7.725629   1.000000
    5        2.835675   0.000000
    6        3.657268   0.000000
    7        4.519852   0.000000
    8        4.919591   0.000000
 
  0.3809524E+00  0.4761905E-01  0.1262379E-14  0.4535147E-02
    1      -19.289421   1.000000
    2      -12.970820   1.000000
    3       -8.857831   1.000000
    4       -6.928339   1.000000
    5        1.535543   0.000000
    6        4.655995   0.000000
    7        5.240591   0.000000
    8        5.538006   0.000000
 
  0.4285714E+00  0.4761905E-01  0.1262379E-14  0.4535147E-02
    1      -18.476507   1.000000
    2      -14.166458   1.000000
    3       -9.120105   1.000000
    4       -6.102741   1.000000
    5        0.322718   0.000000
    6        5.068824   0.000000
    7        5.856005   0.000000
    8        6.700541   0.000000
 
  0.4761905E+00  0.4761905E-01  0.1262379E-14  0.4535147E-02
    1      -17.607435   1.000000
    2      -15.270523   1.000000
    3       -9.280249   1.000000
    4       -5.376902   1.000000
    5       -0.645406   0.000000
    6        4.998987   0.000000
    7        7.132161   0.000000
    8        7.992538   0.000000
 
 -0.4761905E+00  0.4761905E-01  0.1262379E-14  0.4535147E-02
    1      -16.988533   1.000000
    2      -15.968612   1.000000
    3       -9.334066   1.000000
    4       -5.050838   1.000000
    5       -1.053832   0.000000
    6        4.972746   0.000000
    7        8.464248   0.000000
    8        8.620238   0.000000
 
 -0.4285714E+00  0.4761905E-01  0.1262379E-14  0.4535147E-02
    1      -17.607433   1.000000
    2      -15.270522   1.000000
    3       -9.280251   1.000000
    4       -5.376906   1.000000
    5       -0.645397   0.000000
    6        4.998981   0.000000
    7        7.132163   0.000000
    8        7.992536   0.000000
 
 -0.3809524E+00  0.4761905E-01  0.1262379E-14  0.4535147E-02
    1      -18.476506   1.000000
    2      -14.166456   1.000000
    3       -9.120109   1.000000
    4       -6.102746   1.000000
    5        0.322731   0.000000
    6        5.068811   0.000000
    7        5.856008   0.000000
    8        6.700539   0.000000
 
 -0.3333333E+00  0.4761905E-01  0.1262379E-14  0.4535147E-02
    1      -19.289419   1.000000
    2      -12.970815   1.000000
    3       -8.857838   1.000000
    4       -6.928344   1.000000
    5        1.535561   0.000000
    6        4.655991   0.000000
    7        5.240577   0.000000
    8        5.538004   0.000000
 
 -0.2857143E+00  0.4761905E-01  0.1262379E-14  0.4535147E-02
    1      -20.015523   1.000000
    2      -11.729007   1.000000
    3       -8.501192   1.000000
    4       -7.725634   1.000000
    5        2.835696   0.000000
    6        3.657267   0.000000
    7        4.519851   0.000000
    8        4.919590   0.000000
 
 -0.2380952E+00  0.4761905E-01  0.1262379E-14  0.4535147E-02
    1      -20.645680   1.000000
    2      -10.473831   1.000000
    3       -8.444011   1.000000
    4       -8.062888   1.000000
    5        2.786497   0.000000
    6        3.581864   0.000000
    7        4.022905   0.000000
    8        4.199509   0.000000
 
 -0.1904762E+00  0.4761905E-01  0.1262379E-14  0.4535147E-02
    1      -21.175352   1.000000
    2       -9.245892   1.000000
    3       -9.060388   1.000000
    4       -7.563061   1.000000
    5        2.057863   0.000000
    6        2.874732   0.000000
    7        3.273757   0.000000
    8        4.158873   0.000000
 
 -0.1428571E+00  0.4761905E-01  0.1262379E-14  0.4535147E-02
    1      -21.601724   1.000000
    2       -9.562679   1.000000
    3       -8.101097   1.000000
    4       -7.033260   1.000000
    5        1.473760   0.000000
    6        2.286707   0.000000
    7        2.674214   0.000000
    8        3.569398   0.000000
 
 -0.9523810E-01  0.4761905E-01  0.1262379E-14  0.4535147E-02
    1      -21.922927   1.000000
    2       -9.943926   1.000000
    3       -7.115023   1.000000
    4       -6.522396   1.000000
    5        1.035231   0.000000
    6        1.843687   0.000000
    7        2.224506   0.000000
    8        3.124692   0.000000
 
 -0.4761905E-01  0.4761905E-01  0.1262379E-14  0.4535147E-02
    1      -22.137709   1.000000
    2      -10.200033   1.000000
    3       -6.378191   1.000000
    4       -6.103386   1.000000
    5        0.742796   0.000000
    6        1.547814   0.000000
    7        1.924701   0.000000
    8        2.827771   0.000000
 
  0.3768972E-15  0.9523810E-01  0.1262379E-14  0.4535147E-02
    1      -22.083965   1.000000
    2      -10.135862   1.000000
    3       -6.593209   1.000000
    4       -6.189210   1.000000
    5        0.815883   0.000000
    6        1.621810   0.000000
    7        1.999648   0.000000
    8        2.902022   0.000000
 
  0.4761905E-01  0.9523810E-01  0.1262379E-14  0.4535147E-02
    1      -22.137709   1.000000
    2      -10.200032   1.000000
    3       -6.378465   1.000000
    4       -6.103105   1.000000
    5        0.742796   0.000000
    6        1.547814   0.000000
    7        1.924701   0.000000
    8        2.827771   0.000000
 
  0.9523810E-01  0.9523810E-01  0.1262379E-14  0.4535147E-02
    1      -22.083965   1.000000
    2      -10.135860   1.000000
    3       -6.593415   1.000000
    4       -6.188995   1.000000
    5        0.815883   0.000000
    6        1.621810   0.000000
    7        1.999648   0.000000
    8        2.902022   0.000000
 
  0.1428571E+00  0.9523810E-01  0.1262379E-14  0.4535147E-02
    1      -21.922928   1.000000
    2       -9.943923   1.000000
    3       -7.115273   1.000000
    4       -6.522132   1.000000
    5        1.035232   0.000000
    6        1.843688   0.000000
    7        2.224506   0.000000
    8        3.124692   0.000000
 
  0.1904762E+00  0.9523810E-01  0.1262379E-14  0.4535147E-02
    1      -21.655189   1.000000
    2       -9.625879   1.000000
    3       -7.857339   1.000000
    4       -7.062633   1.000000
    5        1.400867   0.000000
    6        2.213060   0.000000
    7        2.599297   0.000000
    8        3.495495   0.000000
 
  0.2380952E+00  0.9523810E-01  0.1262379E-14  0.4535147E-02
    1      -21.281793   1.000000
    2       -9.184875   1.000000
    3       -8.800090   1.000000
    4       -7.671332   1.000000
    5        1.912440   0.000000
    6        2.728945   0.000000
    7        3.123994   0.000000
    8        4.013543   0.000000
 
  0.2857143E+00  0.9523810E-01  0.1262379E-14  0.4535147E-02
    1      -20.804332   1.000000
    2       -9.899863   1.000000
    3       -8.626213   1.000000
    4       -8.248360   1.000000
    5        2.569188   0.000000
    6        3.386674   0.000000
    7        3.798503   0.000000
    8        4.573893   0.000000
 
  0.3333333E+00  0.9523810E-01  0.1262379E-14  0.4535147E-02
    1      -20.225181   1.000000
    2      -11.087582   1.000000
    3       -8.754132   1.000000
    4       -7.958792   1.000000
    5        3.342493   0.000000
    6        3.369790   0.000000
    7        4.219263   0.000000
    8        4.622569   0.000000
 
  0.3809524E+00  0.9523810E-01  0.1262379E-14  0.4535147E-02
    1      -19.547995   1.000000
    2      -12.303330   1.000000
    3       -9.172267   1.000000
    4       -7.198710   1.000000
    5        2.080100   0.000000
    6        4.311416   0.000000
    7        5.160483   0.000000
    8        5.593666   0.000000
 
  0.4285714E+00  0.9523810E-01  0.1262379E-14  0.4535147E-02
    1      -18.779145   1.000000
    2      -13.502572   1.000000
    3       -9.493053   1.000000
    4       -6.378430   1.000000
    5        0.843832   0.000000
    6        5.376440   0.000000
    7        5.859236   0.000000
    8        6.247532   0.000000
 
  0.4761905E+00  0.9523810E-01  0.1262379E-14  0.4535147E-02
    1      -17.934213   1.000000
    2      -14.645848   1.000000
    3       -9.710153   1.000000
    4       -5.575146   1.000000
    5       -0.253302   0.000000
    6        5.714079   0.000000
    7        6.637147   0.000000
    8        7.461465   0.000000
 
 -0.4761905E+00  0.9523810E-01  0.1262379E-14  0.4535147E-02
    1      -17.095918   1.000000
    2      -15.636517   1.000000
    3       -9.819648   1.000000
    4       -4.992966   1.000000
    5       -0.987297   0.000000
    6        5.666287   0.000000
    7        7.971605   0.000000
    8        8.758051   0.000000
 
 -0.4285714E+00  0.9523810E-01  0.1262379E-14  0.4535147E-02
    1      -17.095916   1.000000
    2      -15.636516   1.000000
    3       -9.819650   1.000000
    4       -4.992972   1.000000
    5       -0.987288   0.000000
    6        5.666281   0.000000
    7        7.971609   0.000000
    8        8.758043   0.000000
 
 -0.3809524E+00  0.9523810E-01  0.1262379E-14  0.4535147E-02
    1      -17.934211   1.000000
    2      -14.645845   1.000000
    3       -9.710159   1.000000
    4       -5.575157   1.000000
    5       -0.253279   0.000000
    6        5.714059   0.000000
    7        6.637153   0.000000
    8        7.461459   0.000000
 
 -0.3333333E+00  0.9523810E-01  0.1262379E-14  0.4535147E-02
    1      -18.779142   1.000000
    2      -13.502564   1.000000
    3       -9.493066   1.000000
    4       -6.378442   1.000000
    5        0.843865   0.000000
    6        5.376430   0.000000
    7        5.859216   0.000000
    8        6.247528   0.000000
 
 -0.2857143E+00  0.9523810E-01  0.1262379E-14  0.4535147E-02
    1      -19.547992   1.000000
    2      -12.303312   1.000000
    3       -9.172291   1.000000
    4       -7.198721   1.000000
    5        2.080139   0.000000
    6        4.311414   0.000000
    7        5.160480   0.000000
    8        5.593665   0.000000
 
 -0.2380952E+00  0.9523810E-01  0.1262379E-14  0.4535147E-02
    1      -20.225179   1.000000
    2      -11.087546   1.000000
    3       -8.754175   1.000000
    4       -7.958801   1.000000
    5        3.342536   0.000000
    6        3.369790   0.000000
    7        4.219260   0.000000
    8        4.622569   0.000000
 
 -0.1904762E+00  0.9523810E-01  0.1262379E-14  0.4535147E-02
    1      -20.804329   1.000000
    2       -9.899795   1.000000
    3       -8.626221   1.000000
    4       -8.248437   1.000000
    5        2.569187   0.000000
    6        3.386674   0.000000
    7        3.798503   0.000000
    8        4.573931   0.000000
 
 -0.1428571E+00  0.9523810E-01  0.1262379E-14  0.4535147E-02
    1      -21.281791   1.000000
    2       -9.184881   1.000000
    3       -8.799968   1.000000
    4       -7.671465   1.000000
    5        1.912439   0.000000
    6        2.728944   0.000000
    7        3.123994   0.000000
    8        4.013543   0.000000
 
 -0.9523810E-01  0.9523810E-01  0.1262379E-14  0.4535147E-02
    1      -21.655188   1.000000
    2       -9.625883   1.000000
    3       -7.857150   1.000000
    4       -7.062836   1.000000
    5        1.400866   0.000000
    6        2.213060   0.000000
    7        2.599297   0.000000
    8        3.495495   0.000000
 
 -0.4761905E-01  0.9523810E-01  0.1262379E-14  0.4535147E-02
    1      -21.922927   1.000000
    2       -9.943925   1.000000
    3       -7.115045   1.000000
    4       -6.522374   1.000000
    5        1.035231   0.000000
    6        1.843687   0.000000
    7        2.224506   0.000000
    8        3.124692   0.000000
 
  0.3741098E-15  0.1428571E+00  0.1262379E-14  0.4535147E-02
    1      -21.815719   1.000000
    2       -9.816477   1.000000
    3       -7.512559   1.000000
    4       -6.640813   1.000000
    5        1.181336   0.000000
    6        1.991439   0.000000
    7        2.374392   0.000000
    8        3.272985   0.000000
 
  0.4761905E-01  0.1428571E+00  0.1262379E-14  0.4535147E-02
    1      -21.922928   1.000000
    2       -9.943923   1.000000
    3       -7.115203   1.000000
    4       -6.522207   1.000000
    5        1.035232   0.000000
    6        1.843688   0.000000
    7        2.224506   0.000000
    8        3.124692   0.000000
 
  0.9523810E-01  0.1428571E+00  0.1262379E-14  0.4535147E-02
    1      -21.922928   1.000000
    2       -9.943922   1.000000
    3       -7.115302   1.000000
    4       -6.522102   1.000000
    5        1.035232   0.000000
    6        1.843688   0.000000
    7        2.224506   0.000000
    8        3.124692   0.000000
 
  0.1428571E+00  0.1428571E+00  0.1262379E-14  0.4535147E-02
    1      -21.815720   1.000000
    2       -9.816474   1.000000
    3       -7.512734   1.000000
    4       -6.640621   1.000000
    5        1.181336   0.000000
    6        1.991440   0.000000
    7        2.374392   0.000000
    8        3.272985   0.000000
 
  0.1904762E+00  0.1428571E+00  0.1262379E-14  0.4535147E-02
    1      -21.601726   1.000000
    2       -9.562672   1.000000
    3       -8.101311   1.000000
    4       -7.033022   1.000000
    5        1.473760   0.000000
    6        2.286708   0.000000
    7        2.674214   0.000000
    8        3.569399   0.000000
 
  0.2380952E+00  0.1428571E+00  0.1262379E-14  0.4535147E-02
    1      -21.281794   1.000000
    2       -9.184873   1.000000
    3       -8.800166   1.000000
    4       -7.671246   1.000000
    5        1.912440   0.000000
    6        2.728946   0.000000
    7        3.123994   0.000000
    8        4.013544   0.000000
 
  0.2857143E+00  0.1428571E+00  0.1262379E-14  0.4535147E-02
    1      -20.857307   1.000000
    2       -9.615232   1.000000
    3       -8.687148   1.000000
    4       -8.410219   1.000000
    5        2.496747   0.000000
    6        3.316951   0.000000
    7        3.723674   0.000000
    8        4.604656   0.000000
 
  0.3333333E+00  0.1428571E+00  0.1262379E-14  0.4535147E-02
    1      -20.330351   1.000000
    2      -10.581631   1.000000
    3       -9.086916   1.000000
    4       -8.076229   1.000000
    5        3.225574   0.000000
    6        3.648411   0.000000
    7        4.054150   0.000000
    8        4.473130   0.000000
 
  0.3809524E+00  0.1428571E+00  0.1262379E-14  0.4535147E-02
    1      -19.704027   1.000000
    2      -11.673242   1.000000
    3       -9.629803   1.000000
    4       -7.363490   1.000000
    5        2.476674   0.000000
    6        4.097179   0.000000
    7        4.925668   0.000000
    8        5.372113   0.000000
 
  0.4285714E+00  0.1428571E+00  0.1262379E-14  0.4535147E-02
    1      -18.983306   1.000000
    2      -12.818619   1.000000
    3      -10.040926   1.000000
    4       -6.570204   1.000000
    5        1.286406   0.000000
    6        5.108231   0.000000
    7        5.934522   0.000000
    8        6.419031   0.000000
 
  0.4761905E+00  0.1428571E+00  0.1262379E-14  0.4535147E-02
    1      -18.178038   1.000000
    2      -13.955919   1.000000
    3      -10.330677   1.000000
    4       -5.742455   1.000000
    5        0.152760   0.000000
    6        6.245076   0.000000
    7        6.820239   0.000000
    8        7.062082   0.000000
 
 -0.4761905E+00  0.1428571E+00  0.1262379E-14  0.4535147E-02
    1      -17.319849   1.000000
    2      -15.023351   1.000000
    3      -10.503632   1.000000
    4       -5.000944   1.000000
    5       -0.781722   0.000000
    6        6.709482   0.000000
    7        7.551059   0.000000
    8        8.251678   0.000000
 
 -0.4285714E+00  0.1428571E+00  0.1262379E-14  0.4535147E-02
    1      -16.712333   1.000000
    2      -15.702167   1.000000
    3      -10.561226   1.000000
    4       -4.658026   1.000000
    5       -1.190611   0.000000
    6        6.687168   0.000000
    7        8.835511   0.000000
    8        9.019748   0.000000
 
 -0.3809524E+00  0.1428571E+00  0.1262379E-14  0.4535147E-02
    1      -17.319846   1.000000
    2      -15.023347   1.000000
    3      -10.503640   1.000000
    4       -5.000959   1.000000
    5       -0.781693   0.000000
    6        6.709461   0.000000
    7        7.551070   0.000000
    8        8.251664   0.000000
 
 -0.3333333E+00  0.1428571E+00  0.1262379E-14  0.4535147E-02
    1      -18.178035   1.000000
    2      -13.955907   1.000000
    3      -10.330695   1.000000
    4       -5.742475   1.000000
    5        0.152805   0.000000
    6        6.245066   0.000000
    7        6.820215   0.000000
    8        7.062074   0.000000
 
 -0.2857143E+00  0.1428571E+00  0.1262379E-14  0.4535147E-02
    1      -18.983302   1.000000
    2      -12.818593   1.000000
    3      -10.040961   1.000000
    4       -6.570222   1.000000
    5        1.286461   0.000000
    6        5.108229   0.000000
    7        5.934517   0.000000
    8        6.419029   0.000000
 
 -0.2380952E+00  0.1428571E+00  0.1262379E-14  0.4535147E-02
    1      -19.704023   1.000000
    2      -11.673187   1.000000
    3       -9.629868   1.000000
    4       -7.363506   1.000000
    5        2.476737   0.000000
    6        4.097178   0.000000
    7        4.925664   0.000000
    8        5.372113   0.000000
 
 -0.1904762E+00  0.1428571E+00  0.1262379E-14  0.4535147E-02
    1      -20.330347   1.000000
    2      -10.581531   1.000000
    3       -9.087030   1.000000
    4       -8.076242   1.000000
    5        3.225573   0.000000
    6        3.648479   0.000000
    7        4.054147   0.000000
    8        4.473130   0.000000
 
 -0.1428571E+00  0.1428571E+00  0.1262379E-14  0.4535147E-02
    1      -20.857304   1.000000
    2       -9.615078   1.000000
    3       -8.687158   1.000000
    4       -8.410390   1.000000
    5        2.496747   0.000000
    6        3.316949   0.000000
    7        3.723674   0.000000
    8        4.604655   0.000000
 
 -0.9523810E-01  0.1428571E+00  0.1262379E-14  0.4535147E-02
    1      -21.281791   1.000000
    2       -9.184881   1.000000
    3       -8.799981   1.000000
    4       -7.671450   1.000000
    5        1.912439   0.000000
    6        2.728944   0.000000
    7        3.123994   0.000000
    8        4.013543   0.000000
 
 -0.4761905E-01  0.1428571E+00  0.1262379E-14  0.4535147E-02
    1      -21.601725   1.000000
    2       -9.562678   1.000000
    3       -8.101122   1.000000
    4       -7.033232   1.000000
    5        1.473760   0.000000
    6        2.286707   0.000000
    7        2.674214   0.000000
    8        3.569398   0.000000
 
  0.3842982E-15  0.1904762E+00  0.1262379E-14  0.4535147E-02
    1      -21.441552   1.000000
    2       -9.373607   1.000000
    3       -8.625146   1.000000
    4       -7.149538   1.000000
    5        1.692648   0.000000
    6        2.507473   0.000000
    7        2.899004   0.000000
    8        3.790894   0.000000
 
  0.4761905E-01  0.1904762E+00  0.1262379E-14  0.4535147E-02
    1      -21.601726   1.000000
    2       -9.562675   1.000000
    3       -8.101208   1.000000
    4       -7.033139   1.000000
    5        1.473760   0.000000
    6        2.286708   0.000000
    7        2.674214   0.000000
    8        3.569398   0.000000
 
  0.9523810E-01  0.1904762E+00  0.1262379E-14  0.4535147E-02
    1      -21.655189   1.000000
    2       -9.625878   1.000000
    3       -7.857380   1.000000
    4       -7.062589   1.000000
    5        1.400867   0.000000
    6        2.213060   0.000000
    7        2.599297   0.000000
    8        3.495495   0.000000
 
  0.1428571E+00  0.1904762E+00  0.1262379E-14  0.4535147E-02
    1      -21.601727   1.000000
    2       -9.562672   1.000000
    3       -8.101327   1.000000
    4       -7.033006   1.000000
    5        1.473760   0.000000
    6        2.286708   0.000000
    7        2.674214   0.000000
    8        3.569399   0.000000
 
  0.1904762E+00  0.1904762E+00  0.1262379E-14  0.4535147E-02
    1      -21.441555   1.000000
    2       -9.373601   1.000000
    3       -8.625291   1.000000
    4       -7.149368   1.000000
    5        1.692648   0.000000
    6        2.507474   0.000000
    7        2.899004   0.000000
    8        3.790895   0.000000
 
  0.2380952E+00  0.1904762E+00  0.1262379E-14  0.4535147E-02
    1      -21.175355   1.000000
    2       -9.246066   1.000000
    3       -9.060376   1.000000
    4       -7.562855   1.000000
    5        2.057863   0.000000
    6        2.874734   0.000000
    7        3.273757   0.000000
    8        4.158875   0.000000
 
  0.2857143E+00  0.1904762E+00  0.1262379E-14  0.4535147E-02
    1      -20.804333   1.000000
    2       -9.899964   1.000000
    3       -8.626206   1.000000
    4       -8.248240   1.000000
    5        2.569187   0.000000
    6        3.386678   0.000000
    7        3.798503   0.000000
    8        4.573881   0.000000
 
  0.3333333E+00  0.1904762E+00  0.1262379E-14  0.4535147E-02
    1      -20.330352   1.000000
    2      -10.581688   1.000000
    3       -9.086849   1.000000
    4       -8.076224   1.000000
    5        3.225574   0.000000
    6        3.648398   0.000000
    7        4.054144   0.000000
    8        4.473130   0.000000
 
  0.3809524E+00  0.1904762E+00  0.1262379E-14  0.4535147E-02
    1      -19.756172   1.000000
    2      -11.343865   1.000000
    3       -9.909024   1.000000
    4       -7.418820   1.000000
    5        2.625468   0.000000
    6        4.025321   0.000000
    7        4.844564   0.000000
    8        5.297450   0.000000
 
  0.4285714E+00  0.1904762E+00  0.1262379E-14  0.4535147E-02
    1      -19.086026   1.000000
    2      -12.253596   1.000000
    3      -10.557040   1.000000
    4       -6.668317   1.000000
    5        1.548428   0.000000
    6        4.965820   0.000000
    7        5.771935   0.000000
    8        6.271161   0.000000
 
  0.4761905E+00  0.1904762E+00  0.1262379E-14  0.4535147E-02
    1      -18.327201   1.000000
    2      -13.279315   1.000000
    3      -10.996847   1.000000
    4       -5.852365   1.000000
    5        0.466417   0.000000
    6        6.042152   0.000000
    7        6.807346   0.000000
    8        7.393158   0.000000
 
 -0.4761905E+00  0.1904762E+00  0.1262379E-14  0.4535147E-02
    1      -17.496438   1.000000
    2      -14.327591   1.000000
    3      -11.268104   1.000000
    4       -5.036600   1.000000
    5       -0.538621   0.000000
    6        7.240362   0.000000
    7        7.865828   0.000000
    8        8.010430   0.000000
 
 -0.4285714E+00  0.1904762E+00  0.1262379E-14  0.4535147E-02
    1      -16.676542   1.000000
    2      -15.266341   1.000000
    3      -11.398615   1.000000
    4       -4.416231   1.000000
    5       -1.257703   0.000000
    6        7.927024   0.000000
    7        8.573205   0.000000
    8        8.615263   0.000000
 
 -0.3809524E+00  0.1904762E+00  0.1262379E-14  0.4535147E-02
    1      -16.676541   1.000000
    2      -15.266336   1.000000
    3      -11.398622   1.000000
    4       -4.416246   1.000000
    5       -1.257679   0.000000
    6        7.927004   0.000000
    7        8.573226   0.000000
    8        8.615245   0.000000
 
 -0.3333333E+00  0.1904762E+00  0.1262379E-14  0.4535147E-02
    1      -17.496435   1.000000
    2      -14.327574   1.000000
    3      -11.268127   1.000000
    4       -5.036628   1.000000
    5       -0.538566   0.000000
    6        7.240354   0.000000
    7        7.865808   0.000000
    8        8.010409   0.000000
 
 -0.2857143E+00  0.1904762E+00  0.1262379E-14  0.4535147E-02
    1      -18.327196   1.000000
    2      -13.279276   1.000000
    3      -10.996897   1.000000
    4       -5.852393   1.000000
    5        0.466487   0.000000
    6        6.042151   0.000000
    7        6.807335   0.000000
    8        7.393157   0.000000
 
 -0.2380952E+00  0.1904762E+00  0.1262379E-14  0.4535147E-02
    1      -19.086021   1.000000
    2      -12.253517   1.000000
    3      -10.557133   1.000000
    4       -6.668342   1.000000
    5        1.548508   0.000000
    6        4.965820   0.000000
    7        5.771928   0.000000
    8        6.271161   0.000000
 