       N       E                     dE             d eps       ncg     rms          rms(c)
DAV:   1     0.564351203245E+02    0.56435E+02   -0.36865E+03  3536   0.102E+03
DAV:   2    -0.148789623070E+02   -0.71314E+02   -0.55461E+02  5296   0.130E+02
DAV:   3    -0.196399633267E+02   -0.47610E+01   -0.47278E+01  5136   0.537E+01
DAV:   4    -0.196778860452E+02   -0.37923E-01   -0.37923E-01  5592   0.480E+00
DAV:   5    -0.196781692228E+02   -0.28318E-03   -0.28318E-03  5288   0.207E-01    0.645E+00
DAV:   6    -0.187254043862E+02    0.95276E+00   -0.93105E-01  4744   0.707E+00    0.378E+00
DAV:   7    -0.183596385487E+02    0.36577E+00   -0.12178E+00  5360   0.790E+00    0.100E+00
DAV:   8    -0.183503350054E+02    0.93035E-02   -0.13637E-02  6072   0.114E+00    0.123E-01
DAV:   9    -0.183490981511E+02    0.12369E-02   -0.53398E-04  5368   0.168E-01    0.884E-02
DAV:  10    -0.183446093816E+02    0.44888E-02   -0.33803E-03  5280   0.298E-01    0.671E-02
DAV:  11    -0.183431908873E+02    0.14185E-02   -0.37221E-04  4872   0.107E-01    0.374E-02
DAV:  12    -0.183427403077E+02    0.45058E-03   -0.36754E-04  4440   0.109E-01    0.229E-02
DAV:  13    -0.183439264235E+02   -0.11861E-02   -0.93545E-04  5032   0.151E-01    0.350E-02
DAV:  14    -0.183437648934E+02    0.16153E-03   -0.41478E-05  4320   0.323E-02    0.201E-02
DAV:  15    -0.183439658705E+02   -0.20098E-03   -0.18739E-04  4496   0.845E-02    0.270E-02
DAV:  16    -0.183441613037E+02   -0.19543E-03   -0.29872E-05  4904   0.398E-02    0.233E-02
DAV:  17    -0.183442800801E+02   -0.11878E-03   -0.47261E-06  4344   0.193E-02    0.906E-03
DAV:  18    -0.183443954769E+02   -0.11540E-03   -0.26143E-06  4104   0.129E-02    0.417E-03
DAV:  19    -0.183444023434E+02   -0.68665E-05   -0.43879E-07  4824   0.433E-03    0.155E-03
DAV:  20    -0.183444109863E+02   -0.86429E-05   -0.13220E-07  4288   0.227E-03    0.485E-04
DAV:  21    -0.183444112611E+02   -0.27475E-06   -0.18650E-09  5728   0.379E-04    0.155E-04
DAV:  22    -0.183444115951E+02   -0.33407E-06   -0.38773E-09  4600   0.301E-04    0.243E-05
DAV:  23    -0.183444116076E+02   -0.12500E-07   -0.36649E-11  5952   0.482E-05    0.135E-05
DAV:  24    -0.183444116212E+02   -0.13592E-07   -0.26809E-11  4704   0.346E-05    0.403E-06
DAV:  25    -0.183444116223E+02   -0.10921E-08    0.10095E-11  4904   0.881E-06
   1 F= -.18344412E+02 E0= -.18344412E+02  d E =-.183444E+02
       N       E                     dE             d eps       ncg     rms          rms(c)
DAV:   1    -0.166795119178E+02    0.16649E+01   -0.17878E+02  3752   0.129E+02    0.322E+00
DAV:   2    -0.167501975901E+02   -0.70686E-01   -0.27355E+00  5576   0.165E+01    0.191E+00
DAV:   3    -0.166540231733E+02    0.96174E-01   -0.20786E-01  4232   0.404E+00    0.487E-01
DAV:   4    -0.166524286241E+02    0.15945E-02   -0.28338E-02  5736   0.149E+00    0.173E-01
DAV:   5    -0.166522033895E+02    0.22523E-03   -0.14682E-03  4568   0.349E-01    0.353E-02
DAV:   6    -0.166522133134E+02   -0.99240E-05   -0.79774E-05  5304   0.833E-02    0.208E-02
DAV:   7    -0.166522186447E+02   -0.53313E-05   -0.60953E-06  4616   0.205E-02    0.376E-03
DAV:   8    -0.166522214656E+02   -0.28209E-05   -0.31656E-07  4272   0.569E-03    0.118E-03
DAV:   9    -0.166522254229E+02   -0.39572E-05   -0.46021E-07  4040   0.477E-03    0.174E-03
DAV:  10    -0.166522273938E+02   -0.19709E-05   -0.46569E-07  4552   0.362E-03    0.935E-04
DAV:  11    -0.166522255867E+02    0.18071E-05   -0.11565E-06  4280   0.396E-03    0.363E-04
DAV:  12    -0.166522289183E+02   -0.33316E-05   -0.51844E-08  5480   0.108E-03    0.530E-04
DAV:  13    -0.166522355254E+02   -0.66071E-05   -0.52269E-07  4744   0.236E-03    0.713E-04
DAV:  14    -0.166522386381E+02   -0.31127E-05   -0.84461E-08  4488   0.128E-03    0.425E-04
DAV:  15    -0.166522393347E+02   -0.69653E-06   -0.63050E-09  4536   0.343E-04    0.253E-04
DAV:  16    -0.166522399468E+02   -0.61209E-06   -0.10243E-08  4152   0.462E-04    0.825E-05
DAV:  17    -0.166522399981E+02   -0.51351E-07   -0.49072E-10  4800   0.111E-04    0.153E-05
DAV:  18    -0.166522400126E+02   -0.14452E-07   -0.12233E-10  4392   0.410E-05    0.600E-06
DAV:  19    -0.166522400229E+02   -0.10346E-07   -0.45188E-11  3968   0.295E-05    0.320E-06
DAV:  20    -0.166522400244E+02   -0.15125E-08    0.60295E-12  4912   0.884E-06
   2 F= -.16652240E+02 E0= -.16652227E+02  d E =0.169217E+01
       N       E                     dE             d eps       ncg     rms          rms(c)
DAV:   1    -0.185773184134E+02   -0.19251E+01   -0.12475E+02  3696   0.104E+02    0.266E+00
DAV:   2    -0.185247215561E+02    0.52597E-01   -0.11304E+00  5656   0.113E+01    0.158E+00
DAV:   3    -0.184657737646E+02    0.58948E-01   -0.10768E-01  4992   0.332E+00    0.473E-01
DAV:   4    -0.184637980971E+02    0.19757E-02   -0.24566E-02  5440   0.144E+00    0.106E-01
DAV:   5    -0.184638117570E+02   -0.13660E-04   -0.13122E-03  4960   0.361E-01    0.349E-02
DAV:   6    -0.184638135017E+02   -0.17447E-05   -0.55117E-05  4632   0.808E-02    0.958E-03
DAV:   7    -0.184638147959E+02   -0.12941E-05   -0.60745E-06  4704   0.263E-02    0.313E-03
DAV:   8    -0.184638185522E+02   -0.37564E-05   -0.13402E-06  4080   0.969E-03    0.163E-03
DAV:   9    -0.184638212436E+02   -0.26914E-05   -0.96261E-07  4024   0.530E-03    0.104E-03
DAV:  10    -0.184638191638E+02    0.20798E-05   -0.67320E-07  4208   0.393E-03    0.198E-03
DAV:  11    -0.184638166603E+02    0.25035E-05   -0.21630E-07  4848   0.387E-03    0.108E-03
DAV:  12    -0.184638155064E+02    0.11539E-05   -0.83481E-08  5040   0.180E-03    0.945E-04
DAV:  13    -0.184638157725E+02   -0.26613E-06   -0.15856E-07  4240   0.169E-03    0.372E-04
DAV:  14    -0.184638172938E+02   -0.15213E-05   -0.53877E-08  4040   0.161E-03    0.308E-04
DAV:  15    -0.184638181494E+02   -0.85560E-06   -0.98190E-09  4576   0.655E-04    0.373E-04
DAV:  16    -0.184638186345E+02   -0.48509E-06   -0.71265E-09  4896   0.544E-04    0.410E-05
DAV:  17    -0.184638187404E+02   -0.10588E-06   -0.95004E-10  4768   0.162E-04    0.760E-05
DAV:  18    -0.184638187985E+02   -0.58123E-07   -0.61669E-10  4440   0.114E-04    0.676E-06
DAV:  19    -0.184638188089E+02   -0.10418E-07   -0.33547E-11  4008   0.326E-05    0.270E-06
DAV:  20    -0.184638188127E+02   -0.37755E-08   -0.21933E-13  4392   0.180E-05
   3 F= -.18463819E+02 E0= -.18463819E+02  d E =-.119407E+00
       N       E                     dE             d eps       ncg     rms          rms(c)
DAV:   1    -0.184642489514E+02   -0.43014E-03   -0.73517E-02  3944   0.255E+00    0.723E-02
DAV:   2    -0.184641651031E+02    0.83848E-04   -0.55249E-04  4880   0.262E-01    0.397E-02
DAV:   3    -0.184641160092E+02    0.49094E-04   -0.16250E-04  5096   0.124E-01    0.394E-03
DAV:   4    -0.184641175782E+02   -0.15691E-05   -0.15462E-05  4888   0.340E-02    0.358E-03
DAV:   5    -0.184641176021E+02   -0.23851E-07   -0.19174E-07  4824   0.377E-03    0.110E-03
DAV:   6    -0.184641175938E+02    0.83329E-08   -0.69825E-08  4232   0.251E-03
   4 F= -.18464118E+02 E0= -.18464117E+02  d E =-.119706E+00
       N       E                     dE             d eps       ncg     rms          rms(c)
DAV:   1    -0.184642343664E+02   -0.11676E-03   -0.74784E-03  3936   0.808E-01    0.240E-02
DAV:   2    -0.184642244690E+02    0.98974E-05   -0.58519E-05  4968   0.832E-02    0.129E-02
DAV:   3    -0.184642193373E+02    0.51316E-05   -0.17930E-05  4880   0.401E-02    0.133E-03
DAV:   4    -0.184642195121E+02   -0.17473E-06   -0.16717E-06  5400   0.111E-02    0.119E-03
DAV:   5    -0.184642195194E+02   -0.73647E-08   -0.16878E-08  4880   0.115E-03
   5 F= -.18464220E+02 E0= -.18464218E+02  d E =-.119808E+00
       N       E                     dE             d eps       ncg     rms          rms(c)
DAV:   1    -0.184642203337E+02   -0.82168E-06   -0.46924E-05  4016   0.630E-02    0.198E-03
DAV:   2    -0.184642202631E+02    0.70687E-07   -0.42243E-07  4568   0.679E-03    0.107E-03
DAV:   3    -0.184642202282E+02    0.34880E-07   -0.12542E-07  4760   0.335E-03    0.123E-04
DAV:   4    -0.184642202296E+02   -0.14296E-08   -0.11432E-08  4512   0.925E-04    0.993E-05
DAV:   5    -0.184642202301E+02   -0.44406E-09   -0.24009E-10  4384   0.130E-04
   6 F= -.18464220E+02 E0= -.18464219E+02  d E =-.119809E+00
       N       E                     dE             d eps       ncg     rms          rms(c)
DAV:   1    -0.184641577150E+02    0.62515E-04   -0.73924E-02  3960   0.251E+00    0.739E-02
DAV:   2    -0.184640627015E+02    0.95014E-04   -0.52758E-04  4952   0.259E-01    0.402E-02
DAV:   3    -0.184640097329E+02    0.52969E-04   -0.16455E-04  4872   0.128E-01    0.395E-03
DAV:   4    -0.184640116266E+02   -0.18936E-05   -0.17706E-05  4936   0.357E-02    0.389E-03
DAV:   5    -0.184640116755E+02   -0.48907E-07   -0.25173E-07  4544   0.456E-03    0.783E-04
DAV:   6    -0.184640116831E+02   -0.75735E-08   -0.49431E-08  5312   0.213E-03
   7 F= -.18464012E+02 E0= -.18464012E+02  d E =0.208547E-03
       N       E                     dE             d eps       ncg     rms          rms(c)
DAV:   1    -0.184643478536E+02   -0.33618E-03   -0.24496E-02  3952   0.150E+00    0.440E-02
DAV:   2    -0.184643154932E+02    0.32360E-04   -0.19474E-04  4816   0.154E-01    0.230E-02
DAV:   3    -0.184642997946E+02    0.15699E-04   -0.56552E-05  4992   0.695E-02    0.273E-03
DAV:   4    -0.184643002956E+02   -0.50101E-06   -0.49537E-06  5520   0.193E-02    0.218E-03
DAV:   5    -0.184643002923E+02    0.33851E-08   -0.48895E-08  5168   0.206E-03
   8 F= -.18464300E+02 E0= -.18464275E+02  d E =-.800622E-04
       N       E                     dE             d eps       ncg     rms          rms(c)
DAV:   1    -0.184643006290E+02   -0.33336E-06   -0.32592E-05  4136   0.548E-02    0.220E-03
DAV:   2    -0.184643005340E+02    0.95015E-07   -0.38218E-07  5384   0.650E-03    0.114E-03
DAV:   3    -0.184643004930E+02    0.41007E-07   -0.12029E-07  5088   0.342E-03    0.150E-04
DAV:   4    -0.184643004948E+02   -0.18157E-08   -0.12025E-08  4888   0.938E-04    0.107E-04
DAV:   5    -0.184643004948E+02    0.40018E-10   -0.23956E-10  4136   0.138E-04
   9 F= -.18464300E+02 E0= -.18464275E+02  d E =-.202504E-06
       N       E                     dE             d eps       ncg     rms          rms(c)
DAV:   1    -0.184643005217E+02   -0.26902E-07   -0.40067E-06  4232   0.181E-02    0.730E-04
DAV:   2    -0.184643005109E+02    0.10840E-07   -0.40196E-08  5440   0.207E-03    0.376E-04
DAV:   3    -0.184643005064E+02    0.44893E-08   -0.15665E-08  4416   0.116E-03    0.432E-05
DAV:   4    -0.184643005066E+02   -0.21646E-09   -0.14533E-09  4912   0.319E-04    0.371E-05
DAV:   5    -0.184643005067E+02   -0.94701E-10   -0.18651E-11  4464   0.440E-05
  10 F= -.18464301E+02 E0= -.18464275E+02  d E =-.214428E-06
