  36  36   0   0
  0.2619380E+02  0.7378536E-09  0.7378536E-09  0.2000000E-08  0.5000000E-15
  1.000000000000000E-004
  CAR 
 C-4                                     
      7.18433852    -22.12716107  301     -1.21218480      1.00000000
    -22.127  0.0000E+00  0.0000E+00
    -22.029  0.0000E+00  0.0000E+00
    -21.932  0.0000E+00  0.0000E+00
    -21.834  0.0000E+00  0.0000E+00
    -21.736  0.0000E+00  0.0000E+00
    -21.639  0.0000E+00  0.0000E+00
    -21.541  0.0000E+00  0.0000E+00
    -21.443  0.0000E+00  0.0000E+00
    -21.346  0.0000E+00  0.0000E+00
    -21.248  0.0000E+00  0.0000E+00
    -21.150  0.0000E+00  0.0000E+00
    -21.052  0.0000E+00  0.0000E+00
    -20.955  0.0000E+00  0.0000E+00
    -20.857  0.0000E+00  0.0000E+00
    -20.759  0.1655E+01  0.1617E+00
    -20.662  0.5017E+01  0.7174E+00
    -20.564  0.4494E+01  0.1237E+01
    -20.466  0.4377E+01  0.1797E+01
    -20.368  0.4495E+01  0.2299E+01
    -20.271  0.4985E+01  0.2836E+01
    -20.173  0.5635E+01  0.3390E+01
    -20.075  0.5092E+01  0.3935E+01
    -19.978  0.5569E+01  0.4526E+01
    -19.880  0.4873E+01  0.5057E+01
    -19.782  0.3869E+01  0.5503E+01
    -19.685  0.3874E+01  0.6102E+01
    -19.587  0.5882E+01  0.6733E+01
    -19.489  0.4728E+01  0.7219E+01
    -19.391  0.4071E+01  0.7700E+01
    -19.294  0.5591E+01  0.8338E+01
    -19.196  0.3605E+01  0.8742E+01
    -19.098  0.6064E+01  0.9418E+01
    -19.001  0.4817E+01  0.9922E+01
    -18.903  0.4424E+01  0.1051E+02
    -18.805  0.5569E+01  0.1106E+02
    -18.707  0.4217E+01  0.1163E+02
    -18.610  0.5516E+01  0.1219E+02
    -18.512  0.3956E+01  0.1267E+02
    -18.414  0.4840E+01  0.1333E+02
    -18.317  0.3491E+01  0.1379E+02
    -18.219  0.4689E+01  0.1434E+02
    -18.121  0.5093E+01  0.1493E+02
    -18.024  0.5058E+01  0.1552E+02
    -17.926  0.4748E+01  0.1609E+02
    -17.828  0.2319E+01  0.1645E+02
    -17.730  0.5805E+01  0.1718E+02
    -17.633  0.3412E+01  0.1765E+02
    -17.535  0.6386E+01  0.1835E+02
    -17.437  0.3272E+01  0.1883E+02
    -17.340  0.5666E+01  0.1947E+02
    -17.242  0.5211E+01  0.2011E+02
    -17.144  0.3436E+01  0.2048E+02
    -17.047  0.6622E+01  0.2123E+02
    -16.949  0.4780E+01  0.2175E+02
    -16.851  0.4744E+01  0.2230E+02
    -16.753  0.4456E+01  0.2292E+02
    -16.656  0.5487E+01  0.2346E+02
    -16.558  0.6573E+01  0.2411E+02
    -16.460  0.3435E+01  0.2462E+02
    -16.363  0.4603E+01  0.2517E+02
    -16.265  0.6188E+01  0.2592E+02
    -16.167  0.3723E+01  0.2639E+02
    -16.069  0.6632E+01  0.2711E+02
    -15.972  0.5679E+01  0.2777E+02
    -15.874  0.4034E+01  0.2821E+02
    -15.776  0.7892E+01  0.2903E+02
    -15.679  0.5983E+01  0.2967E+02
    -15.581  0.5861E+01  0.3035E+02
    -15.483  0.9598E+01  0.3137E+02
    -15.386  0.4834E+01  0.3208E+02
    -15.288  0.3791E+01  0.3254E+02
    -15.190  0.4530E+01  0.3316E+02
    -15.092  0.3341E+01  0.3353E+02
    -14.995  0.2954E+01  0.3382E+02
    -14.897  0.2784E+01  0.3435E+02
    -14.799  0.6617E+00  0.3441E+02
    -14.702  0.5013E+01  0.3500E+02
    -14.604  0.5570E+00  0.3506E+02
    -14.506  0.1918E+01  0.3524E+02
    -14.408  0.4649E+01  0.3581E+02
    -14.311  0.3695E+01  0.3634E+02
    -14.213  0.5528E+01  0.3701E+02
    -14.115  0.3192E+01  0.3748E+02
    -14.018  0.6335E+01  0.3822E+02
    -13.920  0.5021E+01  0.3876E+02
    -13.822  0.3628E+01  0.3923E+02
    -13.725  0.7079E+01  0.3998E+02
    -13.627  0.6021E+01  0.4061E+02
    -13.529  0.6337E+01  0.4150E+02
    -13.431  0.5225E+01  0.4224E+02
    -13.334  0.7213E+01  0.4298E+02
    -13.236  0.5775E+01  0.4371E+02
    -13.138  0.6040E+01  0.4434E+02
    -13.041  0.5164E+01  0.4499E+02
    -12.943  0.2946E+01  0.4545E+02
    -12.845  0.3342E+01  0.4603E+02
    -12.747  0.6180E+01  0.4669E+02
    -12.650  0.5720E+01  0.4730E+02
    -12.552  0.3593E+01  0.4774E+02
    -12.454  0.4612E+01  0.4833E+02
    -12.357  0.3393E+01  0.4887E+02
    -12.259  0.3876E+01  0.4935E+02
    -12.161  0.3477E+01  0.4980E+02
    -12.064  0.5267E+01  0.5041E+02
    -11.966  0.2773E+01  0.5082E+02
    -11.868  0.5249E+01  0.5133E+02
    -11.770  0.3976E+01  0.5181E+02
    -11.673  0.4663E+01  0.5244E+02
    -11.575  0.6364E+01  0.5320E+02
    -11.477  0.3586E+01  0.5358E+02
    -11.380  0.6015E+01  0.5444E+02
    -11.282  0.3370E+01  0.5487E+02
    -11.184  0.5755E+01  0.5563E+02
    -11.086  0.3519E+01  0.5611E+02
    -10.989  0.6286E+01  0.5690E+02
    -10.891  0.6425E+01  0.5767E+02
    -10.793  0.4432E+01  0.5813E+02
    -10.696  0.6475E+01  0.5887E+02
    -10.598  0.6019E+01  0.5959E+02
    -10.500  0.5608E+01  0.6015E+02
    -10.403  0.6932E+01  0.6093E+02
    -10.305  0.4559E+01  0.6160E+02
    -10.207  0.5004E+01  0.6210E+02
    -10.109  0.6411E+01  0.6304E+02
    -10.012  0.3751E+01  0.6345E+02
     -9.914  0.4382E+01  0.6417E+02
     -9.816  0.5375E+01  0.6486E+02
     -9.719  0.4826E+01  0.6575E+02
     -9.621  0.3558E+01  0.6610E+02
     -9.523  0.9992E+01  0.6731E+02
     -9.426  0.3810E+01  0.6776E+02
     -9.328  0.8685E+01  0.6867E+02
     -9.230  0.4363E+01  0.6934E+02
     -9.132  0.8282E+01  0.7023E+02
     -9.035  0.5800E+01  0.7094E+02
     -8.937  0.9677E+01  0.7203E+02
     -8.839  0.6878E+01  0.7277E+02
     -8.742  0.1155E+02  0.7409E+02
     -8.644  0.8043E+01  0.7523E+02
     -8.546  0.1079E+02  0.7650E+02
     -8.448  0.8966E+01  0.7777E+02
     -8.351  0.1102E+02  0.7918E+02
     -8.253  0.1119E+02  0.8066E+02
     -8.155  0.7277E+01  0.8176E+02
     -8.058  0.1453E+02  0.8371E+02
     -7.960  0.1001E+02  0.8486E+02
     -7.862  0.1396E+02  0.8666E+02
     -7.765  0.1585E+02  0.8842E+02
     -7.667  0.1458E+02  0.9012E+02
     -7.569  0.1757E+02  0.9231E+02
     -7.471  0.1609E+02  0.9418E+02
     -7.374  0.1481E+02  0.9580E+02
     -7.276  0.1243E+02  0.9736E+02
     -7.178  0.1341E+02  0.9885E+02
     -7.081  0.1222E+02  0.1002E+03
     -6.983  0.9846E+01  0.1014E+03
     -6.885  0.1232E+02  0.1027E+03
     -6.787  0.1145E+02  0.1040E+03
     -6.690  0.1215E+02  0.1053E+03
     -6.592  0.1073E+02  0.1065E+03
     -6.494  0.8656E+01  0.1076E+03
     -6.397  0.1064E+02  0.1088E+03
     -6.299  0.7421E+01  0.1099E+03
     -6.201  0.9549E+01  0.1111E+03
     -6.104  0.8429E+01  0.1122E+03
     -6.006  0.1158E+02  0.1133E+03
     -5.908  0.1047E+02  0.1144E+03
     -5.810  0.8729E+01  0.1154E+03
     -5.713  0.8748E+01  0.1165E+03
     -5.615  0.5267E+01  0.1174E+03
     -5.517  0.1225E+02  0.1188E+03
     -5.420  0.4978E+01  0.1194E+03
     -5.322  0.1146E+02  0.1208E+03
     -5.224  0.7411E+01  0.1216E+03
     -5.126  0.7703E+01  0.1226E+03
     -5.029  0.8001E+01  0.1235E+03
     -4.931  0.8476E+01  0.1246E+03
     -4.833  0.1002E+02  0.1257E+03
     -4.736  0.5857E+01  0.1264E+03
     -4.638  0.9158E+01  0.1275E+03
     -4.540  0.8297E+01  0.1285E+03
     -4.443  0.7148E+01  0.1294E+03
     -4.345  0.7633E+01  0.1304E+03
     -4.247  0.9304E+01  0.1315E+03
     -4.149  0.5603E+01  0.1321E+03
     -4.052  0.5600E+01  0.1327E+03
     -3.954  0.5229E+01  0.1334E+03
     -3.856  0.5622E+01  0.1341E+03
     -3.759  0.5981E+01  0.1349E+03
     -3.661  0.6297E+01  0.1357E+03
     -3.563  0.9160E+01  0.1367E+03
     -3.466  0.7155E+01  0.1377E+03
     -3.368  0.5110E+01  0.1384E+03
     -3.270  0.5927E+01  0.1390E+03
     -3.172  0.6127E+01  0.1397E+03
     -3.075  0.4356E+01  0.1401E+03
     -2.977  0.3062E+01  0.1406E+03
     -2.879  0.3502E+01  0.1410E+03
     -2.782  0.3491E+01  0.1414E+03
     -2.684  0.2354E+01  0.1417E+03
     -2.586  0.1645E+01  0.1420E+03
     -2.488  0.2439E+01  0.1423E+03
     -2.391  0.2140E+01  0.1426E+03
     -2.293  0.1363E+01  0.1428E+03
     -2.195  0.2393E+01  0.1430E+03
     -2.098  0.1950E+01  0.1432E+03
     -2.000  0.1456E+01  0.1434E+03
     -1.902  0.1217E+01  0.1435E+03
     -1.805  0.3458E+00  0.1436E+03
     -1.707  0.8363E+00  0.1437E+03
     -1.609  0.1114E+01  0.1438E+03
     -1.511  0.6817E+00  0.1439E+03
     -1.414  0.5145E+00  0.1440E+03
     -1.316  0.8201E-14  0.1440E+03
     -1.218  0.1857E+00  0.1440E+03
     -1.121  0.1857E+00  0.1440E+03
     -1.023  0.5250E-02  0.1440E+03
     -0.925  0.1110E+00  0.1441E+03
     -0.827  0.2772E+00  0.1442E+03
     -0.730  0.1113E+01  0.1443E+03
     -0.632  0.1356E+01  0.1444E+03
     -0.534  0.1057E+01  0.1445E+03
     -0.437  0.1497E+01  0.1447E+03
     -0.339  0.1042E+01  0.1448E+03
     -0.241  0.1424E+01  0.1450E+03
     -0.144  0.2776E+01  0.1454E+03
     -0.046  0.1892E+01  0.1455E+03
      0.052  0.3608E+01  0.1459E+03
      0.150  0.2696E+01  0.1463E+03
      0.247  0.5196E+01  0.1469E+03
      0.345  0.7057E+01  0.1476E+03
      0.443  0.7066E+01  0.1485E+03
      0.540  0.8290E+01  0.1495E+03
      0.638  0.9345E+01  0.1506E+03
      0.736  0.6449E+01  0.1513E+03
      0.834  0.6193E+01  0.1521E+03
      0.931  0.5283E+01  0.1528E+03
      1.029  0.3531E+01  0.1533E+03
      1.127  0.6288E+01  0.1539E+03
      1.224  0.4384E+01  0.1545E+03
      1.322  0.2489E+01  0.1549E+03
      1.420  0.6069E+01  0.1557E+03
      1.517  0.4012E+01  0.1561E+03
      1.615  0.4650E+01  0.1566E+03
      1.713  0.3250E+01  0.1569E+03
      1.811  0.4665E+01  0.1575E+03
      1.908  0.3121E+01  0.1579E+03
      2.006  0.5668E+01  0.1585E+03
      2.104  0.6419E+01  0.1592E+03
      2.201  0.5099E+01  0.1598E+03
      2.299  0.4310E+01  0.1603E+03
      2.397  0.6068E+01  0.1611E+03
      2.494  0.5680E+01  0.1617E+03
      2.592  0.7267E+01  0.1625E+03
      2.690  0.5703E+01  0.1631E+03
      2.788  0.7191E+01  0.1640E+03
      2.885  0.5981E+01  0.1647E+03
      2.983  0.6207E+01  0.1654E+03
      3.081  0.5574E+01  0.1662E+03
      3.178  0.9310E+01  0.1672E+03
      3.276  0.6799E+01  0.1680E+03
      3.374  0.7660E+01  0.1690E+03
      3.472  0.8420E+01  0.1700E+03
      3.569  0.8543E+01  0.1710E+03
      3.667  0.7206E+01  0.1718E+03
      3.765  0.8703E+01  0.1728E+03
      3.862  0.6772E+01  0.1736E+03
      3.960  0.7369E+01  0.1746E+03
      4.058  0.7700E+01  0.1755E+03
      4.155  0.1083E+02  0.1768E+03
      4.253  0.8279E+01  0.1779E+03
      4.351  0.9648E+01  0.1790E+03
      4.449  0.9006E+01  0.1800E+03
      4.546  0.1127E+02  0.1813E+03
      4.644  0.8380E+01  0.1822E+03
      4.742  0.1055E+02  0.1835E+03
      4.839  0.1087E+02  0.1848E+03
      4.937  0.1145E+02  0.1861E+03
      5.035  0.1150E+02  0.1875E+03
      5.133  0.9843E+01  0.1885E+03
      5.230  0.1010E+02  0.1897E+03
      5.328  0.9046E+01  0.1906E+03
      5.426  0.5748E+01  0.1913E+03
      5.523  0.2505E+01  0.1917E+03
      5.621  0.1574E+01  0.1918E+03
      5.719  0.8355E+00  0.1919E+03
      5.816  0.5570E+00  0.1920E+03
      5.914  0.2785E+00  0.1920E+03
      6.012  0.0000E+00  0.1920E+03
      6.110  0.0000E+00  0.1920E+03
      6.207  0.0000E+00  0.1920E+03
      6.305  0.0000E+00  0.1920E+03
      6.403  0.0000E+00  0.1920E+03
      6.500  0.0000E+00  0.1920E+03
      6.598  0.0000E+00  0.1920E+03
      6.696  0.0000E+00  0.1920E+03
      6.794  0.0000E+00  0.1920E+03
      6.891  0.0000E+00  0.1920E+03
      6.989  0.0000E+00  0.1920E+03
      7.087  0.0000E+00  0.1920E+03
      7.184  0.0000E+00  0.1920E+03
