 vasp.5.4.4.18Apr17-6-g9f103f2a35 (build May 31 2018 21:15:54) complex          
  
 executed on          c7_intel_O1 date 2020.08.17  20:50:35
 running on   36 total cores
 distrk:  each k-point on   36 cores,    1 groups
 distr:  one band on NCORES_PER_BAND=   6 cores,    6 groups


--------------------------------------------------------------------------------------------------------


 INCAR:
 POTCAR:   PAW_PBE C 08Apr2002                    
 POTCAR:   PAW_PBE C 08Apr2002                    
   VRHFIN =C: s2p2                                                              
   LEXCH  = PE                                                                  
   EATOM  =   147.1560 eV,   10.8157 Ry                                         
                                                                                
   TITEL  = PAW_PBE C 08Apr2002                                                 
   LULTRA =        F    use ultrasoft PP ?                                      
   IUNSCR =        0    unscreen: 0-lin 1-nonlin 2-no                           
   RPACOR =     .000    partial core radius                                     
   POMASS =   12.011; ZVAL   =    4.000    mass and valenz                      
   RCORE  =    1.500    outmost cutoff radius                                   
   RWIGS  =    1.630; RWIGS  =     .863    wigner-seitz radius (au A)           
   ENMAX  =  400.000; ENMIN  =  300.000 eV                                      
   ICORE  =        2    local potential                                         
   LCOR   =        T    correct aug charges                                     
   LPAW   =        T    paw PP                                                  
   EAUG   =  644.873                                                            
   DEXC   =     .000                                                            
   RMAX   =    2.266    core radius for proj-oper                               
   RAUG   =    1.300    factor for augmentation sphere                          
   RDEP   =    1.501    radius for radial grids                                 
   RDEPT  =    1.300    core radius for aug-charge                              
   QCUT   =   -5.516; QGAM   =   11.032    optimization parameters              
                                                                                
   Description                                                                  
     l     E      TYP  RCUT    TYP  RCUT                                        
     0   .000     23  1.200                                                     
     0   .000     23  1.200                                                     
     1   .000     23  1.500                                                     
     1  2.500     23  1.500                                                     
     2   .000      7  1.500                                                     
  local pseudopotential read in
  atomic valenz-charges read in
  non local Contribution for L=           0  read in
    real space projection operators read in
  non local Contribution for L=           0  read in
    real space projection operators read in
  non local Contribution for L=           1  read in
    real space projection operators read in
  non local Contribution for L=           1  read in
    real space projection operators read in
    PAW grid and wavefunctions read in
 
   number of l-projection  operators is LMAX  =           4
   number of lm-projection operators is LMMAX =           8
 

 ----------------------------------------------------------------------------- 
|                                                                             |
|  ADVICE TO THIS USER RUNNING 'VASP/VAMP'   (HEAR YOUR MASTER'S VOICE ...):  |
|                                                                             |
|      You have a (more or less) 'large supercell' and for larger cells       |
|      it might be more efficient to use real space projection operators      |
|      So try LREAL= Auto  in the INCAR   file.                               |
|      Mind: If you want to do a very accurate calculations keep the          |
|      reciprocal projection scheme          (i.e. LREAL=.FALSE.)             |
|                                                                             |
 ----------------------------------------------------------------------------- 

 PAW_PBE C 08Apr2002                    :
 energy of atom  1       EATOM= -147.1560
 kinetic energy error for atom=    0.0016 (will be added to EATOM!!)
 
 
 POSCAR: generated by phonopy                    
  positions in direct lattice
  No initial velocities read in
 exchange correlation table for  LEXCH =        8
   RHO(1)=    0.500       N(1)  =     2000
   RHO(2)=  100.500       N(2)  =     4000
 


--------------------------------------------------------------------------------------------------------


 ion  position               nearest neighbor table
   1  1.000  0.000  1.000-  12 1.42  16 1.42  10 1.42
   2  0.333  0.000  0.000-  10 1.42  17 1.42  11 1.42
   3  0.667  0.000  0.000-  18 1.42  12 1.42  11 1.42
   4  0.000  0.333  0.000-  10 1.42  15 1.42  13 1.42
   5  0.333  0.333  0.000-  11 1.42  13 1.42  14 1.42
   6  0.667  0.333  0.000-  12 1.42  15 1.42  14 1.42
   7  0.000  0.667  0.000-  18 1.42  16 1.42  13 1.42
   8  0.333  0.667  0.000-  16 1.42  17 1.42  14 1.42
   9  0.667  0.667  0.000-  18 1.42  17 1.42  15 1.42
  10  0.111  0.111  0.000-   2 1.42   4 1.42   1 1.42
  11  0.444  0.111  0.000-   5 1.42   2 1.42   3 1.42
  12  0.778  0.111  0.000-   1 1.42   6 1.42   3 1.42
  13  0.111  0.444  0.000-   5 1.42   4 1.42   7 1.42
  14  0.444  0.444  0.000-   5 1.42   6 1.42   8 1.42
  15  0.778  0.444  0.000-   4 1.42   6 1.42   9 1.42
  16  0.111  0.778  0.000-   8 1.42   7 1.42   1 1.42
  17  0.444  0.778  0.000-   2 1.42   8 1.42   9 1.42
  18  0.778  0.778  0.000-   7 1.42   3 1.42   9 1.42
  19  0.000  0.000  0.222-  30 1.42  34 1.42  28 1.42
  20  0.333  0.000  0.222-  28 1.42  35 1.42  29 1.42
  21  0.667  0.000  0.222-  36 1.42  30 1.42  29 1.42
  22  0.000  0.333  0.222-  28 1.42  33 1.42  31 1.42
  23  0.333  0.333  0.222-  29 1.42  31 1.42  32 1.42
  24  0.667  0.333  0.222-  30 1.42  33 1.42  32 1.42
  25  0.000  0.667  0.222-  36 1.42  34 1.42  31 1.42
  26  0.333  0.667  0.222-  34 1.42  35 1.42  32 1.42
  27  0.667  0.667  0.222-  36 1.42  35 1.42  33 1.42
  28  0.111  0.111  0.222-  20 1.42  22 1.42  19 1.42
  29  0.444  0.111  0.222-  23 1.42  20 1.42  21 1.42
  30  0.778  0.111  0.222-  19 1.42  24 1.42  21 1.42
  31  0.111  0.444  0.222-  23 1.42  22 1.42  25 1.42
  32  0.444  0.444  0.222-  23 1.42  24 1.42  26 1.42
  33  0.778  0.444  0.222-  22 1.42  24 1.42  27 1.42
  34  0.111  0.778  0.222-  26 1.42  19 1.42  25 1.42
  35  0.444  0.778  0.222-  20 1.42  26 1.42  27 1.42
  36  0.778  0.778  0.222-  25 1.42  21 1.42  27 1.42
 
  LATTYP: Found a hexagonal cell.
 ALAT       =     7.3785360000
 C/A-ratio  =     2.7105648058
  
  Lattice vectors:
  
 A1 = (   0.0000000000,  -7.3785360000,   0.0000000000)
 A2 = (  -6.3900000000,   3.6892680000,   0.0000000000)
 A3 = (   0.0000000000,   0.0000000000, -20.0000000000)


Analysis of symmetry for initial positions (statically):
=====================================================================
 Subroutine PRICEL returns:
 Original cell was already a primitive cell.
 

 Routine SETGRP: Setting up the symmetry group for a 
 hexagonal supercell.


 Subroutine GETGRP returns: Found  1 space group operations
 (whereof  1 operations were pure point group operations)
 out of a pool of 24 trial point group operations.


The static configuration has the point symmetry C_1 .


Analysis of symmetry for dynamics (positions and initial velocities):
=====================================================================
 Subroutine PRICEL returns:
 Original cell was already a primitive cell.
 

 Routine SETGRP: Setting up the symmetry group for a 
 hexagonal supercell.


 Subroutine GETGRP returns: Found  1 space group operations
 (whereof  1 operations were pure point group operations)
 out of a pool of 24 trial point group operations.


The dynamic configuration has the point symmetry C_1 .


 Subroutine INISYM returns: Found  1 space group operations
 (whereof  1 operations are pure point group operations),
 and found     1 'primitive' translations

 
 
 KPOINTS: C-4                                     

Automatic generation of k-mesh.
Space group operators:
 irot       det(A)        alpha          n_x          n_y          n_z        tau_x        tau_y        tau_z
    1     1.000000     0.000000     1.000000     0.000000     0.000000     0.000000     0.000000     0.000000
 
 Subroutine IBZKPT returns following result:
 ===========================================
 
 Found    221 irreducible k-points:
 
 Following reciprocal coordinates:
            Coordinates               Weight
  0.000000  0.000000  0.000000      1.000000
  0.047619  0.000000  0.000000      2.000000
  0.095238  0.000000  0.000000      2.000000
  0.142857  0.000000  0.000000      2.000000
  0.190476  0.000000  0.000000      2.000000
  0.238095  0.000000  0.000000      2.000000
  0.285714  0.000000  0.000000      2.000000
  0.333333  0.000000  0.000000      2.000000
  0.380952  0.000000  0.000000      2.000000
  0.428571  0.000000  0.000000      2.000000
  0.476190  0.000000  0.000000      2.000000
  0.000000  0.047619  0.000000      2.000000
  0.047619  0.047619  0.000000      2.000000
  0.095238  0.047619  0.000000      2.000000
  0.142857  0.047619  0.000000      2.000000
  0.190476  0.047619  0.000000      2.000000
  0.238095  0.047619  0.000000      2.000000
  0.285714  0.047619  0.000000      2.000000
  0.333333  0.047619  0.000000      2.000000
  0.380952  0.047619  0.000000      2.000000
  0.428571  0.047619  0.000000      2.000000
  0.476190  0.047619  0.000000      2.000000
 -0.476190  0.047619  0.000000      2.000000
 -0.428571  0.047619  0.000000      2.000000
 -0.380952  0.047619  0.000000      2.000000
 -0.333333  0.047619  0.000000      2.000000
 -0.285714  0.047619  0.000000      2.000000
 -0.238095  0.047619  0.000000      2.000000
 -0.190476  0.047619  0.000000      2.000000
 -0.142857  0.047619  0.000000      2.000000
 -0.095238  0.047619  0.000000      2.000000
 -0.047619  0.047619  0.000000      2.000000
  0.000000  0.095238  0.000000      2.000000
  0.047619  0.095238  0.000000      2.000000
  0.095238  0.095238  0.000000      2.000000
  0.142857  0.095238  0.000000      2.000000
  0.190476  0.095238  0.000000      2.000000
  0.238095  0.095238  0.000000      2.000000
  0.285714  0.095238  0.000000      2.000000
  0.333333  0.095238  0.000000      2.000000
  0.380952  0.095238  0.000000      2.000000
  0.428571  0.095238  0.000000      2.000000
  0.476190  0.095238  0.000000      2.000000
 -0.476190  0.095238  0.000000      2.000000
 -0.428571  0.095238  0.000000      2.000000
 -0.380952  0.095238  0.000000      2.000000
 -0.333333  0.095238  0.000000      2.000000
 -0.285714  0.095238  0.000000      2.000000
 -0.238095  0.095238  0.000000      2.000000
 -0.190476  0.095238  0.000000      2.000000
 -0.142857  0.095238  0.000000      2.000000
 -0.095238  0.095238  0.000000      2.000000
 -0.047619  0.095238  0.000000      2.000000
  0.000000  0.142857  0.000000      2.000000
  0.047619  0.142857  0.000000      2.000000
  0.095238  0.142857  0.000000      2.000000
  0.142857  0.142857  0.000000      2.000000
  0.190476  0.142857  0.000000      2.000000
  0.238095  0.142857  0.000000      2.000000
  0.285714  0.142857  0.000000      2.000000
  0.333333  0.142857  0.000000      2.000000
  0.380952  0.142857  0.000000      2.000000
  0.428571  0.142857  0.000000      2.000000
  0.476190  0.142857  0.000000      2.000000
 -0.476190  0.142857  0.000000      2.000000
 -0.428571  0.142857  0.000000      2.000000
 -0.380952  0.142857  0.000000      2.000000
 -0.333333  0.142857  0.000000      2.000000
 -0.285714  0.142857  0.000000      2.000000
 -0.238095  0.142857  0.000000      2.000000
 -0.190476  0.142857  0.000000      2.000000
 -0.142857  0.142857  0.000000      2.000000
 -0.095238  0.142857  0.000000      2.000000
 -0.047619  0.142857  0.000000      2.000000
  0.000000  0.190476  0.000000      2.000000
  0.047619  0.190476  0.000000      2.000000
  0.095238  0.190476  0.000000      2.000000
  0.142857  0.190476  0.000000      2.000000
  0.190476  0.190476  0.000000      2.000000
  0.238095  0.190476  0.000000      2.000000
  0.285714  0.190476  0.000000      2.000000
  0.333333  0.190476  0.000000      2.000000
  0.380952  0.190476  0.000000      2.000000
  0.428571  0.190476  0.000000      2.000000
  0.476190  0.190476  0.000000      2.000000
 -0.476190  0.190476  0.000000      2.000000
 -0.428571  0.190476  0.000000      2.000000
 -0.380952  0.190476  0.000000      2.000000
 -0.333333  0.190476  0.000000      2.000000
 -0.285714  0.190476  0.000000      2.000000
 -0.238095  0.190476  0.000000      2.000000
 -0.190476  0.190476  0.000000      2.000000
 -0.142857  0.190476  0.000000      2.000000
 -0.095238  0.190476  0.000000      2.000000
 -0.047619  0.190476  0.000000      2.000000
  0.000000  0.238095  0.000000      2.000000
  0.047619  0.238095  0.000000      2.000000
  0.095238  0.238095  0.000000      2.000000
  0.142857  0.238095  0.000000      2.000000
  0.190476  0.238095  0.000000      2.000000
  0.238095  0.238095  0.000000      2.000000
  0.285714  0.238095  0.000000      2.000000
  0.333333  0.238095  0.000000      2.000000
  0.380952  0.238095  0.000000      2.000000
  0.428571  0.238095  0.000000      2.000000
  0.476190  0.238095  0.000000      2.000000
 -0.476190  0.238095  0.000000      2.000000
 -0.428571  0.238095  0.000000      2.000000
 -0.380952  0.238095  0.000000      2.000000
 -0.333333  0.238095  0.000000      2.000000
 -0.285714  0.238095  0.000000      2.000000
 -0.238095  0.238095  0.000000      2.000000
 -0.190476  0.238095  0.000000      2.000000
 -0.142857  0.238095  0.000000      2.000000
 -0.095238  0.238095  0.000000      2.000000
 -0.047619  0.238095  0.000000      2.000000
  0.000000  0.285714  0.000000      2.000000
  0.047619  0.285714  0.000000      2.000000
  0.095238  0.285714  0.000000      2.000000
  0.142857  0.285714  0.000000      2.000000
  0.190476  0.285714  0.000000      2.000000
  0.238095  0.285714  0.000000      2.000000
  0.285714  0.285714  0.000000      2.000000
  0.333333  0.285714  0.000000      2.000000
  0.380952  0.285714  0.000000      2.000000
  0.428571  0.285714  0.000000      2.000000
  0.476190  0.285714  0.000000      2.000000
 -0.476190  0.285714  0.000000      2.000000
 -0.428571  0.285714  0.000000      2.000000
 -0.380952  0.285714  0.000000      2.000000
 -0.333333  0.285714  0.000000      2.000000
 -0.285714  0.285714  0.000000      2.000000
 -0.238095  0.285714  0.000000      2.000000
 -0.190476  0.285714  0.000000      2.000000
 -0.142857  0.285714  0.000000      2.000000
 -0.095238  0.285714  0.000000      2.000000
 -0.047619  0.285714  0.000000      2.000000
  0.000000  0.333333  0.000000      2.000000
  0.047619  0.333333  0.000000      2.000000
  0.095238  0.333333  0.000000      2.000000
  0.142857  0.333333  0.000000      2.000000
  0.190476  0.333333  0.000000      2.000000
  0.238095  0.333333  0.000000      2.000000
  0.285714  0.333333  0.000000      2.000000
  0.333333  0.333333  0.000000      2.000000
  0.380952  0.333333  0.000000      2.000000
  0.428571  0.333333  0.000000      2.000000
  0.476190  0.333333  0.000000      2.000000
 -0.476190  0.333333  0.000000      2.000000
 -0.428571  0.333333  0.000000      2.000000
 -0.380952  0.333333  0.000000      2.000000
 -0.333333  0.333333  0.000000      2.000000
 -0.285714  0.333333  0.000000      2.000000
 -0.238095  0.333333  0.000000      2.000000
 -0.190476  0.333333  0.000000      2.000000
 -0.142857  0.333333  0.000000      2.000000
 -0.095238  0.333333  0.000000      2.000000
 -0.047619  0.333333  0.000000      2.000000
  0.000000  0.380952  0.000000      2.000000
  0.047619  0.380952  0.000000      2.000000
  0.095238  0.380952  0.000000      2.000000
  0.142857  0.380952  0.000000      2.000000
  0.190476  0.380952  0.000000      2.000000
  0.238095  0.380952  0.000000      2.000000
  0.285714  0.380952  0.000000      2.000000
  0.333333  0.380952  0.000000      2.000000
  0.380952  0.380952  0.000000      2.000000
  0.428571  0.380952  0.000000      2.000000
  0.476190  0.380952  0.000000      2.000000
 -0.476190  0.380952  0.000000      2.000000
 -0.428571  0.380952  0.000000      2.000000
 -0.380952  0.380952  0.000000      2.000000
 -0.333333  0.380952  0.000000      2.000000
 -0.285714  0.380952  0.000000      2.000000
 -0.238095  0.380952  0.000000      2.000000
 -0.190476  0.380952  0.000000      2.000000
 -0.142857  0.380952  0.000000      2.000000
 -0.095238  0.380952  0.000000      2.000000
 -0.047619  0.380952  0.000000      2.000000
  0.000000  0.428571  0.000000      2.000000
  0.047619  0.428571  0.000000      2.000000
  0.095238  0.428571  0.000000      2.000000
  0.142857  0.428571  0.000000      2.000000
  0.190476  0.428571  0.000000      2.000000
  0.238095  0.428571  0.000000      2.000000
  0.285714  0.428571  0.000000      2.000000
  0.333333  0.428571  0.000000      2.000000
  0.380952  0.428571  0.000000      2.000000
  0.428571  0.428571  0.000000      2.000000
  0.476190  0.428571  0.000000      2.000000
 -0.476190  0.428571  0.000000      2.000000
 -0.428571  0.428571  0.000000      2.000000
 -0.380952  0.428571  0.000000      2.000000
 -0.333333  0.428571  0.000000      2.000000
 -0.285714  0.428571  0.000000      2.000000
 -0.238095  0.428571  0.000000      2.000000
 -0.190476  0.428571  0.000000      2.000000
 -0.142857  0.428571  0.000000      2.000000
 -0.095238  0.428571  0.000000      2.000000
 -0.047619  0.428571  0.000000      2.000000
  0.000000  0.476190  0.000000      2.000000
  0.047619  0.476190  0.000000      2.000000
  0.095238  0.476190  0.000000      2.000000
  0.142857  0.476190  0.000000      2.000000
  0.190476  0.476190  0.000000      2.000000
  0.238095  0.476190  0.000000      2.000000
  0.285714  0.476190  0.000000      2.000000
  0.333333  0.476190  0.000000      2.000000
  0.380952  0.476190  0.000000      2.000000
  0.428571  0.476190  0.000000      2.000000
  0.476190  0.476190  0.000000      2.000000
 -0.476190  0.476190  0.000000      2.000000
 -0.428571  0.476190  0.000000      2.000000
 -0.380952  0.476190  0.000000      2.000000
 -0.333333  0.476190  0.000000      2.000000
 -0.285714  0.476190  0.000000      2.000000
 -0.238095  0.476190  0.000000      2.000000
 -0.190476  0.476190  0.000000      2.000000
 -0.142857  0.476190  0.000000      2.000000
 -0.095238  0.476190  0.000000      2.000000
 -0.047619  0.476190  0.000000      2.000000
 
 Following cartesian coordinates:
            Coordinates               Weight
  0.000000  0.000000  0.000000      1.000000
  0.003726 -0.006454  0.000000      2.000000
  0.007452 -0.012907  0.000000      2.000000
  0.011178 -0.019361  0.000000      2.000000
  0.014904 -0.025815  0.000000      2.000000
  0.018630 -0.032269  0.000000      2.000000
  0.022356 -0.038722  0.000000      2.000000
  0.026082 -0.045176  0.000000      2.000000
  0.029808 -0.051630  0.000000      2.000000
  0.033535 -0.058084  0.000000      2.000000
  0.037261 -0.064537  0.000000      2.000000
  0.003726  0.006454  0.000000      2.000000
  0.007452 -0.000000  0.000000      2.000000
  0.011178 -0.006454  0.000000      2.000000
  0.014904 -0.012907  0.000000      2.000000
  0.018630 -0.019361  0.000000      2.000000
  0.022356 -0.025815  0.000000      2.000000
  0.026082 -0.032269  0.000000      2.000000
  0.029808 -0.038722  0.000000      2.000000
  0.033535 -0.045176  0.000000      2.000000
  0.037261 -0.051630  0.000000      2.000000
  0.040987 -0.058084  0.000000      2.000000
 -0.033535  0.070991  0.000000      2.000000
 -0.029808  0.064537  0.000000      2.000000
 -0.026082  0.058084  0.000000      2.000000
 -0.022356  0.051630  0.000000      2.000000
 -0.018630  0.045176  0.000000      2.000000
 -0.014904  0.038722  0.000000      2.000000
 -0.011178  0.032269  0.000000      2.000000
 -0.007452  0.025815  0.000000      2.000000
 -0.003726  0.019361  0.000000      2.000000
  0.000000  0.012907  0.000000      2.000000
  0.007452  0.012907  0.000000      2.000000
  0.011178  0.006454  0.000000      2.000000
  0.014904 -0.000000  0.000000      2.000000
  0.018630 -0.006454  0.000000      2.000000
  0.022356 -0.012907  0.000000      2.000000
  0.026082 -0.019361  0.000000      2.000000
  0.029808 -0.025815  0.000000      2.000000
  0.033535 -0.032269  0.000000      2.000000
  0.037261 -0.038722  0.000000      2.000000
  0.040987 -0.045176  0.000000      2.000000
  0.044713 -0.051630  0.000000      2.000000
 -0.029808  0.077445  0.000000      2.000000
 -0.026082  0.070991  0.000000      2.000000
 -0.022356  0.064537  0.000000      2.000000
 -0.018630  0.058084  0.000000      2.000000
 -0.014904  0.051630  0.000000      2.000000
 -0.011178  0.045176  0.000000      2.000000
 -0.007452  0.038722  0.000000      2.000000
 -0.003726  0.032269  0.000000      2.000000
  0.000000  0.025815  0.000000      2.000000
  0.003726  0.019361  0.000000      2.000000
  0.011178  0.019361  0.000000      2.000000
  0.014904  0.012907  0.000000      2.000000
  0.018630  0.006454  0.000000      2.000000
  0.022356  0.000000  0.000000      2.000000
  0.026082 -0.006454  0.000000      2.000000
  0.029808 -0.012907  0.000000      2.000000
  0.033535 -0.019361  0.000000      2.000000
  0.037261 -0.025815  0.000000      2.000000
  0.040987 -0.032269  0.000000      2.000000
  0.044713 -0.038722  0.000000      2.000000
  0.048439 -0.045176  0.000000      2.000000
 -0.026082  0.083898  0.000000      2.000000
 -0.022356  0.077445  0.000000      2.000000
 -0.018630  0.070991  0.000000      2.000000
 -0.014904  0.064537  0.000000      2.000000
 -0.011178  0.058084  0.000000      2.000000
 -0.007452  0.051630  0.000000      2.000000
 -0.003726  0.045176  0.000000      2.000000
  0.000000  0.038722  0.000000      2.000000
  0.003726  0.032269  0.000000      2.000000
  0.007452  0.025815  0.000000      2.000000
  0.014904  0.025815  0.000000      2.000000
  0.018630  0.019361  0.000000      2.000000
  0.022356  0.012907  0.000000      2.000000
  0.026082  0.006454  0.000000      2.000000
  0.029808  0.000000  0.000000      2.000000
  0.033535 -0.006454  0.000000      2.000000
  0.037261 -0.012907  0.000000      2.000000
  0.040987 -0.019361  0.000000      2.000000
  0.044713 -0.025815  0.000000      2.000000
  0.048439 -0.032269  0.000000      2.000000
  0.052165 -0.038722  0.000000      2.000000
 -0.022356  0.090352  0.000000      2.000000
 -0.018630  0.083898  0.000000      2.000000
 -0.014904  0.077445  0.000000      2.000000
 -0.011178  0.070991  0.000000      2.000000
 -0.007452  0.064537  0.000000      2.000000
 -0.003726  0.058084  0.000000      2.000000
  0.000000  0.051630  0.000000      2.000000
  0.003726  0.045176  0.000000      2.000000
  0.007452  0.038722  0.000000      2.000000
  0.011178  0.032269  0.000000      2.000000
  0.018630  0.032269  0.000000      2.000000
  0.022356  0.025815  0.000000      2.000000
  0.026082  0.019361  0.000000      2.000000
  0.029808  0.012907  0.000000      2.000000
  0.033535  0.006454  0.000000      2.000000
  0.037261  0.000000  0.000000      2.000000
  0.040987 -0.006454  0.000000      2.000000
  0.044713 -0.012907  0.000000      2.000000
  0.048439 -0.019361  0.000000      2.000000
  0.052165 -0.025815  0.000000      2.000000
  0.055891 -0.032269  0.000000      2.000000
 -0.018630  0.096806  0.000000      2.000000
 -0.014904  0.090352  0.000000      2.000000
 -0.011178  0.083898  0.000000      2.000000
 -0.007452  0.077445  0.000000      2.000000
 -0.003726  0.070991  0.000000      2.000000
  0.000000  0.064537  0.000000      2.000000
  0.003726  0.058084  0.000000      2.000000
  0.007452  0.051630  0.000000      2.000000
  0.011178  0.045176  0.000000      2.000000
  0.014904  0.038722  0.000000      2.000000
  0.022356  0.038722  0.000000      2.000000
  0.026082  0.032269  0.000000      2.000000
  0.029808  0.025815  0.000000      2.000000
  0.033535  0.019361  0.000000      2.000000
  0.037261  0.012907  0.000000      2.000000
  0.040987  0.006454  0.000000      2.000000
  0.044713  0.000000  0.000000      2.000000
  0.048439 -0.006454  0.000000      2.000000
  0.052165 -0.012907  0.000000      2.000000
  0.055891 -0.019361  0.000000      2.000000
  0.059617 -0.025815  0.000000      2.000000
 -0.014904  0.103260  0.000000      2.000000
 -0.011178  0.096806  0.000000      2.000000
 -0.007452  0.090352  0.000000      2.000000
 -0.003726  0.083898  0.000000      2.000000
  0.000000  0.077445  0.000000      2.000000
  0.003726  0.070991  0.000000      2.000000
  0.007452  0.064537  0.000000      2.000000
  0.011178  0.058084  0.000000      2.000000
  0.014904  0.051630  0.000000      2.000000
  0.018630  0.045176  0.000000      2.000000
  0.026082  0.045176  0.000000      2.000000
  0.029808  0.038722  0.000000      2.000000
  0.033535  0.032269  0.000000      2.000000
  0.037261  0.025815  0.000000      2.000000
  0.040987  0.019361  0.000000      2.000000
  0.044713  0.012907  0.000000      2.000000
  0.048439  0.006454  0.000000      2.000000
  0.052165  0.000000  0.000000      2.000000
  0.055891 -0.006454  0.000000      2.000000
  0.059617 -0.012907  0.000000      2.000000
  0.063343 -0.019361  0.000000      2.000000
 -0.011178  0.109713  0.000000      2.000000
 -0.007452  0.103260  0.000000      2.000000
 -0.003726  0.096806  0.000000      2.000000
  0.000000  0.090352  0.000000      2.000000
  0.003726  0.083898  0.000000      2.000000
  0.007452  0.077445  0.000000      2.000000
  0.011178  0.070991  0.000000      2.000000
  0.014904  0.064537  0.000000      2.000000
  0.018630  0.058084  0.000000      2.000000
  0.022356  0.051630  0.000000      2.000000
  0.029808  0.051630  0.000000      2.000000
  0.033535  0.045176  0.000000      2.000000
  0.037261  0.038722  0.000000      2.000000
  0.040987  0.032269  0.000000      2.000000
  0.044713  0.025815  0.000000      2.000000
  0.048439  0.019361  0.000000      2.000000
  0.052165  0.012907  0.000000      2.000000
  0.055891  0.006454  0.000000      2.000000
  0.059617  0.000000  0.000000      2.000000
  0.063343 -0.006454  0.000000      2.000000
  0.067069 -0.012907  0.000000      2.000000
 -0.007452  0.116167  0.000000      2.000000
 -0.003726  0.109713  0.000000      2.000000
  0.000000  0.103260  0.000000      2.000000
  0.003726  0.096806  0.000000      2.000000
  0.007452  0.090352  0.000000      2.000000
  0.011178  0.083898  0.000000      2.000000
  0.014904  0.077445  0.000000      2.000000
  0.018630  0.070991  0.000000      2.000000
  0.022356  0.064537  0.000000      2.000000
  0.026082  0.058084  0.000000      2.000000
  0.033535  0.058084  0.000000      2.000000
  0.037261  0.051630  0.000000      2.000000
  0.040987  0.045176  0.000000      2.000000
  0.044713  0.038722  0.000000      2.000000
  0.048439  0.032269  0.000000      2.000000
  0.052165  0.025815  0.000000      2.000000
  0.055891  0.019361  0.000000      2.000000
  0.059617  0.012907  0.000000      2.000000
  0.063343  0.006454  0.000000      2.000000
  0.067069  0.000000  0.000000      2.000000
  0.070795 -0.006454  0.000000      2.000000
 -0.003726  0.122621  0.000000      2.000000
  0.000000  0.116167  0.000000      2.000000
  0.003726  0.109713  0.000000      2.000000
  0.007452  0.103260  0.000000      2.000000
  0.011178  0.096806  0.000000      2.000000
  0.014904  0.090352  0.000000      2.000000
  0.018630  0.083898  0.000000      2.000000
  0.022356  0.077445  0.000000      2.000000
  0.026082  0.070991  0.000000      2.000000
  0.029808  0.064537  0.000000      2.000000
  0.037261  0.064537  0.000000      2.000000
  0.040987  0.058084  0.000000      2.000000
  0.044713  0.051630  0.000000      2.000000
  0.048439  0.045176  0.000000      2.000000
  0.052165  0.038722  0.000000      2.000000
  0.055891  0.032269  0.000000      2.000000
  0.059617  0.025815  0.000000      2.000000
  0.063343  0.019361  0.000000      2.000000
  0.067069  0.012907  0.000000      2.000000
  0.070795  0.006454  0.000000      2.000000
  0.074521  0.000000  0.000000      2.000000
  0.000000  0.129075  0.000000      2.000000
  0.003726  0.122621  0.000000      2.000000
  0.007452  0.116167  0.000000      2.000000
  0.011178  0.109713  0.000000      2.000000
  0.014904  0.103260  0.000000      2.000000
  0.018630  0.096806  0.000000      2.000000
  0.022356  0.090352  0.000000      2.000000
  0.026082  0.083898  0.000000      2.000000
  0.029808  0.077445  0.000000      2.000000
  0.033535  0.070991  0.000000      2.000000
 


--------------------------------------------------------------------------------------------------------




 Dimension of arrays:
   k-points           NKPTS =    221   k-points in BZ     NKDIM =    221   number of bands    NBANDS=     96
   number of dos      NEDOS =    301   number of ions     NIONS =     36
   non local maximal  LDIM  =      4   non local SUM 2l+1 LMDIM =      8
   total plane-waves  NPLWV = 940800
   max r-space proj   IRMAX =      1   max aug-charges    IRDMAX=  94377
   dimension x,y,z NGX =    70 NGY =   70 NGZ =  192
   dimension x,y,z NGXF=   140 NGYF=  140 NGZF=  384
   support grid    NGXF=   280 NGYF=  280 NGZF=  768
   ions per type =              36
   NGX,Y,Z   is equivalent  to a cutoff of  15.77, 15.77, 15.96 a.u.
   NGXF,Y,Z  is equivalent  to a cutoff of  31.54, 31.54, 31.92 a.u.

 SYSTEM =  C-4                                     
 POSCAR =  generated by phonopy                    

 Startparameter for this run:
   NWRITE =      2    write-flag & timer
   PREC   = accura    normal or accurate (medium, high low for compatibility)
   ISTART =      0    job   : 0-new  1-cont  2-samecut
   ICHARG =      2    charge: 1-file 2-atom 10-const
   ISPIN  =      1    spin polarized calculation?
   LNONCOLLINEAR =      F non collinear calculations
   LSORBIT =      F    spin-orbit coupling
   INIWAV =      1    electr: 0-lowe 1-rand  2-diag
   LASPH  =      F    aspherical Exc in radial PAW
   METAGGA=      F    non-selfconsistent MetaGGA calc.

 Electronic Relaxation 1
   ENCUT  =  800.0 eV  58.80 Ry    7.67 a.u.  17.02 17.02 46.12*2*pi/ulx,y,z
   ENINI  =  800.0     initial cutoff
   ENAUG  =  644.9 eV  augmentation charge cutoff
   NELM   =     60;   NELMIN=  5; NELMDL= -5     # of ELM steps 
   EDIFF  = 0.1E-07   stopping-criterion for ELM
   LREAL  =      F    real-space projection
   NLSPLINE    = F    spline interpolate recip. space projectors
   LCOMPAT=      F    compatible to vasp.4.4
   GGA_COMPAT  = T    GGA compatible to vasp.4.4-vasp.4.6
   LMAXPAW     = -100 max onsite density
   LMAXMIX     =    2 max onsite mixed and CHGCAR
   VOSKOWN=      0    Vosko Wilk Nusair interpolation
   ROPT   =    0.00000
 Ionic relaxation
   EDIFFG = -.1E-07   stopping-criterion for IOM
   NSW    =      0    number of steps for IOM
   NBLOCK =      1;   KBLOCK =      1    inner block; outer block 
   IBRION =     -1    ionic relax: 0-MD 1-quasi-New 2-CG
   NFREE  =      0    steps in history (QN), initial steepest desc. (CG)
   ISIF   =      2    stress and relaxation
   IWAVPR =     10    prediction:  0-non 1-charg 2-wave 3-comb
   ISYM   =      2    0-nonsym 1-usesym 2-fastsym
   LCORR  =      T    Harris-Foulkes like correction to forces

   POTIM  = 0.5000    time-step for ionic-motion
   TEIN   =    0.0    initial temperature
   TEBEG  =    0.0;   TEEND  =   0.0 temperature during run
   SMASS  =  -3.00    Nose mass-parameter (am)
   estimated Nose-frequenzy (Omega)   =  0.10E-29 period in steps =****** mass=  -0.124E-26a.u.
   SCALEE = 1.0000    scale energy and forces
   NPACO  =    256;   APACO  = 16.0  distance and # of slots for P.C.
   PSTRESS=    0.0 pullay stress

  Mass of Ions in am
   POMASS =  12.01
  Ionic Valenz
   ZVAL   =   4.00
  Atomic Wigner-Seitz radii
   RWIGS  =  -1.00
  virtual crystal weights 
   VCA    =   1.00
   NELECT =     144.0000    total number of electrons
   NUPDOWN=      -1.0000    fix difference up-down

 DOS related values:
   EMIN   =  10.00;   EMAX   =-10.00  energy-range for DOS
   EFERMI =   0.00
   ISMEAR =     0;   SIGMA  =   0.01  broadening in eV -4-tet -1-fermi 0-gaus

 Electronic relaxation 2 (details)
   IALGO  =     38    algorithm
   LDIAG  =      T    sub-space diagonalisation (order eigenvalues)
   LSUBROT=      F    optimize rotation matrix (better conditioning)
   TURBO    =      0    0=normal 1=particle mesh
   IRESTART =      0    0=no restart 2=restart with 2 vectors
   NREBOOT  =      0    no. of reboots
   NMIN     =      0    reboot dimension
   EREF     =   0.00    reference energy to select bands
   IMIX   =      4    mixing-type and parameters
     AMIX     =   0.40;   BMIX     =  1.00
     AMIX_MAG =   1.60;   BMIX_MAG =  1.00
     AMIN     =   0.01
     WC   =   100.;   INIMIX=   1;  MIXPRE=   1;  MAXMIX= -45

 Intra band minimization:
   WEIMIN = 0.0000     energy-eigenvalue tresh-hold
   EBREAK =  0.26E-11  absolut break condition
   DEPER  =   0.30     relativ break condition  

   TIME   =   0.40     timestep for ELM

  volume/ion in A,a.u.               =      26.19       176.76
  Fermi-wavevector in a.u.,A,eV,Ry     =   0.875041  1.653589 10.417948  0.765698
  Thomas-Fermi vector in A             =   1.994657
 
 Write flags
   LWAVE        =      F    write WAVECAR
   LDOWNSAMPLE  =      F    k-point downsampling of WAVECAR
   LCHARG       =      F    write CHGCAR
   LVTOT        =      F    write LOCPOT, total local potential
   LVHAR        =      F    write LOCPOT, Hartree potential only
   LELF         =      F    write electronic localiz. function (ELF)
   LORBIT       =      0    0 simple, 1 ext, 2 COOP (PROOUT), +10 PAW based schemes


 Dipole corrections
   LMONO  =      F    monopole corrections only (constant potential shift)
   LDIPOL =      F    correct potential (dipole corrections)
   IDIPOL =      0    1-x, 2-y, 3-z, 4-all directions 
   EPSILON=  1.0000000 bulk dielectric constant

 Exchange correlation treatment:
   GGA     =    --    GGA type
   LEXCH   =     8    internal setting for exchange type
   VOSKOWN=      0    Vosko Wilk Nusair interpolation
   LHFCALC =     F    Hartree Fock is set to
   LHFONE  =     F    Hartree Fock one center treatment
   AEXX    =    0.0000 exact exchange contribution

 Linear response parameters
   LEPSILON=     F    determine dielectric tensor
   LRPA    =     F    only Hartree local field effects (RPA)
   LNABLA  =     F    use nabla operator in PAW spheres
   LVEL    =     F    velocity operator in full k-point grid
   LINTERFAST=   F  fast interpolation
   KINTER  =     0    interpolate to denser k-point grid
   CSHIFT  =0.1000    complex shift for real part using Kramers Kronig
   OMEGAMAX=  -1.0    maximum frequency
   DEG_THRESHOLD= 0.2000000E-02 threshold for treating states as degnerate
   RTIME   =   -0.100 relaxation time in fs
  (WPLASMAI=    0.000 imaginary part of plasma frequency in eV, 0.658/RTIME)
   DFIELD  = 0.0000000 0.0000000 0.0000000 field for delta impulse in time
 
 Orbital magnetization related:
   ORBITALMAG=     F  switch on orbital magnetization
   LCHIMAG   =     F  perturbation theory with respect to B field
   DQ        =  0.001000  dq finite difference perturbation B field
   LLRAUG    =     F  two centre corrections for induced B field



--------------------------------------------------------------------------------------------------------


 Static calculation
 charge density and potential will be updated during run
 non-spin polarized calculation
 Variant of blocked Davidson
 Davidson routine will perform the subspace rotation
 perform sub-space diagonalisation
    after iterative eigenvector-optimisation
 modified Broyden-mixing scheme, WC =      100.0
 initial mixing is a Kerker type mixing with AMIX =  0.4000 and BMIX =      1.0000
 Hartree-type preconditioning will be used
 using additional bands           24
 reciprocal scheme for non local part
 calculate Harris-corrections to forces 
   (improved forces if not selfconsistent)
 use gradient corrections 
 use of overlap-Matrix (Vanderbilt PP)
 Gauss-broadening in eV      SIGMA  =   0.01


--------------------------------------------------------------------------------------------------------


  energy-cutoff  :      800.00
  volume of cell :      942.98
      direct lattice vectors                 reciprocal lattice vectors
     6.390000000 -3.689268000  0.000000000     0.078247261 -0.135528240  0.000000000
     6.390000000  3.689268000  0.000000000     0.078247261  0.135528240  0.000000000
     0.000000000  0.000000000 20.000000000     0.000000000  0.000000000  0.050000000

  length of vectors
     7.378536330  7.378536330 20.000000000     0.156494530  0.156494530  0.050000000


 
 k-points in units of 2pi/SCALE and weight: C-4                                     
   0.00000000 -0.00000000  0.00000000       0.002
   0.00372606 -0.00645373  0.00000000       0.005
   0.00745212 -0.01290745  0.00000000       0.005
   0.01117818 -0.01936118  0.00000000       0.005
   0.01490424 -0.02581490  0.00000000       0.005
   0.01863030 -0.03226863  0.00000000       0.005
   0.02235636 -0.03872235  0.00000000       0.005
   0.02608242 -0.04517608  0.00000000       0.005
   0.02980848 -0.05162981  0.00000000       0.005
   0.03353454 -0.05808353  0.00000000       0.005
   0.03726060 -0.06453726  0.00000000       0.005
   0.00372606  0.00645373  0.00000000       0.005
   0.00745212 -0.00000000  0.00000000       0.005
   0.01117818 -0.00645373  0.00000000       0.005
   0.01490424 -0.01290745  0.00000000       0.005
   0.01863030 -0.01936118  0.00000000       0.005
   0.02235636 -0.02581490  0.00000000       0.005
   0.02608242 -0.03226863  0.00000000       0.005
   0.02980848 -0.03872235  0.00000000       0.005
   0.03353454 -0.04517608  0.00000000       0.005
   0.03726060 -0.05162981  0.00000000       0.005
   0.04098666 -0.05808353  0.00000000       0.005
  -0.03353454  0.07099098  0.00000000       0.005
  -0.02980848  0.06453726  0.00000000       0.005
  -0.02608242  0.05808353  0.00000000       0.005
  -0.02235636  0.05162981  0.00000000       0.005
  -0.01863030  0.04517608  0.00000000       0.005
  -0.01490424  0.03872235  0.00000000       0.005
  -0.01117818  0.03226863  0.00000000       0.005
  -0.00745212  0.02581490  0.00000000       0.005
  -0.00372606  0.01936118  0.00000000       0.005
   0.00000000  0.01290745  0.00000000       0.005
   0.00745212  0.01290745  0.00000000       0.005
   0.01117818  0.00645373  0.00000000       0.005
   0.01490424 -0.00000000  0.00000000       0.005
   0.01863030 -0.00645373  0.00000000       0.005
   0.02235636 -0.01290745  0.00000000       0.005
   0.02608242 -0.01936118  0.00000000       0.005
   0.02980848 -0.02581490  0.00000000       0.005
   0.03353454 -0.03226863  0.00000000       0.005
   0.03726060 -0.03872235  0.00000000       0.005
   0.04098666 -0.04517608  0.00000000       0.005
   0.04471272 -0.05162981  0.00000000       0.005
  -0.02980848  0.07744471  0.00000000       0.005
  -0.02608242  0.07099098  0.00000000       0.005
  -0.02235636  0.06453726  0.00000000       0.005
  -0.01863030  0.05808353  0.00000000       0.005
  -0.01490424  0.05162981  0.00000000       0.005
  -0.01117818  0.04517608  0.00000000       0.005
  -0.00745212  0.03872235  0.00000000       0.005
  -0.00372606  0.03226863  0.00000000       0.005
   0.00000000  0.02581490  0.00000000       0.005
   0.00372606  0.01936118  0.00000000       0.005
   0.01117818  0.01936118  0.00000000       0.005
   0.01490424  0.01290745  0.00000000       0.005
   0.01863030  0.00645373  0.00000000       0.005
   0.02235636  0.00000000  0.00000000       0.005
   0.02608242 -0.00645373  0.00000000       0.005
   0.02980848 -0.01290745  0.00000000       0.005
   0.03353454 -0.01936118  0.00000000       0.005
   0.03726060 -0.02581490  0.00000000       0.005
   0.04098666 -0.03226863  0.00000000       0.005
   0.04471272 -0.03872235  0.00000000       0.005
   0.04843878 -0.04517608  0.00000000       0.005
  -0.02608242  0.08389843  0.00000000       0.005
  -0.02235636  0.07744471  0.00000000       0.005
  -0.01863030  0.07099098  0.00000000       0.005
  -0.01490424  0.06453726  0.00000000       0.005
  -0.01117818  0.05808353  0.00000000       0.005
  -0.00745212  0.05162981  0.00000000       0.005
  -0.00372606  0.04517608  0.00000000       0.005
   0.00000000  0.03872235  0.00000000       0.005
   0.00372606  0.03226863  0.00000000       0.005
   0.00745212  0.02581490  0.00000000       0.005
   0.01490424  0.02581490  0.00000000       0.005
   0.01863030  0.01936118  0.00000000       0.005
   0.02235636  0.01290745  0.00000000       0.005
   0.02608242  0.00645373  0.00000000       0.005
   0.02980848  0.00000000  0.00000000       0.005
   0.03353454 -0.00645373  0.00000000       0.005
   0.03726060 -0.01290745  0.00000000       0.005
   0.04098666 -0.01936118  0.00000000       0.005
   0.04471272 -0.02581490  0.00000000       0.005
   0.04843878 -0.03226863  0.00000000       0.005
   0.05216484 -0.03872235  0.00000000       0.005
  -0.02235636  0.09035216  0.00000000       0.005
  -0.01863030  0.08389843  0.00000000       0.005
  -0.01490424  0.07744471  0.00000000       0.005
  -0.01117818  0.07099098  0.00000000       0.005
  -0.00745212  0.06453726  0.00000000       0.005
  -0.00372606  0.05808353  0.00000000       0.005
   0.00000000  0.05162981  0.00000000       0.005
   0.00372606  0.04517608  0.00000000       0.005
   0.00745212  0.03872235  0.00000000       0.005
   0.01117818  0.03226863  0.00000000       0.005
   0.01863030  0.03226863  0.00000000       0.005
   0.02235636  0.02581490  0.00000000       0.005
   0.02608242  0.01936118  0.00000000       0.005
   0.02980848  0.01290745  0.00000000       0.005
   0.03353454  0.00645373  0.00000000       0.005
   0.03726060  0.00000000  0.00000000       0.005
   0.04098666 -0.00645373  0.00000000       0.005
   0.04471272 -0.01290745  0.00000000       0.005
   0.04843878 -0.01936118  0.00000000       0.005
   0.05216484 -0.02581490  0.00000000       0.005
   0.05589090 -0.03226863  0.00000000       0.005
  -0.01863030  0.09680589  0.00000000       0.005
  -0.01490424  0.09035216  0.00000000       0.005
  -0.01117818  0.08389843  0.00000000       0.005
  -0.00745212  0.07744471  0.00000000       0.005
  -0.00372606  0.07099098  0.00000000       0.005
   0.00000000  0.06453726  0.00000000       0.005
   0.00372606  0.05808353  0.00000000       0.005
   0.00745212  0.05162981  0.00000000       0.005
   0.01117818  0.04517608  0.00000000       0.005
   0.01490424  0.03872235  0.00000000       0.005
   0.02235636  0.03872235  0.00000000       0.005
   0.02608242  0.03226863  0.00000000       0.005
   0.02980848  0.02581490  0.00000000       0.005
   0.03353454  0.01936118  0.00000000       0.005
   0.03726060  0.01290745  0.00000000       0.005
   0.04098666  0.00645373  0.00000000       0.005
   0.04471272  0.00000000  0.00000000       0.005
   0.04843878 -0.00645373  0.00000000       0.005
   0.05216484 -0.01290745  0.00000000       0.005
   0.05589090 -0.01936118  0.00000000       0.005
   0.05961696 -0.02581490  0.00000000       0.005
  -0.01490424  0.10325961  0.00000000       0.005
  -0.01117818  0.09680589  0.00000000       0.005
  -0.00745212  0.09035216  0.00000000       0.005
  -0.00372606  0.08389843  0.00000000       0.005
   0.00000000  0.07744471  0.00000000       0.005
   0.00372606  0.07099098  0.00000000       0.005
   0.00745212  0.06453726  0.00000000       0.005
   0.01117818  0.05808353  0.00000000       0.005
   0.01490424  0.05162981  0.00000000       0.005
   0.01863030  0.04517608  0.00000000       0.005
   0.02608242  0.04517608  0.00000000       0.005
   0.02980848  0.03872235  0.00000000       0.005
   0.03353454  0.03226863  0.00000000       0.005
   0.03726060  0.02581490  0.00000000       0.005
   0.04098666  0.01936118  0.00000000       0.005
   0.04471272  0.01290745  0.00000000       0.005
   0.04843878  0.00645373  0.00000000       0.005
   0.05216484  0.00000000  0.00000000       0.005
   0.05589090 -0.00645373  0.00000000       0.005
   0.05961696 -0.01290745  0.00000000       0.005
   0.06334302 -0.01936118  0.00000000       0.005
  -0.01117818  0.10971334  0.00000000       0.005
  -0.00745212  0.10325961  0.00000000       0.005
  -0.00372606  0.09680589  0.00000000       0.005
   0.00000000  0.09035216  0.00000000       0.005
   0.00372606  0.08389843  0.00000000       0.005
   0.00745212  0.07744471  0.00000000       0.005
   0.01117818  0.07099098  0.00000000       0.005
   0.01490424  0.06453726  0.00000000       0.005
   0.01863030  0.05808353  0.00000000       0.005
   0.02235636  0.05162981  0.00000000       0.005
   0.02980848  0.05162981  0.00000000       0.005
   0.03353454  0.04517608  0.00000000       0.005
   0.03726060  0.03872235  0.00000000       0.005
   0.04098666  0.03226863  0.00000000       0.005
   0.04471272  0.02581490  0.00000000       0.005
   0.04843878  0.01936118  0.00000000       0.005
   0.05216484  0.01290745  0.00000000       0.005
   0.05589090  0.00645373  0.00000000       0.005
   0.05961696  0.00000000  0.00000000       0.005
   0.06334302 -0.00645373  0.00000000       0.005
   0.06706908 -0.01290745  0.00000000       0.005
  -0.00745212  0.11616706  0.00000000       0.005
  -0.00372606  0.10971334  0.00000000       0.005
   0.00000000  0.10325961  0.00000000       0.005
   0.00372606  0.09680589  0.00000000       0.005
   0.00745212  0.09035216  0.00000000       0.005
   0.01117818  0.08389843  0.00000000       0.005
   0.01490424  0.07744471  0.00000000       0.005
   0.01863030  0.07099098  0.00000000       0.005
   0.02235636  0.06453726  0.00000000       0.005
   0.02608242  0.05808353  0.00000000       0.005
   0.03353454  0.05808353  0.00000000       0.005
   0.03726060  0.05162981  0.00000000       0.005
   0.04098666  0.04517608  0.00000000       0.005
   0.04471272  0.03872235  0.00000000       0.005
   0.04843878  0.03226863  0.00000000       0.005
   0.05216484  0.02581490  0.00000000       0.005
   0.05589090  0.01936118  0.00000000       0.005
   0.05961696  0.01290745  0.00000000       0.005
   0.06334302  0.00645373  0.00000000       0.005
   0.06706908  0.00000000  0.00000000       0.005
   0.07079514 -0.00645373  0.00000000       0.005
  -0.00372606  0.12262079  0.00000000       0.005
   0.00000000  0.11616706  0.00000000       0.005
   0.00372606  0.10971334  0.00000000       0.005
   0.00745212  0.10325961  0.00000000       0.005
   0.01117818  0.09680589  0.00000000       0.005
   0.01490424  0.09035216  0.00000000       0.005
   0.01863030  0.08389843  0.00000000       0.005
   0.02235636  0.07744471  0.00000000       0.005
   0.02608242  0.07099098  0.00000000       0.005
   0.02980848  0.06453726  0.00000000       0.005
   0.03726060  0.06453726  0.00000000       0.005
   0.04098666  0.05808353  0.00000000       0.005
   0.04471272  0.05162981  0.00000000       0.005
   0.04843878  0.04517608  0.00000000       0.005
   0.05216484  0.03872235  0.00000000       0.005
   0.05589090  0.03226863  0.00000000       0.005
   0.05961696  0.02581490  0.00000000       0.005
   0.06334302  0.01936118  0.00000000       0.005
   0.06706908  0.01290745  0.00000000       0.005
   0.07079514  0.00645373  0.00000000       0.005
   0.07452120  0.00000000  0.00000000       0.005
   0.00000000  0.12907451  0.00000000       0.005
   0.00372606  0.12262079  0.00000000       0.005
   0.00745212  0.11616706  0.00000000       0.005
   0.01117818  0.10971334  0.00000000       0.005
   0.01490424  0.10325961  0.00000000       0.005
   0.01863030  0.09680589  0.00000000       0.005
   0.02235636  0.09035216  0.00000000       0.005
   0.02608242  0.08389843  0.00000000       0.005
   0.02980848  0.07744471  0.00000000       0.005
   0.03353454  0.07099098  0.00000000       0.005
 
 k-points in reciprocal lattice and weights: C-4                                     
   0.00000000  0.00000000  0.00000000       0.002
   0.04761905  0.00000000  0.00000000       0.005
   0.09523810  0.00000000  0.00000000       0.005
   0.14285714  0.00000000  0.00000000       0.005
   0.19047619  0.00000000  0.00000000       0.005
   0.23809524  0.00000000  0.00000000       0.005
   0.28571429  0.00000000  0.00000000       0.005
   0.33333333  0.00000000  0.00000000       0.005
   0.38095238  0.00000000  0.00000000       0.005
   0.42857143  0.00000000  0.00000000       0.005
   0.47619048  0.00000000  0.00000000       0.005
   0.00000000  0.04761905  0.00000000       0.005
   0.04761905  0.04761905  0.00000000       0.005
   0.09523810  0.04761905  0.00000000       0.005
   0.14285714  0.04761905  0.00000000       0.005
   0.19047619  0.04761905  0.00000000       0.005
   0.23809524  0.04761905  0.00000000       0.005
   0.28571429  0.04761905  0.00000000       0.005
   0.33333333  0.04761905  0.00000000       0.005
   0.38095238  0.04761905  0.00000000       0.005
   0.42857143  0.04761905  0.00000000       0.005
   0.47619048  0.04761905  0.00000000       0.005
  -0.47619048  0.04761905  0.00000000       0.005
  -0.42857143  0.04761905  0.00000000       0.005
  -0.38095238  0.04761905  0.00000000       0.005
  -0.33333333  0.04761905  0.00000000       0.005
  -0.28571429  0.04761905  0.00000000       0.005
  -0.23809524  0.04761905  0.00000000       0.005
  -0.19047619  0.04761905  0.00000000       0.005
  -0.14285714  0.04761905  0.00000000       0.005
  -0.09523810  0.04761905  0.00000000       0.005
  -0.04761905  0.04761905  0.00000000       0.005
   0.00000000  0.09523810  0.00000000       0.005
   0.04761905  0.09523810  0.00000000       0.005
   0.09523810  0.09523810  0.00000000       0.005
   0.14285714  0.09523810  0.00000000       0.005
   0.19047619  0.09523810  0.00000000       0.005
   0.23809524  0.09523810  0.00000000       0.005
   0.28571429  0.09523810  0.00000000       0.005
   0.33333333  0.09523810  0.00000000       0.005
   0.38095238  0.09523810  0.00000000       0.005
   0.42857143  0.09523810  0.00000000       0.005
   0.47619048  0.09523810  0.00000000       0.005
  -0.47619048  0.09523810  0.00000000       0.005
  -0.42857143  0.09523810  0.00000000       0.005
  -0.38095238  0.09523810  0.00000000       0.005
  -0.33333333  0.09523810  0.00000000       0.005
  -0.28571429  0.09523810  0.00000000       0.005
  -0.23809524  0.09523810  0.00000000       0.005
  -0.19047619  0.09523810  0.00000000       0.005
  -0.14285714  0.09523810  0.00000000       0.005
  -0.09523810  0.09523810  0.00000000       0.005
  -0.04761905  0.09523810  0.00000000       0.005
   0.00000000  0.14285714  0.00000000       0.005
   0.04761905  0.14285714  0.00000000       0.005
   0.09523810  0.14285714  0.00000000       0.005
   0.14285714  0.14285714  0.00000000       0.005
   0.19047619  0.14285714  0.00000000       0.005
   0.23809524  0.14285714  0.00000000       0.005
   0.28571429  0.14285714  0.00000000       0.005
   0.33333333  0.14285714  0.00000000       0.005
   0.38095238  0.14285714  0.00000000       0.005
   0.42857143  0.14285714  0.00000000       0.005
   0.47619048  0.14285714  0.00000000       0.005
  -0.47619048  0.14285714  0.00000000       0.005
  -0.42857143  0.14285714  0.00000000       0.005
  -0.38095238  0.14285714  0.00000000       0.005
  -0.33333333  0.14285714  0.00000000       0.005
  -0.28571429  0.14285714  0.00000000       0.005
  -0.23809524  0.14285714  0.00000000       0.005
  -0.19047619  0.14285714  0.00000000       0.005
  -0.14285714  0.14285714  0.00000000       0.005
  -0.09523810  0.14285714  0.00000000       0.005
  -0.04761905  0.14285714  0.00000000       0.005
   0.00000000  0.19047619  0.00000000       0.005
   0.04761905  0.19047619  0.00000000       0.005
   0.09523810  0.19047619  0.00000000       0.005
   0.14285714  0.19047619  0.00000000       0.005
   0.19047619  0.19047619  0.00000000       0.005
   0.23809524  0.19047619  0.00000000       0.005
   0.28571429  0.19047619  0.00000000       0.005
   0.33333333  0.19047619  0.00000000       0.005
   0.38095238  0.19047619  0.00000000       0.005
   0.42857143  0.19047619  0.00000000       0.005
   0.47619048  0.19047619  0.00000000       0.005
  -0.47619048  0.19047619  0.00000000       0.005
  -0.42857143  0.19047619  0.00000000       0.005
  -0.38095238  0.19047619  0.00000000       0.005
  -0.33333333  0.19047619  0.00000000       0.005
  -0.28571429  0.19047619  0.00000000       0.005
  -0.23809524  0.19047619  0.00000000       0.005
  -0.19047619  0.19047619  0.00000000       0.005
  -0.14285714  0.19047619  0.00000000       0.005
  -0.09523810  0.19047619  0.00000000       0.005
  -0.04761905  0.19047619  0.00000000       0.005
   0.00000000  0.23809524  0.00000000       0.005
   0.04761905  0.23809524  0.00000000       0.005
   0.09523810  0.23809524  0.00000000       0.005
   0.14285714  0.23809524  0.00000000       0.005
   0.19047619  0.23809524  0.00000000       0.005
   0.23809524  0.23809524  0.00000000       0.005
   0.28571429  0.23809524  0.00000000       0.005
   0.33333333  0.23809524  0.00000000       0.005
   0.38095238  0.23809524  0.00000000       0.005
   0.42857143  0.23809524  0.00000000       0.005
   0.47619048  0.23809524  0.00000000       0.005
  -0.47619048  0.23809524  0.00000000       0.005
  -0.42857143  0.23809524  0.00000000       0.005
  -0.38095238  0.23809524  0.00000000       0.005
  -0.33333333  0.23809524  0.00000000       0.005
  -0.28571429  0.23809524  0.00000000       0.005
  -0.23809524  0.23809524  0.00000000       0.005
  -0.19047619  0.23809524  0.00000000       0.005
  -0.14285714  0.23809524  0.00000000       0.005
  -0.09523810  0.23809524  0.00000000       0.005
  -0.04761905  0.23809524  0.00000000       0.005
   0.00000000  0.28571429  0.00000000       0.005
   0.04761905  0.28571429  0.00000000       0.005
   0.09523810  0.28571429  0.00000000       0.005
   0.14285714  0.28571429  0.00000000       0.005
   0.19047619  0.28571429  0.00000000       0.005
   0.23809524  0.28571429  0.00000000       0.005
   0.28571429  0.28571429  0.00000000       0.005
   0.33333333  0.28571429  0.00000000       0.005
   0.38095238  0.28571429  0.00000000       0.005
   0.42857143  0.28571429  0.00000000       0.005
   0.47619048  0.28571429  0.00000000       0.005
  -0.47619048  0.28571429  0.00000000       0.005
  -0.42857143  0.28571429  0.00000000       0.005
  -0.38095238  0.28571429  0.00000000       0.005
  -0.33333333  0.28571429  0.00000000       0.005
  -0.28571429  0.28571429  0.00000000       0.005
  -0.23809524  0.28571429  0.00000000       0.005
  -0.19047619  0.28571429  0.00000000       0.005
  -0.14285714  0.28571429  0.00000000       0.005
  -0.09523810  0.28571429  0.00000000       0.005
  -0.04761905  0.28571429  0.00000000       0.005
   0.00000000  0.33333333  0.00000000       0.005
   0.04761905  0.33333333  0.00000000       0.005
   0.09523810  0.33333333  0.00000000       0.005
   0.14285714  0.33333333  0.00000000       0.005
   0.19047619  0.33333333  0.00000000       0.005
   0.23809524  0.33333333  0.00000000       0.005
   0.28571429  0.33333333  0.00000000       0.005
   0.33333333  0.33333333  0.00000000       0.005
   0.38095238  0.33333333  0.00000000       0.005
   0.42857143  0.33333333  0.00000000       0.005
   0.47619048  0.33333333  0.00000000       0.005
  -0.47619048  0.33333333  0.00000000       0.005
  -0.42857143  0.33333333  0.00000000       0.005
  -0.38095238  0.33333333  0.00000000       0.005
  -0.33333333  0.33333333  0.00000000       0.005
  -0.28571429  0.33333333  0.00000000       0.005
  -0.23809524  0.33333333  0.00000000       0.005
  -0.19047619  0.33333333  0.00000000       0.005
  -0.14285714  0.33333333  0.00000000       0.005
  -0.09523810  0.33333333  0.00000000       0.005
  -0.04761905  0.33333333  0.00000000       0.005
   0.00000000  0.38095238  0.00000000       0.005
   0.04761905  0.38095238  0.00000000       0.005
   0.09523810  0.38095238  0.00000000       0.005
   0.14285714  0.38095238  0.00000000       0.005
   0.19047619  0.38095238  0.00000000       0.005
   0.23809524  0.38095238  0.00000000       0.005
   0.28571429  0.38095238  0.00000000       0.005
   0.33333333  0.38095238  0.00000000       0.005
   0.38095238  0.38095238  0.00000000       0.005
   0.42857143  0.38095238  0.00000000       0.005
   0.47619048  0.38095238  0.00000000       0.005
  -0.47619048  0.38095238  0.00000000       0.005
  -0.42857143  0.38095238  0.00000000       0.005
  -0.38095238  0.38095238  0.00000000       0.005
  -0.33333333  0.38095238  0.00000000       0.005
  -0.28571429  0.38095238  0.00000000       0.005
  -0.23809524  0.38095238  0.00000000       0.005
  -0.19047619  0.38095238  0.00000000       0.005
  -0.14285714  0.38095238  0.00000000       0.005
  -0.09523810  0.38095238  0.00000000       0.005
  -0.04761905  0.38095238  0.00000000       0.005
   0.00000000  0.42857143  0.00000000       0.005
   0.04761905  0.42857143  0.00000000       0.005
   0.09523810  0.42857143  0.00000000       0.005
   0.14285714  0.42857143  0.00000000       0.005
   0.19047619  0.42857143  0.00000000       0.005
   0.23809524  0.42857143  0.00000000       0.005
   0.28571429  0.42857143  0.00000000       0.005
   0.33333333  0.42857143  0.00000000       0.005
   0.38095238  0.42857143  0.00000000       0.005
   0.42857143  0.42857143  0.00000000       0.005
   0.47619048  0.42857143  0.00000000       0.005
  -0.47619048  0.42857143  0.00000000       0.005
  -0.42857143  0.42857143  0.00000000       0.005
  -0.38095238  0.42857143  0.00000000       0.005
  -0.33333333  0.42857143  0.00000000       0.005
  -0.28571429  0.42857143  0.00000000       0.005
  -0.23809524  0.42857143  0.00000000       0.005
  -0.19047619  0.42857143  0.00000000       0.005
  -0.14285714  0.42857143  0.00000000       0.005
  -0.09523810  0.42857143  0.00000000       0.005
  -0.04761905  0.42857143  0.00000000       0.005
   0.00000000  0.47619048  0.00000000       0.005
   0.04761905  0.47619048  0.00000000       0.005
   0.09523810  0.47619048  0.00000000       0.005
   0.14285714  0.47619048  0.00000000       0.005
   0.19047619  0.47619048  0.00000000       0.005
   0.23809524  0.47619048  0.00000000       0.005
   0.28571429  0.47619048  0.00000000       0.005
   0.33333333  0.47619048  0.00000000       0.005
   0.38095238  0.47619048  0.00000000       0.005
   0.42857143  0.47619048  0.00000000       0.005
   0.47619048  0.47619048  0.00000000       0.005
  -0.47619048  0.47619048  0.00000000       0.005
  -0.42857143  0.47619048  0.00000000       0.005
  -0.38095238  0.47619048  0.00000000       0.005
  -0.33333333  0.47619048  0.00000000       0.005
  -0.28571429  0.47619048  0.00000000       0.005
  -0.23809524  0.47619048  0.00000000       0.005
  -0.19047619  0.47619048  0.00000000       0.005
  -0.14285714  0.47619048  0.00000000       0.005
  -0.09523810  0.47619048  0.00000000       0.005
  -0.04761905  0.47619048  0.00000000       0.005
 
 position of ions in fractional coordinates (direct lattice) 
   0.99953100  0.00000000  0.99953100
   0.33333300  0.00000000  0.00000000
   0.66666700  0.00000000  0.00000000
   0.00000000  0.33333300  0.00000000
   0.33333300  0.33333300  0.00000000
   0.66666700  0.33333300  0.00000000
   0.00000000  0.66666700  0.00000000
   0.33333300  0.66666700  0.00000000
   0.66666700  0.66666700  0.00000000
   0.11111100  0.11111100  0.00000000
   0.44444400  0.11111100  0.00000000
   0.77777800  0.11111100  0.00000000
   0.11111100  0.44444400  0.00000000
   0.44444400  0.44444400  0.00000000
   0.77777800  0.44444400  0.00000000
   0.11111100  0.77777800  0.00000000
   0.44444400  0.77777800  0.00000000
   0.77777800  0.77777800  0.00000000
   0.00000000  0.00000000  0.22193400
   0.33333300  0.00000000  0.22193400
   0.66666700  0.00000000  0.22193400
   0.00000000  0.33333300  0.22193400
   0.33333300  0.33333300  0.22193400
   0.66666700  0.33333300  0.22193400
   0.00000000  0.66666700  0.22193400
   0.33333300  0.66666700  0.22193400
   0.66666700  0.66666700  0.22193400
   0.11111100  0.11111100  0.22193400
   0.44444400  0.11111100  0.22193400
   0.77777800  0.11111100  0.22193400
   0.11111100  0.44444400  0.22193400
   0.44444400  0.44444400  0.22193400
   0.77777800  0.44444400  0.22193400
   0.11111100  0.77777800  0.22193400
   0.44444400  0.77777800  0.22193400
   0.77777800  0.77777800  0.22193400
 
 position of ions in cartesian coordinates  (Angst):
   6.38700309 -3.68753773 19.99062000
   2.12999787 -1.22975477  0.00000000
   4.26000213 -2.45951323  0.00000000
   2.12999787  1.22975477  0.00000000
   4.25999574  0.00000000  0.00000000
   6.39000000 -1.22975846  0.00000000
   4.26000213  2.45951323  0.00000000
   6.39000000  1.22975846  0.00000000
   8.52000426 -0.00000000  0.00000000
   1.41999858  0.00000000  0.00000000
   3.54999645 -1.22975477  0.00000000
   5.68000071 -2.45951323  0.00000000
   3.54999645  1.22975477  0.00000000
   5.67999432  0.00000000  0.00000000
   7.80999858 -1.22975846  0.00000000
   5.68000071  2.45951323  0.00000000
   7.80999858  1.22975846  0.00000000
   9.94000284 -0.00000000  0.00000000
   0.00000000  0.00000000  4.43868000
   2.12999787 -1.22975477  4.43868000
   4.26000213 -2.45951323  4.43868000
   2.12999787  1.22975477  4.43868000
   4.25999574  0.00000000  4.43868000
   6.39000000 -1.22975846  4.43868000
   4.26000213  2.45951323  4.43868000
   6.39000000  1.22975846  4.43868000
   8.52000426 -0.00000000  4.43868000
   1.41999858  0.00000000  4.43868000
   3.54999645 -1.22975477  4.43868000
   5.68000071 -2.45951323  4.43868000
   3.54999645  1.22975477  4.43868000
   5.67999432  0.00000000  4.43868000
   7.80999858 -1.22975846  4.43868000
   5.68000071  2.45951323  4.43868000
   7.80999858  1.22975846  4.43868000
   9.94000284 -0.00000000  4.43868000
 


--------------------------------------------------------------------------------------------------------


 k-point  1 :   0.0000 0.0000 0.0000  plane waves:   48441
 k-point  2 :   0.0476 0.0000 0.0000  plane waves:   48405
 k-point  3 :   0.0952 0.0000 0.0000  plane waves:   48383
 k-point  4 :   0.1429 0.0000 0.0000  plane waves:   48385
 k-point  5 :   0.1905 0.0000 0.0000  plane waves:   48399
 k-point  6 :   0.2381 0.0000 0.0000  plane waves:   48395
 k-point  7 :   0.2857 0.0000 0.0000  plane waves:   48422
 k-point  8 :   0.3333 0.0000 0.0000  plane waves:   48426
 k-point  9 :   0.3810 0.0000 0.0000  plane waves:   48444
 k-point 10 :   0.4286 0.0000 0.0000  plane waves:   48450
 k-point 11 :   0.4762 0.0000 0.0000  plane waves:   48422
 k-point 12 :   0.0000 0.0476 0.0000  plane waves:   48405
 k-point 13 :   0.0476 0.0476 0.0000  plane waves:   48405
 k-point 14 :   0.0952 0.0476 0.0000  plane waves:   48381
 k-point 15 :   0.1429 0.0476 0.0000  plane waves:   48398
 k-point 16 :   0.1905 0.0476 0.0000  plane waves:   48393
 k-point 17 :   0.2381 0.0476 0.0000  plane waves:   48404
 k-point 18 :   0.2857 0.0476 0.0000  plane waves:   48427
 k-point 19 :   0.3333 0.0476 0.0000  plane waves:   48437
 k-point 20 :   0.3810 0.0476 0.0000  plane waves:   48444
 k-point 21 :   0.4286 0.0476 0.0000  plane waves:   48462
 k-point 22 :   0.4762 0.0476 0.0000  plane waves:   48459
 k-point 23 :  -0.4762 0.0476 0.0000  plane waves:   48451
 k-point 24 :  -0.4286 0.0476 0.0000  plane waves:   48459
 k-point 25 :  -0.3810 0.0476 0.0000  plane waves:   48462
 k-point 26 :  -0.3333 0.0476 0.0000  plane waves:   48444
 k-point 27 :  -0.2857 0.0476 0.0000  plane waves:   48437
 k-point 28 :  -0.2381 0.0476 0.0000  plane waves:   48427
 k-point 29 :  -0.1905 0.0476 0.0000  plane waves:   48404
 k-point 30 :  -0.1429 0.0476 0.0000  plane waves:   48393
 k-point 31 :  -0.0952 0.0476 0.0000  plane waves:   48398
 k-point 32 :  -0.0476 0.0476 0.0000  plane waves:   48381
 k-point 33 :   0.0000 0.0952 0.0000  plane waves:   48383
 k-point 34 :   0.0476 0.0952 0.0000  plane waves:   48381
 k-point 35 :   0.0952 0.0952 0.0000  plane waves:   48383
 k-point 36 :   0.1429 0.0952 0.0000  plane waves:   48398
 k-point 37 :   0.1905 0.0952 0.0000  plane waves:   48393
 k-point 38 :   0.2381 0.0952 0.0000  plane waves:   48406
 k-point 39 :   0.2857 0.0952 0.0000  plane waves:   48407
 k-point 40 :   0.3333 0.0952 0.0000  plane waves:   48423
 k-point 41 :   0.3810 0.0952 0.0000  plane waves:   48422
 k-point 42 :   0.4286 0.0952 0.0000  plane waves:   48438
 k-point 43 :   0.4762 0.0952 0.0000  plane waves:   48478
 k-point 44 :  -0.4762 0.0952 0.0000  plane waves:   48484
 k-point 45 :  -0.4286 0.0952 0.0000  plane waves:   48484
 k-point 46 :  -0.3810 0.0952 0.0000  plane waves:   48478
 k-point 47 :  -0.3333 0.0952 0.0000  plane waves:   48438
 k-point 48 :  -0.2857 0.0952 0.0000  plane waves:   48422
 k-point 49 :  -0.2381 0.0952 0.0000  plane waves:   48423
 k-point 50 :  -0.1905 0.0952 0.0000  plane waves:   48407
 k-point 51 :  -0.1429 0.0952 0.0000  plane waves:   48406
 k-point 52 :  -0.0952 0.0952 0.0000  plane waves:   48393
 k-point 53 :  -0.0476 0.0952 0.0000  plane waves:   48398
 k-point 54 :   0.0000 0.1429 0.0000  plane waves:   48385
 k-point 55 :   0.0476 0.1429 0.0000  plane waves:   48398
 k-point 56 :   0.0952 0.1429 0.0000  plane waves:   48398
 k-point 57 :   0.1429 0.1429 0.0000  plane waves:   48385
 k-point 58 :   0.1905 0.1429 0.0000  plane waves:   48393
 k-point 59 :   0.2381 0.1429 0.0000  plane waves:   48406
 k-point 60 :   0.2857 0.1429 0.0000  plane waves:   48431
 k-point 61 :   0.3333 0.1429 0.0000  plane waves:   48436
 k-point 62 :   0.3810 0.1429 0.0000  plane waves:   48440
 k-point 63 :   0.4286 0.1429 0.0000  plane waves:   48480
 k-point 64 :   0.4762 0.1429 0.0000  plane waves:   48473
 k-point 65 :  -0.4762 0.1429 0.0000  plane waves:   48488
 k-point 66 :  -0.4286 0.1429 0.0000  plane waves:   48497
 k-point 67 :  -0.3810 0.1429 0.0000  plane waves:   48488
 k-point 68 :  -0.3333 0.1429 0.0000  plane waves:   48473
 k-point 69 :  -0.2857 0.1429 0.0000  plane waves:   48480
 k-point 70 :  -0.2381 0.1429 0.0000  plane waves:   48440
 k-point 71 :  -0.1905 0.1429 0.0000  plane waves:   48436
 k-point 72 :  -0.1429 0.1429 0.0000  plane waves:   48431
 k-point 73 :  -0.0952 0.1429 0.0000  plane waves:   48406
 k-point 74 :  -0.0476 0.1429 0.0000  plane waves:   48393
 k-point 75 :   0.0000 0.1905 0.0000  plane waves:   48399
 k-point 76 :   0.0476 0.1905 0.0000  plane waves:   48393
 k-point 77 :   0.0952 0.1905 0.0000  plane waves:   48393
 k-point 78 :   0.1429 0.1905 0.0000  plane waves:   48393
 k-point 79 :   0.1905 0.1905 0.0000  plane waves:   48399
 k-point 80 :   0.2381 0.1905 0.0000  plane waves:   48404
 k-point 81 :   0.2857 0.1905 0.0000  plane waves:   48407
 k-point 82 :   0.3333 0.1905 0.0000  plane waves:   48436
 k-point 83 :   0.3810 0.1905 0.0000  plane waves:   48463
 k-point 84 :   0.4286 0.1905 0.0000  plane waves:   48457
 k-point 85 :   0.4762 0.1905 0.0000  plane waves:   48482
 k-point 86 :  -0.4762 0.1905 0.0000  plane waves:   48472
 k-point 87 :  -0.4286 0.1905 0.0000  plane waves:   48505
 k-point 88 :  -0.3810 0.1905 0.0000  plane waves:   48505
 k-point 89 :  -0.3333 0.1905 0.0000  plane waves:   48472
 k-point 90 :  -0.2857 0.1905 0.0000  plane waves:   48482
 k-point 91 :  -0.2381 0.1905 0.0000  plane waves:   48457
 k-point 92 :  -0.1905 0.1905 0.0000  plane waves:   48463
 k-point 93 :  -0.1429 0.1905 0.0000  plane waves:   48436
 k-point 94 :  -0.0952 0.1905 0.0000  plane waves:   48407
 k-point 95 :  -0.0476 0.1905 0.0000  plane waves:   48404
 k-point 96 :   0.0000 0.2381 0.0000  plane waves:   48395
 k-point 97 :   0.0476 0.2381 0.0000  plane waves:   48404
 k-point 98 :   0.0952 0.2381 0.0000  plane waves:   48406
 k-point 99 :   0.1429 0.2381 0.0000  plane waves:   48406
 k-point ** :   0.1905 0.2381 0.0000  plane waves:   48404
 k-point ** :   0.2381 0.2381 0.0000  plane waves:   48395
 k-point ** :   0.2857 0.2381 0.0000  plane waves:   48427
 k-point ** :   0.3333 0.2381 0.0000  plane waves:   48423
 k-point ** :   0.3810 0.2381 0.0000  plane waves:   48440
 k-point ** :   0.4286 0.2381 0.0000  plane waves:   48457
 k-point ** :   0.4762 0.2381 0.0000  plane waves:   48483
 k-point ** :  -0.4762 0.2381 0.0000  plane waves:   48509
 k-point ** :  -0.4286 0.2381 0.0000  plane waves:   48508
 k-point ** :  -0.3810 0.2381 0.0000  plane waves:   48503
 k-point ** :  -0.3333 0.2381 0.0000  plane waves:   48508
 k-point ** :  -0.2857 0.2381 0.0000  plane waves:   48509
 k-point ** :  -0.2381 0.2381 0.0000  plane waves:   48483
 k-point ** :  -0.1905 0.2381 0.0000  plane waves:   48457
 k-point ** :  -0.1429 0.2381 0.0000  plane waves:   48440
 k-point ** :  -0.0952 0.2381 0.0000  plane waves:   48423
 k-point ** :  -0.0476 0.2381 0.0000  plane waves:   48427
 k-point ** :   0.0000 0.2857 0.0000  plane waves:   48422
 k-point ** :   0.0476 0.2857 0.0000  plane waves:   48427
 k-point ** :   0.0952 0.2857 0.0000  plane waves:   48407
 k-point ** :   0.1429 0.2857 0.0000  plane waves:   48431
 k-point ** :   0.1905 0.2857 0.0000  plane waves:   48407
 k-point ** :   0.2381 0.2857 0.0000  plane waves:   48427
 k-point ** :   0.2857 0.2857 0.0000  plane waves:   48422
 k-point ** :   0.3333 0.2857 0.0000  plane waves:   48437
 k-point ** :   0.3810 0.2857 0.0000  plane waves:   48422
 k-point ** :   0.4286 0.2857 0.0000  plane waves:   48480
 k-point ** :   0.4762 0.2857 0.0000  plane waves:   48482
 k-point ** :  -0.4762 0.2857 0.0000  plane waves:   48509
 k-point ** :  -0.4286 0.2857 0.0000  plane waves:   48509
 k-point ** :  -0.3810 0.2857 0.0000  plane waves:   48500
 k-point ** :  -0.3333 0.2857 0.0000  plane waves:   48500
 k-point ** :  -0.2857 0.2857 0.0000  plane waves:   48509
 k-point ** :  -0.2381 0.2857 0.0000  plane waves:   48509
 k-point ** :  -0.1905 0.2857 0.0000  plane waves:   48482
 k-point ** :  -0.1429 0.2857 0.0000  plane waves:   48480
 k-point ** :  -0.0952 0.2857 0.0000  plane waves:   48422
 k-point ** :  -0.0476 0.2857 0.0000  plane waves:   48437
 k-point ** :   0.0000 0.3333 0.0000  plane waves:   48426
 k-point ** :   0.0476 0.3333 0.0000  plane waves:   48437
 k-point ** :   0.0952 0.3333 0.0000  plane waves:   48423
 k-point ** :   0.1429 0.3333 0.0000  plane waves:   48436
 k-point ** :   0.1905 0.3333 0.0000  plane waves:   48436
 k-point ** :   0.2381 0.3333 0.0000  plane waves:   48423
 k-point ** :   0.2857 0.3333 0.0000  plane waves:   48437
 k-point ** :   0.3333 0.3333 0.0000  plane waves:   48426
 k-point ** :   0.3810 0.3333 0.0000  plane waves:   48444
 k-point ** :   0.4286 0.3333 0.0000  plane waves:   48438
 k-point ** :   0.4762 0.3333 0.0000  plane waves:   48473
 k-point ** :  -0.4762 0.3333 0.0000  plane waves:   48472
 k-point ** :  -0.4286 0.3333 0.0000  plane waves:   48508
 k-point ** :  -0.3810 0.3333 0.0000  plane waves:   48500
 k-point ** :  -0.3333 0.3333 0.0000  plane waves:   48483
 k-point ** :  -0.2857 0.3333 0.0000  plane waves:   48500
 k-point ** :  -0.2381 0.3333 0.0000  plane waves:   48508
 k-point ** :  -0.1905 0.3333 0.0000  plane waves:   48472
 k-point ** :  -0.1429 0.3333 0.0000  plane waves:   48473
 k-point ** :  -0.0952 0.3333 0.0000  plane waves:   48438
 k-point ** :  -0.0476 0.3333 0.0000  plane waves:   48444
 k-point ** :   0.0000 0.3810 0.0000  plane waves:   48444
 k-point ** :   0.0476 0.3810 0.0000  plane waves:   48444
 k-point ** :   0.0952 0.3810 0.0000  plane waves:   48422
 k-point ** :   0.1429 0.3810 0.0000  plane waves:   48440
 k-point ** :   0.1905 0.3810 0.0000  plane waves:   48463
 k-point ** :   0.2381 0.3810 0.0000  plane waves:   48440
 k-point ** :   0.2857 0.3810 0.0000  plane waves:   48422
 k-point ** :   0.3333 0.3810 0.0000  plane waves:   48444
 k-point ** :   0.3810 0.3810 0.0000  plane waves:   48444
 k-point ** :   0.4286 0.3810 0.0000  plane waves:   48462
 k-point ** :   0.4762 0.3810 0.0000  plane waves:   48478
 k-point ** :  -0.4762 0.3810 0.0000  plane waves:   48488
 k-point ** :  -0.4286 0.3810 0.0000  plane waves:   48505
 k-point ** :  -0.3810 0.3810 0.0000  plane waves:   48503
 k-point ** :  -0.3333 0.3810 0.0000  plane waves:   48500
 k-point ** :  -0.2857 0.3810 0.0000  plane waves:   48500
 k-point ** :  -0.2381 0.3810 0.0000  plane waves:   48503
 k-point ** :  -0.1905 0.3810 0.0000  plane waves:   48505
 k-point ** :  -0.1429 0.3810 0.0000  plane waves:   48488
 k-point ** :  -0.0952 0.3810 0.0000  plane waves:   48478
 k-point ** :  -0.0476 0.3810 0.0000  plane waves:   48462
 k-point ** :   0.0000 0.4286 0.0000  plane waves:   48450
 k-point ** :   0.0476 0.4286 0.0000  plane waves:   48462
 k-point ** :   0.0952 0.4286 0.0000  plane waves:   48438
 k-point ** :   0.1429 0.4286 0.0000  plane waves:   48480
 k-point ** :   0.1905 0.4286 0.0000  plane waves:   48457
 k-point ** :   0.2381 0.4286 0.0000  plane waves:   48457
 k-point ** :   0.2857 0.4286 0.0000  plane waves:   48480
 k-point ** :   0.3333 0.4286 0.0000  plane waves:   48438
 k-point ** :   0.3810 0.4286 0.0000  plane waves:   48462
 k-point ** :   0.4286 0.4286 0.0000  plane waves:   48450
 k-point ** :   0.4762 0.4286 0.0000  plane waves:   48459
 k-point ** :  -0.4762 0.4286 0.0000  plane waves:   48484
 k-point ** :  -0.4286 0.4286 0.0000  plane waves:   48497
 k-point ** :  -0.3810 0.4286 0.0000  plane waves:   48505
 k-point ** :  -0.3333 0.4286 0.0000  plane waves:   48508
 k-point ** :  -0.2857 0.4286 0.0000  plane waves:   48509
 k-point ** :  -0.2381 0.4286 0.0000  plane waves:   48508
 k-point ** :  -0.1905 0.4286 0.0000  plane waves:   48505
 k-point ** :  -0.1429 0.4286 0.0000  plane waves:   48497
 k-point ** :  -0.0952 0.4286 0.0000  plane waves:   48484
 k-point ** :  -0.0476 0.4286 0.0000  plane waves:   48459
 k-point ** :   0.0000 0.4762 0.0000  plane waves:   48422
 k-point ** :   0.0476 0.4762 0.0000  plane waves:   48459
 k-point ** :   0.0952 0.4762 0.0000  plane waves:   48478
 k-point ** :   0.1429 0.4762 0.0000  plane waves:   48473
 k-point ** :   0.1905 0.4762 0.0000  plane waves:   48482
 k-point ** :   0.2381 0.4762 0.0000  plane waves:   48483
 k-point ** :   0.2857 0.4762 0.0000  plane waves:   48482
 k-point ** :   0.3333 0.4762 0.0000  plane waves:   48473
 k-point ** :   0.3810 0.4762 0.0000  plane waves:   48478
 k-point ** :   0.4286 0.4762 0.0000  plane waves:   48459
 k-point ** :   0.4762 0.4762 0.0000  plane waves:   48422
 k-point ** :  -0.4762 0.4762 0.0000  plane waves:   48451
 k-point ** :  -0.4286 0.4762 0.0000  plane waves:   48484
 k-point ** :  -0.3810 0.4762 0.0000  plane waves:   48488
 k-point ** :  -0.3333 0.4762 0.0000  plane waves:   48472
 k-point ** :  -0.2857 0.4762 0.0000  plane waves:   48509
 k-point ** :  -0.2381 0.4762 0.0000  plane waves:   48509
 k-point ** :  -0.1905 0.4762 0.0000  plane waves:   48472
 k-point ** :  -0.1429 0.4762 0.0000  plane waves:   48488
 k-point ** :  -0.0952 0.4762 0.0000  plane waves:   48484
 k-point ** :  -0.0476 0.4762 0.0000  plane waves:   48451

 maximum and minimum number of plane-waves per node :      8115     8036

 maximum number of plane-waves:     48509
 maximum index in each direction: 
   IXMAX=   17   IYMAX=   17   IZMAX=   46
   IXMIN=  -17   IYMIN=  -17   IZMIN=  -46


 parallel 3D FFT for wavefunctions:
    minimum data exchange during FFTs selected (reduces bandwidth)
 parallel 3D FFT for charge:
    minimum data exchange during FFTs selected (reduces bandwidth)


 total amount of memory used by VASP MPI-rank0   664258. kBytes
=======================================================================

   base      :      30000. kBytes
   nonl-proj :     119496. kBytes
   fftplans  :      35923. kBytes
   grid      :      16822. kBytes
   one-center:         18. kBytes
   wavefun   :     461999. kBytes
 
     INWAV:  cpu time    0.0001: real time    0.0024
 Broyden mixing: mesh for mixing (old mesh)
   NGX = 35   NGY = 35   NGZ = 93
  (NGX  =140   NGY  =140   NGZ  =384)
  gives a total of 113925 points

 initial charge density was supplied:
 charge density of overlapping atoms calculated
 number of electron     144.0000000 magnetization 
 keeping initial charge density in first step


--------------------------------------------------------------------------------------------------------


 Maximum index for augmentation-charges         2928 (set IRDMAX)


--------------------------------------------------------------------------------------------------------


 First call to EWALD:  gamma=   0.181
 Maximum number of real-space cells 4x 4x 2
 Maximum number of reciprocal cells 2x 2x 5

    FEWALD:  cpu time    0.0014: real time    0.0014


--------------------------------------- Iteration      1(   1)  ---------------------------------------


    POTLOK:  cpu time    0.1171: real time    0.1341
    SETDIJ:  cpu time    0.0601: real time    0.0603
     EDDAV:  cpu time   92.5631: real time   92.7943
       DOS:  cpu time    0.0068: real time    0.0068
    --------------------------------------------
      LOOP:  cpu time   92.7471: real time   92.9955

 eigenvalue-minimisations  : 42432
 total energy-change (2. order) : 0.1394114E+04  (-0.7343582E+04)
 number of electron     144.0000000 magnetization 
 augmentation part      144.0000000 magnetization 

 Free energy of the ion-electron system (eV)
  ---------------------------------------------------
  alpha Z        PSCENC =       111.98396531
  Ewald energy   TEWEN  =     22255.45018445
  -Hartree energ DENC   =    -26411.19334581
  -exchange      EXHF   =         0.00000000
  -V(xc)+E(xc)   XCENC  =       496.77428834
  PAW double counting   =      1361.93195146    -1403.34921963
  entropy T*S    EENTRO =        -0.00047256
  eigenvalues    EBANDS =      -315.04281134
  atomic energy  EATOM  =      5297.55924426
  Solvation  Ediel_sol  =         0.00000000
  ---------------------------------------------------
  free energy    TOTEN  =      1394.11378448 eV

  energy without entropy =     1394.11425704  energy(sigma->0) =     1394.11402076


--------------------------------------------------------------------------------------------------------




--------------------------------------- Iteration      1(   2)  ---------------------------------------


     EDDAV:  cpu time  124.4947: real time  124.8267
       DOS:  cpu time    0.0065: real time    0.0065
    --------------------------------------------
      LOOP:  cpu time  124.5012: real time  124.8332

 eigenvalue-minimisations  : 63564
 total energy-change (2. order) :-0.1532148E+04  (-0.1461426E+04)
 number of electron     144.0000000 magnetization 
 augmentation part      144.0000000 magnetization 

 Free energy of the ion-electron system (eV)
  ---------------------------------------------------
  alpha Z        PSCENC =       111.98396531
  Ewald energy   TEWEN  =     22255.45018445
  -Hartree energ DENC   =    -26411.19334581
  -exchange      EXHF   =         0.00000000
  -V(xc)+E(xc)   XCENC  =       496.77428834
  PAW double counting   =      1361.93195146    -1403.34921963
  entropy T*S    EENTRO =        -0.00002694
  eigenvalues    EBANDS =     -1847.19135885
  atomic energy  EATOM  =      5297.55924426
  Solvation  Ediel_sol  =         0.00000000
  ---------------------------------------------------
  free energy    TOTEN  =      -138.03431741 eV

  energy without entropy =     -138.03429047  energy(sigma->0) =     -138.03430394


--------------------------------------------------------------------------------------------------------




[...]
     21     -13.2882      2.00000
     22     -13.2824      2.00000
     23     -13.1730      2.00000
     24     -13.1672      2.00000
     25     -12.1220      2.00000
     26     -12.1168      2.00000
     27     -11.9872      2.00000
     28     -11.9821      2.00000
     29      -9.5970      2.00000
     30      -9.5930      2.00000
     31      -9.5668      2.00000
     32      -9.5637      2.00000
     33      -9.2727      2.00000
     34      -9.2690      2.00000
     35      -9.2462      2.00000
     36      -9.2427      2.00000
     37      -8.9510      2.00000
     38      -8.9478      2.00000
     39      -8.4106      2.00000
     40      -8.4081      2.00000
     41      -8.2384      2.00000
     42      -8.1387      2.00000
     43      -8.1363      2.00000
     44      -8.0900      2.00000
     45      -8.0629      2.00000
     46      -7.9159      2.00000
     47      -7.7238      2.00000
     48      -7.7226      2.00000
     49      -7.1393      2.00000
     50      -7.1374      2.00000
     51      -7.0673      2.00000
     52      -6.9029      2.00000
     53      -6.7485      2.00000
     54      -6.7464      2.00000
     55      -6.3808      2.00000
     56      -6.3787      2.00000
     57      -6.2164      2.00000
     58      -6.0608      2.00000
     59      -5.5329      2.00000
     60      -5.5315      2.00000
     61      -5.3610      2.00000
     62      -5.3596      2.00000
     63      -4.3781      2.00000
     64      -4.2462      2.00000
     65      -4.1294      2.00000
     66      -4.0008      2.00000
     67      -3.7742      2.00000
     68      -3.6556      2.00000
     69      -3.6301      2.00000
     70      -3.5580      2.00000
     71      -3.5251      2.00000
     72      -3.4426      2.00000
     73       0.3902      0.00000
     74       0.5613      0.00000
     75       0.7492      0.00000
     76       0.8710      0.00000
     77       0.9426      0.00000
     78       1.0672      0.00000
     79       1.5821      0.00000
     80       1.6753      0.00000
     81       1.8410      0.00000
     82       1.9360      0.00000
     83       2.7559      0.00000
     84       2.9240      0.00000
     85       3.3274      0.00000
     86       3.4978      0.00000
     87       3.9525      0.00000
     88       4.1002      0.00000
     89       4.1229      0.00000
     90       4.4545      0.00000
     91       4.5179      0.00000
     92       4.6881      0.00000
     93       4.8290      0.00000
     94       4.9962      0.00000
     95       5.1030      0.00000
     96       5.3120      0.00000

 k-point   221 :      -0.0476    0.4762    0.0000
  band No.  band energies     occupation 
      1     -20.1327      2.00000
      2     -20.1327      2.00000
      3     -20.1216      2.00000
      4     -20.1216      2.00000
      5     -19.0179      2.00000
      6     -19.0078      2.00000
      7     -18.6504      2.00000
      8     -18.6407      2.00000
      9     -16.5070      2.00000
     10     -16.5070      2.00000
     11     -16.4990      2.00000
     12     -16.4990      2.00000
     13     -16.1677      2.00000
     14     -16.1676      2.00000
     15     -16.1599      2.00000
     16     -16.1598      2.00000
     17     -15.5127      2.00000
     18     -15.5053      2.00000
     19     -14.4920      2.00000
     20     -14.4857      2.00000
     21     -12.9410      2.00000
     22     -12.9391      2.00000
     23     -12.9354      2.00000
     24     -12.9335      2.00000
     25     -12.3489      2.00000
     26     -12.3469      2.00000
     27     -12.3436      2.00000
     28     -12.3416      2.00000
     29      -9.3666      2.00000
     30      -9.3642      2.00000
     31      -9.3629      2.00000
     32      -9.3606      2.00000
     33      -9.2724      2.00000
     34      -9.2694      2.00000
     35      -9.1954      2.00000
     36      -9.1933      2.00000
     37      -9.1921      2.00000
     38      -9.1898      2.00000
     39      -8.6944      2.00000
     40      -8.6918      2.00000
     41      -8.1819      2.00000
     42      -8.1817      2.00000
     43      -8.0069      2.00000
     44      -8.0068      2.00000
     45      -7.8960      2.00000
     46      -7.8938      2.00000
     47      -7.6650      2.00000
     48      -7.6638      2.00000
     49      -7.3939      2.00000
     50      -7.3920      2.00000
     51      -6.8692      2.00000
     52      -6.7067      2.00000
     53      -6.5465      2.00000
     54      -6.5460      2.00000
     55      -6.5446      2.00000
     56      -6.5441      2.00000
     57      -6.4434      2.00000
     58      -6.2854      2.00000
     59      -5.3985      2.00000
     60      -5.3981      2.00000
     61      -5.3976      2.00000
     62      -5.3970      2.00000
     63      -4.1012      2.00000
     64      -4.0999      2.00000
     65      -3.9739      2.00000
     66      -3.9726      2.00000
     67      -3.8032      2.00000
     68      -3.8016      2.00000
     69      -3.6826      2.00000
     70      -3.6809      2.00000
     71      -3.6363      2.00000
     72      -3.5316      2.00000
     73       0.3809      0.00000
     74       0.5536      0.00000
     75       1.0468      0.00000
     76       1.0498      0.00000
     77       1.1622      0.00000
     78       1.1653      0.00000
     79       1.4861      0.00000
     80       1.4887      0.00000
     81       1.5867      0.00000
     82       1.5895      0.00000
     83       2.8198      0.00000
     84       2.8200      0.00000
     85       3.3922      0.00000
     86       3.3923      0.00000
     87       4.0172      0.00000
     88       4.0176      0.00000
     89       4.3315      0.00000
     90       4.8158      0.00000
     91       4.8334      0.00000
     92       4.8772      0.00000
     93       4.8926      0.00000
     94       4.8927      0.00000
     95       4.9220      0.00000
     96       5.4420      0.00000


--------------------------------------------------------------------------------------------------------


 soft charge-density along one line, spin component           1
         0         1         2         3         4         5         6         7         8         9
 total charge-density along one line
 
 pseudopotential strength for first ion, spin component:           1
 10.133   0.016   0.000   0.000  -0.000  -0.000  -0.000   0.000
  0.016  -0.002   0.000  -0.000  -0.000  -0.000  -0.000   0.000
  0.000   0.000  -4.261  -0.000   0.000  -0.017  -0.000   0.000
  0.000  -0.000  -0.000  -4.254   0.000  -0.000  -0.014   0.000
 -0.000  -0.000   0.000   0.000  -4.261   0.000   0.000  -0.017
 -0.000  -0.000  -0.017  -0.000   0.000  -0.770  -0.000   0.000
 -0.000  -0.000  -0.000  -0.014   0.000  -0.000  -0.770   0.000
  0.000   0.000   0.000   0.000  -0.017   0.000   0.000  -0.770
 total augmentation occupancy for first ion, spin component:           1
  1.469  -1.133   0.001  -0.001  -0.003   0.000   0.001  -0.001
 -1.133   1.076  -0.001  -0.007   0.002  -0.001  -0.002   0.001
  0.001  -0.001   1.229   0.000  -0.001   0.230   0.000  -0.000
 -0.001  -0.007   0.000   0.932  -0.000   0.000   0.106  -0.000
 -0.003   0.002  -0.001  -0.000   1.225  -0.000  -0.000   0.229
  0.000  -0.001   0.230   0.000  -0.000   0.049   0.000  -0.000
  0.001  -0.002   0.000   0.106  -0.000   0.000   0.014  -0.000
 -0.001   0.001  -0.000  -0.000   0.229  -0.000  -0.000   0.049


------------------------ aborting loop because EDIFF is reached ----------------------------------------


    CHARGE:  cpu time    4.4629: real time    4.4737
    FORLOC:  cpu time    0.0288: real time    0.0289
    FORNL :  cpu time   38.7407: real time   38.8342
    STRESS:  cpu time   57.5733: real time   57.7124
    FORHAR:  cpu time    0.0425: real time    0.0426
    MIXING:  cpu time    0.0052: real time    0.0053
    OFIELD:  cpu time    0.0000: real time    0.0000

  FORCE on cell =-STRESS in cart. coord.  units (eV):
  Direction    XX          YY          ZZ          XY          YZ          ZX
  --------------------------------------------------------------------------------------
  Alpha Z   111.98397   111.98397   111.98397
  Ewald   27107.18018 27108.49118-31960.23864    -0.38122     0.00425    -0.00730
  Hartree 26771.89112 26772.06840-26569.19183    -0.05132     0.00098    -0.00169
  E(xc)    -526.06663  -526.06177  -547.15906    -0.00141     0.00001    -0.00001
  Local  -55485.11967-55486.34993 56614.93029     0.35725    -0.00438     0.00753
  n-local  -127.18773  -127.17708  -115.64752    -0.00306    -0.00009     0.00015
  augment   -14.05282   -14.05506   -12.84693     0.00063    -0.00001     0.00001
  Kinetic  2168.83512  2168.63888  2477.81463     0.05697     0.00026    -0.00045
  Fock        0.00000     0.00000     0.00000     0.00000     0.00000     0.00000
  -------------------------------------------------------------------------------------
  Total       7.46354     7.53858    -0.35508    -0.02216     0.00103    -0.00176
  in kB      12.68103    12.80852    -0.60330    -0.03764     0.00174    -0.00299
  external pressure =        8.30 kB  Pullay stress =        0.00 kB


 VOLUME and BASIS-vectors are now :
 -----------------------------------------------------------------------------
  energy-cutoff  :      800.00
  volume of cell :      942.98
      direct lattice vectors                 reciprocal lattice vectors
     6.390000000 -3.689268000  0.000000000     0.078247261 -0.135528240  0.000000000
     6.390000000  3.689268000  0.000000000     0.078247261  0.135528240  0.000000000
     0.000000000  0.000000000 20.000000000     0.000000000  0.000000000  0.050000000

  length of vectors
     7.378536330  7.378536330 20.000000000     0.156494530  0.156494530  0.050000000


 FORCES acting on ions
    electron-ion (+dipol)            ewald-force                    non-local-force                 convergence-correction
 -----------------------------------------------------------------------------------------------
   -.680E+00 0.396E+00 0.311E+03   0.782E+00 -.456E+00 -.311E+03   0.870E-01 -.504E-01 0.179E+00   -.308E-05 0.172E-05 -.602E-05
   0.102E+00 -.572E-01 0.307E+03   -.107E+00 0.614E-01 -.307E+03   -.751E-02 0.606E-02 0.990E-02   0.105E-05 -.200E-05 -.609E-05
   0.101E+00 -.601E-01 0.307E+03   -.107E+00 0.627E-01 -.307E+03   -.924E-02 0.352E-02 0.992E-02   0.192E-05 0.350E-07 -.621E-05
   0.311E-01 0.489E-01 0.307E+03   -.349E-01 -.634E-01 -.307E+03   -.721E-05 0.812E-03 0.992E-02   0.159E-05 0.197E-05 -.613E-05
   0.143E-01 -.866E-02 0.307E+03   -.193E-01 0.115E-01 -.307E+03   0.778E-03 -.419E-03 0.110E-02   -.164E-06 0.430E-06 -.627E-05
   -.272E-01 -.520E-01 0.307E+03   0.377E-01 0.627E-01 -.307E+03   -.679E-03 -.232E-03 0.990E-02   -.863E-06 -.148E-05 -.620E-05
   0.427E-01 0.582E-01 0.307E+03   -.344E-01 -.646E-01 -.307E+03   -.984E-02 -.310E-02 0.992E-02   -.302E-06 -.483E-06 -.619E-05
   -.281E-01 -.648E-01 0.307E+03   0.375E-01 0.606E-01 -.307E+03   -.222E-02 0.985E-02 0.989E-02   0.155E-06 -.230E-06 -.612E-05
   0.173E-01 -.926E-02 0.307E+03   -.212E-01 0.114E-01 -.307E+03   -.585E-03 0.265E-03 -.224E-02   -.209E-06 0.314E-07 -.619E-05
   0.432E+00 0.137E+00 0.307E+03   -.498E+00 -.133E+00 -.307E+03   -.104E-01 0.149E-01 -.874E-01   -.530E-06 0.440E-06 -.620E-05
   0.526E-01 -.295E-01 0.307E+03   -.499E-01 0.279E-01 -.307E+03   -.248E-02 0.143E-02 0.365E-02   0.614E-06 -.252E-06 -.618E-05
   0.907E-01 -.434E+00 0.307E+03   -.127E+00 0.489E+00 -.307E+03   -.188E-01 0.266E-02 -.880E-01   -.261E-06 -.412E-06 -.632E-05
   0.226E-01 0.200E-01 0.307E+03   -.210E-01 -.196E-01 -.307E+03   -.147E-03 -.254E-02 0.364E-02   0.176E-06 0.405E-06 -.621E-05
   -.793E-02 -.307E-01 0.307E+03   0.863E-02 0.292E-01 -.307E+03   0.225E-02 0.147E-02 0.365E-02   -.336E-06 -.402E-06 -.626E-05
   -.203E-01 0.104E-01 0.307E+03   0.164E-01 -.798E-02 -.307E+03   -.279E-02 0.173E-02 -.443E-02   0.276E-08 -.157E-06 -.621E-05
   -.242E+00 0.131E+00 0.307E+03   0.235E+00 -.127E+00 -.307E+03   -.260E-01 0.146E-01 -.877E-01   -.672E-06 0.776E-06 -.622E-05
   0.264E-01 -.678E-01 0.307E+03   -.268E-01 0.638E-01 -.307E+03   -.625E-03 -.218E-02 -.445E-02   0.204E-06 -.300E-06 -.613E-05
   0.736E-01 0.118E-01 0.307E+03   -.704E-01 -.949E-02 -.307E+03   0.137E-02 0.165E-02 -.441E-02   0.601E-06 -.162E-06 -.623E-05
   -.330E-02 0.196E-02 -.307E+03   0.368E-02 -.217E-02 0.307E+03   0.113E-04 -.823E-05 0.145E-02   0.176E-07 -.121E-06 0.264E-05
   0.106E-01 -.588E-02 -.307E+03   -.107E-01 0.575E-02 0.307E+03   0.422E-04 -.759E-04 0.164E-02   0.121E-06 0.114E-06 0.269E-05
   -.659E-02 0.306E-02 -.307E+03   0.654E-02 -.286E-02 0.307E+03   0.408E-04 0.761E-04 0.152E-02   -.148E-06 0.389E-08 0.261E-05
   0.902E-02 0.669E-02 -.307E+03   -.893E-02 -.662E-02 0.307E+03   0.798E-04 0.450E-04 0.162E-02   0.225E-07 -.320E-07 0.267E-05
   0.116E-02 -.103E-02 -.307E+03   -.902E-03 0.879E-03 0.307E+03   0.124E-03 -.456E-04 0.154E-02   -.311E-06 -.811E-07 0.265E-05
   -.134E-02 0.761E-02 -.307E+03   0.131E-02 -.753E-02 0.307E+03   -.747E-04 -.387E-04 0.153E-02   0.131E-06 -.155E-06 0.261E-05
   -.841E-02 -.225E-02 -.307E+03   0.829E-02 0.199E-02 0.307E+03   -.383E-04 -.101E-03 0.157E-02   0.276E-08 0.860E-07 0.264E-05
   -.125E-02 -.977E-02 -.307E+03   0.131E-02 0.968E-02 0.307E+03   -.108E-04 -.250E-04 0.159E-02   0.400E-08 0.277E-06 0.265E-05
   0.290E-02 -.103E-02 -.307E+03   -.277E-02 0.874E-03 0.307E+03   -.582E-04 -.391E-04 0.159E-02   0.156E-06 -.755E-07 0.265E-05
   0.113E-01 0.157E-02 -.307E+03   -.115E-01 -.159E-02 0.307E+03   -.120E-03 0.108E-04 0.161E-02   -.696E-07 0.294E-07 0.265E-05
   0.324E-02 0.884E-03 -.307E+03   -.321E-02 -.101E-02 0.307E+03   0.999E-04 -.537E-04 0.156E-02   0.124E-06 -.108E-06 0.265E-05
   -.814E-02 0.108E-01 -.307E+03   0.800E-02 -.106E-01 0.307E+03   -.658E-04 0.639E-04 0.143E-02   -.206E-06 -.261E-06 0.263E-05
   0.131E-02 -.101E-02 -.307E+03   -.140E-02 0.138E-02 0.307E+03   0.472E-04 0.110E-03 0.158E-02   0.638E-07 0.119E-06 0.266E-05
   -.363E-02 -.173E-02 -.307E+03   0.353E-02 0.175E-02 0.307E+03   0.410E-04 -.176E-04 0.154E-02   -.192E-06 0.199E-07 0.265E-05
   0.353E-02 0.618E-02 -.307E+03   -.340E-02 -.604E-02 0.307E+03   0.124E-04 0.613E-04 0.159E-02   0.299E-06 0.686E-07 0.265E-05
   -.883E-02 -.891E-02 -.307E+03   0.883E-02 0.882E-02 0.307E+03   -.268E-04 0.253E-04 0.152E-02   -.190E-06 0.197E-06 0.265E-05
   0.470E-02 -.752E-02 -.307E+03   -.474E-02 0.762E-02 0.307E+03   -.535E-05 -.253E-05 0.161E-02   0.190E-06 -.141E-06 0.264E-05
   -.635E-02 0.345E-03 -.307E+03   0.606E-02 -.371E-03 0.307E+03   -.972E-04 0.140E-04 0.157E-02   0.483E-07 -.496E-07 0.265E-05
 -----------------------------------------------------------------------------------------------
   -.516E-05 -.191E-04 0.119E-04   -.421E-13 -.535E-13 -.341E-12   0.390E-05 0.203E-04 0.498E-04   -.303E-07 -.168E-06 -.637E-04
 
 
 POSITION                                       TOTAL-FORCE (eV/Angst)
 -----------------------------------------------------------------------------------
      6.38700     -3.68754     19.99062         0.188406     -0.109926      0.132656
      2.13000     -1.22975      0.00000        -0.012600      0.010213      0.003924
      4.26000     -2.45951      0.00000        -0.015451      0.006105      0.004097
      2.13000      1.22975      0.00000        -0.003886     -0.013670      0.003990
      4.26000      0.00000      0.00000        -0.004181      0.002448     -0.002743
      6.39000     -1.22976      0.00000         0.009757      0.010513      0.004030
      4.26000      2.45951      0.00000        -0.001531     -0.009523      0.004077
      6.39000      1.22976      0.00000         0.007187      0.005653      0.003943
      8.52000     -0.00000      0.00000        -0.004499      0.002450     -0.002743
      1.42000      0.00000      0.00000        -0.077188      0.018926     -0.059092
      3.55000     -1.22975      0.00000         0.000180     -0.000220      0.007959
      5.68000     -2.45951      0.00000        -0.055132      0.057887     -0.058255
      3.55000      1.22975      0.00000         0.001490     -0.002130      0.007978
      5.67999      0.00000      0.00000         0.002944     -0.000040      0.007941
      7.81000     -1.22976      0.00000        -0.006732      0.004153     -0.003947
      5.68000      2.45951      0.00000        -0.032371      0.019392     -0.058680
      7.81000      1.22976      0.00000        -0.000968     -0.006200     -0.003950
      9.94000     -0.00000      0.00000         0.004571      0.003969     -0.003944
      0.00000      0.00000      4.43868         0.000392     -0.000224      0.000654
      2.13000     -1.22975      4.43868         0.000004     -0.000210      0.000721
      4.26000     -2.45951      4.43868        -0.000008      0.000277      0.000719
      2.13000      1.22975      4.43868         0.000174      0.000121      0.000724
      4.26000      0.00000      4.43868         0.000384     -0.000200      0.000713
      6.39000     -1.22976      4.43868        -0.000109      0.000041      0.000716
      4.26000      2.45951      4.43868        -0.000156     -0.000365      0.000722
      6.39000      1.22976      4.43868         0.000050     -0.000110      0.000718
      8.52000     -0.00000      4.43868         0.000065     -0.000200      0.000713
      1.42000      0.00000      4.43868        -0.000304     -0.000007      0.000708
      3.55000     -1.22975      4.43868         0.000127     -0.000179      0.000711
      5.68000     -2.45951      4.43868        -0.000203      0.000354      0.000685
      3.55000      1.22975      4.43868        -0.000042      0.000480      0.000710
      5.67999      0.00000      4.43868        -0.000058      0.000005      0.000712
      7.81000     -1.22976      4.43868         0.000143      0.000197      0.000713
      5.68000      2.45951      4.43868        -0.000029     -0.000065      0.000697
      7.81000      1.22976      4.43868        -0.000041      0.000098      0.000713
      9.94000     -0.00000      4.43868        -0.000388     -0.000012      0.000713
 -----------------------------------------------------------------------------------
    total drift:                               -0.000001      0.000001     -0.000002


--------------------------------------------------------------------------------------------------------



  FREE ENERGIE OF THE ION-ELECTRON SYSTEM (eV)
  ---------------------------------------------------
  free  energy   TOTEN  =      -332.27720669 eV

  energy  without entropy=     -332.27720669  energy(sigma->0) =     -332.27720669
 


--------------------------------------------------------------------------------------------------------


    POTLOK:  cpu time    0.1314: real time    0.1317


--------------------------------------------------------------------------------------------------------


     LOOP+:  cpu time 2624.2215: real time 2631.3542
    4ORBIT:  cpu time    0.0000: real time    0.0000

 total amount of memory used by VASP MPI-rank0   664258. kBytes
=======================================================================

   base      :      30000. kBytes
   nonl-proj :     119496. kBytes
   fftplans  :      35923. kBytes
   grid      :      16822. kBytes
   one-center:         18. kBytes
   wavefun   :     461999. kBytes
 
  
  
 General timing and accounting informations for this job:
 ========================================================
  
                  Total CPU time used (sec):     2685.211
                            User time (sec):     2663.058
                          System time (sec):       22.153
                         Elapsed time (sec):     2693.001
  
                   Maximum memory used (kb):      782064.
                   Average memory used (kb):           0.
  
                          Minor page faults:      1480302
                          Major page faults:            0
                 Voluntary context switches:        20680
