<?xml version="1.0" encoding="ISO-8859-1"?>
<modeling>
 <generator>
  <i name="program" type="string">vasp </i>
  <i name="version" type="string">5.4.4.18Apr17-6-g9f103f2a35  </i>
  <i name="subversion" type="string">(build May 31 2018 21:15:54) complex            parallel </i>
  <i name="platform" type="string">c7_intel_O1 </i>
  <i name="date" type="string">2020 08 17 </i>
  <i name="time" type="string">20:50:35 </i>
 </generator>
 <incar>
  <i type="string" name="SYSTEM"> C-4</i>
  <i type="int" name="ISTART">     0</i>
  <i type="string" name="PREC">accurate</i>
  <i type="string" name="ALGO"> N</i>
  <i type="logical" name="ADDGRID"> T  </i>
  <i name="AMIN">      0.01000000</i>
  <i type="int" name="ICHARG">     2</i>
  <i type="int" name="NELMIN">     5</i>
  <i type="int" name="IBRION">    -1</i>
  <i name="EDIFF">      0.00000001</i>
  <i name="EDIFFG">     -0.00000001</i>
  <i type="int" name="NSW">     0</i>
  <i name="SYMPREC">      0.00010000</i>
  <i name="ENCUT">    800.00000000</i>
  <i type="logical" name="LREAL"> F  </i>
  <i type="int" name="ISMEAR">     0</i>
  <i name="SIGMA">      0.01000000</i>
  <i type="logical" name="LWAVE"> F  </i>
  <i type="logical" name="LCHARG"> F  </i>
  <v type="int" name="KPOINT_BSE">    -1     0     0     0</v>
 </incar>
 <structure name="primitive_cell" >
  <crystal>
   <varray name="basis" >
    <v>       6.39000000      -3.68926800       0.00000000 </v>
    <v>       6.39000000       3.68926800       0.00000000 </v>
    <v>       0.00000000       0.00000000      20.00000000 </v>
   </varray>
   <i name="volume">    942.97690080 </i>
   <varray name="rec_basis" >
    <v>       0.07824726      -0.13552824       0.00000000 </v>
    <v>       0.07824726       0.13552824       0.00000000 </v>
    <v>       0.00000000       0.00000000       0.05000000 </v>
   </varray>
  </crystal>
  <varray name="positions" >
   <v>      -0.00046900       0.00000000      -0.00046900 </v>
   <v>      -0.22222200       0.11111100       0.00000000 </v>
   <v>       0.11111100      -0.22222200       0.00000000 </v>
   <v>       0.11111100       0.11111100       0.00000000 </v>
   <v>      -0.33333300       0.00000000       0.00000000 </v>
   <v>      -0.33333300       0.33333300       0.00000000 </v>
   <v>       0.00000000      -0.33333300       0.00000000 </v>
   <v>       0.33333300      -0.33333300       0.00000000 </v>
   <v>       0.00000000       0.33333300       0.00000000 </v>
   <v>       0.33333300       0.00000000       0.00000000 </v>
   <v>      -0.22222200      -0.22222200       0.00000000 </v>
   <v>      -0.22222200       0.44444400       0.00000000 </v>
   <v>       0.44444400      -0.22222200       0.00000000 </v>
   <v>       0.44444400       0.11111100       0.00000000 </v>
   <v>       0.44444400       0.44444400       0.00000000 </v>
   <v>       0.11111100       0.44444400       0.00000000 </v>
   <v>      -0.33333300      -0.33333300       0.00000000 </v>
   <v>       0.33333300       0.33333300       0.00000000 </v>
   <v>       0.00000000       0.00000000       0.22193400 </v>
   <v>      -0.22222200       0.11111100       0.22193400 </v>
   <v>       0.11111100      -0.22222200       0.22193400 </v>
   <v>       0.11111100       0.11111100       0.22193400 </v>
   <v>      -0.33333300       0.00000000       0.22193400 </v>
   <v>      -0.33333300       0.33333300       0.22193400 </v>
   <v>       0.00000000      -0.33333300       0.22193400 </v>
   <v>       0.33333300      -0.33333300       0.22193400 </v>
   <v>       0.00000000       0.33333300       0.22193400 </v>
   <v>       0.33333300       0.00000000       0.22193400 </v>
   <v>      -0.22222200      -0.22222200       0.22193400 </v>
   <v>      -0.22222200       0.44444400       0.22193400 </v>
   <v>       0.44444400      -0.22222200       0.22193400 </v>
   <v>       0.44444400       0.11111100       0.22193400 </v>
   <v>       0.44444400       0.44444400       0.22193400 </v>
   <v>       0.11111100       0.44444400       0.22193400 </v>
   <v>      -0.33333300      -0.33333300       0.22193400 </v>
   <v>       0.33333300       0.33333300       0.22193400 </v>
  </varray>
 </structure>
 <varray name="primitive_index" >
  <v type="int" >        1 </v>
  <v type="int" >       12 </v>
  <v type="int" >       16 </v>
  <v type="int" >       10 </v>
  <v type="int" >        3 </v>
  <v type="int" >        6 </v>
  <v type="int" >        7 </v>
  <v type="int" >        8 </v>
  <v type="int" >        4 </v>
  <v type="int" >        2 </v>
  <v type="int" >       18 </v>
  <v type="int" >       15 </v>
  <v type="int" >       17 </v>
  <v type="int" >       11 </v>
  <v type="int" >       14 </v>
  <v type="int" >       13 </v>
  <v type="int" >        9 </v>
  <v type="int" >        5 </v>
  <v type="int" >       19 </v>
  <v type="int" >       30 </v>
  <v type="int" >       34 </v>
  <v type="int" >       28 </v>
  <v type="int" >       21 </v>
  <v type="int" >       24 </v>
  <v type="int" >       25 </v>
  <v type="int" >       26 </v>
  <v type="int" >       22 </v>
  <v type="int" >       20 </v>
  <v type="int" >       36 </v>
  <v type="int" >       33 </v>
  <v type="int" >       35 </v>
  <v type="int" >       29 </v>
  <v type="int" >       32 </v>
  <v type="int" >       31 </v>
  <v type="int" >       27 </v>
  <v type="int" >       23 </v>
 </varray>
 <kpoints>
  <generation param="Gamma">
   <v type="int" name="divisions">      21       21        1 </v>
   <v name="usershift">      0.00000000       0.00000000       0.00000000 </v>
   <v name="genvec1">      0.04761905      -0.00000000       0.00000000 </v>
   <v name="genvec2">     -0.00000000       0.04761905       0.00000000 </v>
   <v name="genvec3">      0.00000000       0.00000000       1.00000000 </v>
   <v name="shift">      0.00000000       0.00000000       0.00000000 </v>
  </generation>
  <varray name="kpointlist" >
   <v>       0.00000000       0.00000000       0.00000000 </v>
   <v>       0.04761905       0.00000000       0.00000000 </v>
   <v>       0.09523810       0.00000000       0.00000000 </v>
   <v>       0.14285714       0.00000000       0.00000000 </v>
   <v>       0.19047619       0.00000000       0.00000000 </v>
   <v>       0.23809524       0.00000000       0.00000000 </v>
   <v>       0.28571429       0.00000000       0.00000000 </v>
   <v>       0.33333333       0.00000000       0.00000000 </v>
   <v>       0.38095238       0.00000000       0.00000000 </v>
   <v>       0.42857143       0.00000000       0.00000000 </v>
   <v>       0.47619048       0.00000000       0.00000000 </v>
   <v>       0.00000000       0.04761905       0.00000000 </v>
   <v>       0.04761905       0.04761905       0.00000000 </v>
   <v>       0.09523810       0.04761905       0.00000000 </v>
   <v>       0.14285714       0.04761905       0.00000000 </v>
   <v>       0.19047619       0.04761905       0.00000000 </v>
   <v>       0.23809524       0.04761905       0.00000000 </v>
   <v>       0.28571429       0.04761905       0.00000000 </v>
   <v>       0.33333333       0.04761905       0.00000000 </v>
   <v>       0.38095238       0.04761905       0.00000000 </v>
   <v>       0.42857143       0.04761905       0.00000000 </v>
   <v>       0.47619048       0.04761905       0.00000000 </v>
   <v>      -0.47619048       0.04761905       0.00000000 </v>
   <v>      -0.42857143       0.04761905       0.00000000 </v>
   <v>      -0.38095238       0.04761905       0.00000000 </v>
   <v>      -0.33333333       0.04761905       0.00000000 </v>
   <v>      -0.28571429       0.04761905       0.00000000 </v>
   <v>      -0.23809524       0.04761905       0.00000000 </v>
   <v>      -0.19047619       0.04761905       0.00000000 </v>
   <v>      -0.14285714       0.04761905       0.00000000 </v>
   <v>      -0.09523810       0.04761905       0.00000000 </v>
   <v>      -0.04761905       0.04761905       0.00000000 </v>
   <v>       0.00000000       0.09523810       0.00000000 </v>
   <v>       0.04761905       0.09523810       0.00000000 </v>
   <v>       0.09523810       0.09523810       0.00000000 </v>
   <v>       0.14285714       0.09523810       0.00000000 </v>
   <v>       0.19047619       0.09523810       0.00000000 </v>
   <v>       0.23809524       0.09523810       0.00000000 </v>
   <v>       0.28571429       0.09523810       0.00000000 </v>
   <v>       0.33333333       0.09523810       0.00000000 </v>
   <v>       0.38095238       0.09523810       0.00000000 </v>
   <v>       0.42857143       0.09523810       0.00000000 </v>
   <v>       0.47619048       0.09523810       0.00000000 </v>
   <v>      -0.47619048       0.09523810       0.00000000 </v>
   <v>      -0.42857143       0.09523810       0.00000000 </v>
   <v>      -0.38095238       0.09523810       0.00000000 </v>
   <v>      -0.33333333       0.09523810       0.00000000 </v>
   <v>      -0.28571429       0.09523810       0.00000000 </v>
   <v>      -0.23809524       0.09523810       0.00000000 </v>
   <v>      -0.19047619       0.09523810       0.00000000 </v>
   <v>      -0.14285714       0.09523810       0.00000000 </v>
   <v>      -0.09523810       0.09523810       0.00000000 </v>
   <v>      -0.04761905       0.09523810       0.00000000 </v>
   <v>       0.00000000       0.14285714       0.00000000 </v>
   <v>       0.04761905       0.14285714       0.00000000 </v>
   <v>       0.09523810       0.14285714       0.00000000 </v>
   <v>       0.14285714       0.14285714       0.00000000 </v>
   <v>       0.19047619       0.14285714       0.00000000 </v>
   <v>       0.23809524       0.14285714       0.00000000 </v>
   <v>       0.28571429       0.14285714       0.00000000 </v>
   <v>       0.33333333       0.14285714       0.00000000 </v>
   <v>       0.38095238       0.14285714       0.00000000 </v>
   <v>       0.42857143       0.14285714       0.00000000 </v>
   <v>       0.47619048       0.14285714       0.00000000 </v>
   <v>      -0.47619048       0.14285714       0.00000000 </v>
   <v>      -0.42857143       0.14285714       0.00000000 </v>
   <v>      -0.38095238       0.14285714       0.00000000 </v>
   <v>      -0.33333333       0.14285714       0.00000000 </v>
   <v>      -0.28571429       0.14285714       0.00000000 </v>
   <v>      -0.23809524       0.14285714       0.00000000 </v>
   <v>      -0.19047619       0.14285714       0.00000000 </v>
   <v>      -0.14285714       0.14285714       0.00000000 </v>
   <v>      -0.09523810       0.14285714       0.00000000 </v>
   <v>      -0.04761905       0.14285714       0.00000000 </v>
   <v>       0.00000000       0.19047619       0.00000000 </v>
   <v>       0.04761905       0.19047619       0.00000000 </v>
   <v>       0.09523810       0.19047619       0.00000000 </v>
   <v>       0.14285714       0.19047619       0.00000000 </v>
   <v>       0.19047619       0.19047619       0.00000000 </v>
   <v>       0.23809524       0.19047619       0.00000000 </v>
   <v>       0.28571429       0.19047619       0.00000000 </v>
   <v>       0.33333333       0.19047619       0.00000000 </v>
   <v>       0.38095238       0.19047619       0.00000000 </v>
   <v>       0.42857143       0.19047619       0.00000000 </v>
   <v>       0.47619048       0.19047619       0.00000000 </v>
   <v>      -0.47619048       0.19047619       0.00000000 </v>
   <v>      -0.42857143       0.19047619       0.00000000 </v>
   <v>      -0.38095238       0.19047619       0.00000000 </v>
   <v>      -0.33333333       0.19047619       0.00000000 </v>
   <v>      -0.28571429       0.19047619       0.00000000 </v>
   <v>      -0.23809524       0.19047619       0.00000000 </v>
   <v>      -0.19047619       0.19047619       0.00000000 </v>
   <v>      -0.14285714       0.19047619       0.00000000 </v>
   <v>      -0.09523810       0.19047619       0.00000000 </v>
   <v>      -0.04761905       0.19047619       0.00000000 </v>
   <v>       0.00000000       0.23809524       0.00000000 </v>
   <v>       0.04761905       0.23809524       0.00000000 </v>
   <v>       0.09523810       0.23809524       0.00000000 </v>
   <v>       0.14285714       0.23809524       0.00000000 </v>
   <v>       0.19047619       0.23809524       0.00000000 </v>
   <v>       0.23809524       0.23809524       0.00000000 </v>
   <v>       0.28571429       0.23809524       0.00000000 </v>
   <v>       0.33333333       0.23809524       0.00000000 </v>
   <v>       0.38095238       0.23809524       0.00000000 </v>
   <v>       0.42857143       0.23809524       0.00000000 </v>
   <v>       0.47619048       0.23809524       0.00000000 </v>
   <v>      -0.47619048       0.23809524       0.00000000 </v>
   <v>      -0.42857143       0.23809524       0.00000000 </v>
   <v>      -0.38095238       0.23809524       0.00000000 </v>
   <v>      -0.33333333       0.23809524       0.00000000 </v>
   <v>      -0.28571429       0.23809524       0.00000000 </v>
   <v>      -0.23809524       0.23809524       0.00000000 </v>
   <v>      -0.19047619       0.23809524       0.00000000 </v>
   <v>      -0.14285714       0.23809524       0.00000000 </v>
   <v>      -0.09523810       0.23809524       0.00000000 </v>
   <v>      -0.04761905       0.23809524       0.00000000 </v>
   <v>       0.00000000       0.28571429       0.00000000 </v>
   <v>       0.04761905       0.28571429       0.00000000 </v>
   <v>       0.09523810       0.28571429       0.00000000 </v>
   <v>       0.14285714       0.28571429       0.00000000 </v>
   <v>       0.19047619       0.28571429       0.00000000 </v>
   <v>       0.23809524       0.28571429       0.00000000 </v>
   <v>       0.28571429       0.28571429       0.00000000 </v>
   <v>       0.33333333       0.28571429       0.00000000 </v>
   <v>       0.38095238       0.28571429       0.00000000 </v>
   <v>       0.42857143       0.28571429       0.00000000 </v>
   <v>       0.47619048       0.28571429       0.00000000 </v>
   <v>      -0.47619048       0.28571429       0.00000000 </v>
   <v>      -0.42857143       0.28571429       0.00000000 </v>
   <v>      -0.38095238       0.28571429       0.00000000 </v>
   <v>      -0.33333333       0.28571429       0.00000000 </v>
   <v>      -0.28571429       0.28571429       0.00000000 </v>
   <v>      -0.23809524       0.28571429       0.00000000 </v>
   <v>      -0.19047619       0.28571429       0.00000000 </v>
   <v>      -0.14285714       0.28571429       0.00000000 </v>
   <v>      -0.09523810       0.28571429       0.00000000 </v>
   <v>      -0.04761905       0.28571429       0.00000000 </v>
   <v>       0.00000000       0.33333333       0.00000000 </v>
   <v>       0.04761905       0.33333333       0.00000000 </v>
   <v>       0.09523810       0.33333333       0.00000000 </v>
   <v>       0.14285714       0.33333333       0.00000000 </v>
   <v>       0.19047619       0.33333333       0.00000000 </v>
   <v>       0.23809524       0.33333333       0.00000000 </v>
   <v>       0.28571429       0.33333333       0.00000000 </v>
   <v>       0.33333333       0.33333333       0.00000000 </v>
   <v>       0.38095238       0.33333333       0.00000000 </v>
   <v>       0.42857143       0.33333333       0.00000000 </v>
   <v>       0.47619048       0.33333333       0.00000000 </v>
   <v>      -0.47619048       0.33333333       0.00000000 </v>
   <v>      -0.42857143       0.33333333       0.00000000 </v>
   <v>      -0.38095238       0.33333333       0.00000000 </v>
   <v>      -0.33333333       0.33333333       0.00000000 </v>
   <v>      -0.28571429       0.33333333       0.00000000 </v>
   <v>      -0.23809524       0.33333333       0.00000000 </v>
   <v>      -0.19047619       0.33333333       0.00000000 </v>
   <v>      -0.14285714       0.33333333       0.00000000 </v>
   <v>      -0.09523810       0.33333333       0.00000000 </v>
   <v>      -0.04761905       0.33333333       0.00000000 </v>
   <v>       0.00000000       0.38095238       0.00000000 </v>
   <v>       0.04761905       0.38095238       0.00000000 </v>
   <v>       0.09523810       0.38095238       0.00000000 </v>
   <v>       0.14285714       0.38095238       0.00000000 </v>
   <v>       0.19047619       0.38095238       0.00000000 </v>
   <v>       0.23809524       0.38095238       0.00000000 </v>
   <v>       0.28571429       0.38095238       0.00000000 </v>
   <v>       0.33333333       0.38095238       0.00000000 </v>
   <v>       0.38095238       0.38095238       0.00000000 </v>
   <v>       0.42857143       0.38095238       0.00000000 </v>
   <v>       0.47619048       0.38095238       0.00000000 </v>
   <v>      -0.47619048       0.38095238       0.00000000 </v>
   <v>      -0.42857143       0.38095238       0.00000000 </v>
   <v>      -0.38095238       0.38095238       0.00000000 </v>
   <v>      -0.33333333       0.38095238       0.00000000 </v>
   <v>      -0.28571429       0.38095238       0.00000000 </v>
   <v>      -0.23809524       0.38095238       0.00000000 </v>
   <v>      -0.19047619       0.38095238       0.00000000 </v>
   <v>      -0.14285714       0.38095238       0.00000000 </v>
   <v>      -0.09523810       0.38095238       0.00000000 </v>
   <v>      -0.04761905       0.38095238       0.00000000 </v>
   <v>       0.00000000       0.42857143       0.00000000 </v>
   <v>       0.04761905       0.42857143       0.00000000 </v>
   <v>       0.09523810       0.42857143       0.00000000 </v>
   <v>       0.14285714       0.42857143       0.00000000 </v>
   <v>       0.19047619       0.42857143       0.00000000 </v>
   <v>       0.23809524       0.42857143       0.00000000 </v>
   <v>       0.28571429       0.42857143       0.00000000 </v>
   <v>       0.33333333       0.42857143       0.00000000 </v>
   <v>       0.38095238       0.42857143       0.00000000 </v>
   <v>       0.42857143       0.42857143       0.00000000 </v>
   <v>       0.47619048       0.42857143       0.00000000 </v>
   <v>      -0.47619048       0.42857143       0.00000000 </v>
   <v>      -0.42857143       0.42857143       0.00000000 </v>
   <v>      -0.38095238       0.42857143       0.00000000 </v>
   <v>      -0.33333333       0.42857143       0.00000000 </v>
   <v>      -0.28571429       0.42857143       0.00000000 </v>
   <v>      -0.23809524       0.42857143       0.00000000 </v>
   <v>      -0.19047619       0.42857143       0.00000000 </v>
   <v>      -0.14285714       0.42857143       0.00000000 </v>
   <v>      -0.09523810       0.42857143       0.00000000 </v>
   <v>      -0.04761905       0.42857143       0.00000000 </v>
   <v>       0.00000000       0.47619048       0.00000000 </v>
   <v>       0.04761905       0.47619048       0.00000000 </v>
   <v>       0.09523810       0.47619048       0.00000000 </v>
   <v>       0.14285714       0.47619048       0.00000000 </v>
   <v>       0.19047619       0.47619048       0.00000000 </v>
   <v>       0.23809524       0.47619048       0.00000000 </v>
   <v>       0.28571429       0.47619048       0.00000000 </v>
   <v>       0.33333333       0.47619048       0.00000000 </v>
   <v>       0.38095238       0.47619048       0.00000000 </v>
   <v>       0.42857143       0.47619048       0.00000000 </v>
   <v>       0.47619048       0.47619048       0.00000000 </v>
   <v>      -0.47619048       0.47619048       0.00000000 </v>
   <v>      -0.42857143       0.47619048       0.00000000 </v>
   <v>      -0.38095238       0.47619048       0.00000000 </v>
   <v>      -0.33333333       0.47619048       0.00000000 </v>
   <v>      -0.28571429       0.47619048       0.00000000 </v>
   <v>      -0.23809524       0.47619048       0.00000000 </v>
   <v>      -0.19047619       0.47619048       0.00000000 </v>
   <v>      -0.14285714       0.47619048       0.00000000 </v>
   <v>      -0.09523810       0.47619048       0.00000000 </v>
   <v>      -0.04761905       0.47619048       0.00000000 </v>
  </varray>
  <varray name="weights" >
   <v>       0.00226757 </v>
   <v>       0.00453515 </v>
   <v>       0.00453515 </v>
   <v>       0.00453515 </v>
   <v>       0.00453515 </v>
   <v>       0.00453515 </v>
   <v>       0.00453515 </v>
   <v>       0.00453515 </v>
   <v>       0.00453515 </v>
   <v>       0.00453515 </v>
   <v>       0.00453515 </v>
   <v>       0.00453515 </v>
   <v>       0.00453515 </v>
   <v>       0.00453515 </v>
   <v>       0.00453515 </v>
   <v>       0.00453515 </v>
   <v>       0.00453515 </v>
   <v>       0.00453515 </v>
   <v>       0.00453515 </v>
   <v>       0.00453515 </v>
   <v>       0.00453515 </v>
   <v>       0.00453515 </v>
   <v>       0.00453515 </v>
   <v>       0.00453515 </v>
   <v>       0.00453515 </v>
   <v>       0.00453515 </v>
   <v>       0.00453515 </v>
   <v>       0.00453515 </v>
   <v>       0.00453515 </v>
   <v>       0.00453515 </v>
   <v>       0.00453515 </v>
   <v>       0.00453515 </v>
   <v>       0.00453515 </v>
   <v>       0.00453515 </v>
   <v>       0.00453515 </v>
   <v>       0.00453515 </v>
   <v>       0.00453515 </v>
   <v>       0.00453515 </v>
   <v>       0.00453515 </v>
   <v>       0.00453515 </v>
   <v>       0.00453515 </v>
   <v>       0.00453515 </v>
   <v>       0.00453515 </v>
   <v>       0.00453515 </v>
   <v>       0.00453515 </v>
   <v>       0.00453515 </v>
   <v>       0.00453515 </v>
   <v>       0.00453515 </v>
   <v>       0.00453515 </v>
   <v>       0.00453515 </v>
   <v>       0.00453515 </v>
   <v>       0.00453515 </v>
   <v>       0.00453515 </v>
   <v>       0.00453515 </v>
   <v>       0.00453515 </v>
   <v>       0.00453515 </v>
   <v>       0.00453515 </v>
   <v>       0.00453515 </v>
   <v>       0.00453515 </v>
   <v>       0.00453515 </v>
   <v>       0.00453515 </v>
   <v>       0.00453515 </v>
   <v>       0.00453515 </v>
   <v>       0.00453515 </v>
   <v>       0.00453515 </v>
   <v>       0.00453515 </v>
   <v>       0.00453515 </v>
   <v>       0.00453515 </v>
   <v>       0.00453515 </v>
   <v>       0.00453515 </v>
   <v>       0.00453515 </v>
   <v>       0.00453515 </v>
   <v>       0.00453515 </v>
   <v>       0.00453515 </v>
   <v>       0.00453515 </v>
   <v>       0.00453515 </v>
   <v>       0.00453515 </v>
   <v>       0.00453515 </v>
   <v>       0.00453515 </v>
   <v>       0.00453515 </v>
   <v>       0.00453515 </v>
   <v>       0.00453515 </v>
   <v>       0.00453515 </v>
   <v>       0.00453515 </v>
   <v>       0.00453515 </v>
   <v>       0.00453515 </v>
   <v>       0.00453515 </v>
   <v>       0.00453515 </v>
   <v>       0.00453515 </v>
   <v>       0.00453515 </v>
   <v>       0.00453515 </v>
   <v>       0.00453515 </v>
   <v>       0.00453515 </v>
   <v>       0.00453515 </v>
   <v>       0.00453515 </v>
   <v>       0.00453515 </v>
   <v>       0.00453515 </v>
   <v>       0.00453515 </v>
   <v>       0.00453515 </v>
   <v>       0.00453515 </v>
   <v>       0.00453515 </v>
   <v>       0.00453515 </v>
   <v>       0.00453515 </v>
   <v>       0.00453515 </v>
   <v>       0.00453515 </v>
   <v>       0.00453515 </v>
   <v>       0.00453515 </v>
   <v>       0.00453515 </v>
   <v>       0.00453515 </v>
   <v>       0.00453515 </v>
   <v>       0.00453515 </v>
   <v>       0.00453515 </v>
   <v>       0.00453515 </v>
   <v>       0.00453515 </v>
   <v>       0.00453515 </v>
   <v>       0.00453515 </v>
   <v>       0.00453515 </v>
   <v>       0.00453515 </v>
   <v>       0.00453515 </v>
   <v>       0.00453515 </v>
   <v>       0.00453515 </v>
   <v>       0.00453515 </v>
   <v>       0.00453515 </v>
   <v>       0.00453515 </v>
   <v>       0.00453515 </v>
   <v>       0.00453515 </v>
   <v>       0.00453515 </v>
   <v>       0.00453515 </v>
   <v>       0.00453515 </v>
   <v>       0.00453515 </v>
   <v>       0.00453515 </v>
   <v>       0.00453515 </v>
   <v>       0.00453515 </v>
   <v>       0.00453515 </v>
   <v>       0.00453515 </v>
   <v>       0.00453515 </v>
   <v>       0.00453515 </v>
   <v>       0.00453515 </v>
   <v>       0.00453515 </v>
   <v>       0.00453515 </v>
   <v>       0.00453515 </v>
   <v>       0.00453515 </v>
   <v>       0.00453515 </v>
   <v>       0.00453515 </v>
   <v>       0.00453515 </v>
   <v>       0.00453515 </v>
   <v>       0.00453515 </v>
   <v>       0.00453515 </v>
   <v>       0.00453515 </v>
   <v>       0.00453515 </v>
   <v>       0.00453515 </v>
   <v>       0.00453515 </v>
   <v>       0.00453515 </v>
   <v>       0.00453515 </v>
   <v>       0.00453515 </v>
   <v>       0.00453515 </v>
   <v>       0.00453515 </v>
   <v>       0.00453515 </v>
   <v>       0.00453515 </v>
   <v>       0.00453515 </v>
   <v>       0.00453515 </v>
   <v>       0.00453515 </v>
   <v>       0.00453515 </v>
   <v>       0.00453515 </v>
   <v>       0.00453515 </v>
   <v>       0.00453515 </v>
   <v>       0.00453515 </v>
   <v>       0.00453515 </v>
   <v>       0.00453515 </v>
   <v>       0.00453515 </v>
   <v>       0.00453515 </v>
   <v>       0.00453515 </v>
   <v>       0.00453515 </v>
   <v>       0.00453515 </v>
   <v>       0.00453515 </v>
   <v>       0.00453515 </v>
   <v>       0.00453515 </v>
   <v>       0.00453515 </v>
   <v>       0.00453515 </v>
   <v>       0.00453515 </v>
   <v>       0.00453515 </v>
   <v>       0.00453515 </v>
   <v>       0.00453515 </v>
   <v>       0.00453515 </v>
   <v>       0.00453515 </v>
   <v>       0.00453515 </v>
   <v>       0.00453515 </v>
   <v>       0.00453515 </v>
   <v>       0.00453515 </v>
   <v>       0.00453515 </v>
   <v>       0.00453515 </v>
   <v>       0.00453515 </v>
   <v>       0.00453515 </v>
   <v>       0.00453515 </v>
   <v>       0.00453515 </v>
   <v>       0.00453515 </v>
   <v>       0.00453515 </v>
   <v>       0.00453515 </v>
   <v>       0.00453515 </v>
   <v>       0.00453515 </v>
   <v>       0.00453515 </v>
   <v>       0.00453515 </v>
   <v>       0.00453515 </v>
   <v>       0.00453515 </v>
   <v>       0.00453515 </v>
   <v>       0.00453515 </v>
   <v>       0.00453515 </v>
   <v>       0.00453515 </v>
   <v>       0.00453515 </v>
   <v>       0.00453515 </v>
   <v>       0.00453515 </v>
   <v>       0.00453515 </v>
   <v>       0.00453515 </v>
   <v>       0.00453515 </v>
   <v>       0.00453515 </v>
   <v>       0.00453515 </v>
   <v>       0.00453515 </v>
   <v>       0.00453515 </v>
   <v>       0.00453515 </v>
   <v>       0.00453515 </v>
   <v>       0.00453515 </v>
  </varray>
 </kpoints>
 <parameters>
  <separator name="general" >
   <i type="string" name="SYSTEM">C-4</i>
   <i type="logical" name="LCOMPAT"> F  </i>
  </separator>
  <separator name="electronic" >
   <i type="string" name="PREC">accura</i>
   <i name="ENMAX">    800.00000000</i>
   <i name="ENAUG">    644.87300000</i>
   <i name="EDIFF">      0.00000001</i>
   <i type="int" name="IALGO">    38</i>
   <i type="int" name="IWAVPR">    10</i>
   <i type="int" name="NBANDS">    96</i>
   <i name="NELECT">    144.00000000</i>
   <i type="int" name="TURBO">     0</i>
   <i type="int" name="IRESTART">     0</i>
   <i type="int" name="NREBOOT">     0</i>
   <i type="int" name="NMIN">     0</i>
   <i name="EREF">      0.00000000</i>
   <separator name="electronic smearing" >
    <i type="int" name="ISMEAR">     0</i>
    <i name="SIGMA">      0.01000000</i>
    <i name="KSPACING">      0.50000000</i>
    <i type="logical" name="KGAMMA"> T  </i>
   </separator>
   <separator name="electronic projectors" >
    <i type="logical" name="LREAL"> F  </i>
    <v name="ROPT">      0.00000000</v>
    <i type="int" name="LMAXPAW">  -100</i>
    <i type="int" name="LMAXMIX">     2</i>
    <i type="logical" name="NLSPLINE"> F  </i>
   </separator>
   <separator name="electronic startup" >
    <i type="int" name="ISTART">     0</i>
    <i type="int" name="ICHARG">     2</i>
    <i type="int" name="INIWAV">     1</i>
   </separator>
   <separator name="electronic spin" >
    <i type="int" name="ISPIN">     1</i>
    <i type="logical" name="LNONCOLLINEAR"> F  </i>
    <v name="MAGMOM">      1.00000000      1.00000000      1.00000000      1.00000000      1.00000000      1.00000000      1.00000000      1.00000000      1.00000000      1.00000000      1.00000000      1.00000000      1.00000000      1.00000000      1.00000000      1.00000000      1.00000000      1.00000000      1.00000000      1.00000000
      1.00000000      1.00000000      1.00000000      1.00000000      1.00000000      1.00000000      1.00000000      1.00000000      1.00000000      1.00000000      1.00000000      1.00000000      1.00000000      1.00000000      1.00000000      1.00000000</v>
    <i name="NUPDOWN">     -1.00000000</i>
    <i type="logical" name="LSORBIT"> F  </i>
    <v name="SAXIS">      0.00000000      0.00000000      1.00000000</v>
    <i type="logical" name="LSPIRAL"> F  </i>
    <v name="QSPIRAL">      0.00000000      0.00000000      0.00000000</v>
    <i type="logical" name="LZEROZ"> F  </i>
   </separator>
   <separator name="electronic exchange-correlation" >
    <i type="logical" name="LASPH"> F  </i>
    <i type="logical" name="LMETAGGA"> F  </i>
   </separator>
   <separator name="electronic convergence" >
    <i type="int" name="NELM">    60</i>
    <i type="int" name="NELMDL">    -5</i>
    <i type="int" name="NELMIN">     5</i>
    <i name="ENINI">    800.00000000</i>
    <separator name="electronic convergence detail" >
     <i type="logical" name="LDIAG"> T  </i>
     <i type="logical" name="LSUBROT"> F  </i>
     <i name="WEIMIN">      0.00000000</i>
     <i name="EBREAK">      0.00000000</i>
     <i name="DEPER">      0.30000000</i>
     <i type="int" name="NRMM">     4</i>
     <i name="TIME">      0.40000000</i>
    </separator>
   </separator>
   <separator name="electronic mixer" >
    <i name="AMIX">      0.40000000</i>
    <i name="BMIX">      1.00000000</i>
    <i name="AMIN">      0.01000000</i>
    <i name="AMIX_MAG">      1.60000000</i>
    <i name="BMIX_MAG">      1.00000000</i>
    <separator name="electronic mixer details" >
     <i type="int" name="IMIX">     4</i>
     <i type="logical" name="MIXFIRST"> F  </i>
     <i type="int" name="MAXMIX">   -45</i>
     <i name="WC">    100.00000000</i>
     <i type="int" name="INIMIX">     1</i>
     <i type="int" name="MIXPRE">     1</i>
     <i type="int" name="MREMOVE">     5</i>
    </separator>
   </separator>
   <separator name="electronic dipolcorrection" >
    <i type="logical" name="LDIPOL"> F  </i>
    <i type="logical" name="LMONO"> F  </i>
    <i type="int" name="IDIPOL">     0</i>
    <i name="EPSILON">      1.00000000</i>
    <v name="DIPOL">   -100.00000000   -100.00000000   -100.00000000</v>
    <i name="EFIELD">      0.00000000</i>
   </separator>
  </separator>
  <separator name="grids" >
   <i type="int" name="NGX">    70</i>
   <i type="int" name="NGY">    70</i>
   <i type="int" name="NGZ">   192</i>
   <i type="int" name="NGXF">   140</i>
   <i type="int" name="NGYF">   140</i>
   <i type="int" name="NGZF">   384</i>
   <i type="logical" name="ADDGRID"> T  </i>
  </separator>
  <separator name="ionic" >
   <i type="int" name="NSW">     0</i>
   <i type="int" name="IBRION">    -1</i>
   <i type="int" name="MDALGO">     0</i>
   <i type="int" name="ISIF">     2</i>
   <i name="PSTRESS">      0.00000000</i>
   <i name="EDIFFG">     -0.00000001</i>
   <i type="int" name="NFREE">     0</i>
   <i name="POTIM">      0.50000000</i>
   <i name="SMASS">     -3.00000000</i>
   <i name="SCALEE">      1.00000000</i>
  </separator>
  <separator name="ionic md" >
   <i name="TEBEG">      0.00010000</i>
   <i name="TEEND">      0.00010000</i>
   <i type="int" name="NBLOCK">     1</i>
   <i type="int" name="KBLOCK">     1</i>
   <i type="int" name="NPACO">   256</i>
   <i name="APACO">     16.00000000</i>
  </separator>
  <separator name="symmetry" >
   <i type="int" name="ISYM">     2</i>
   <i name="SYMPREC">      0.00010000</i>
  </separator>
  <separator name="dos" >
   <i type="int" name="LORBIT">     0</i>
   <v name="RWIGS">     -1.00000000</v>
   <i type="int" name="NEDOS">   301</i>
   <i name="EMIN">     10.00000000</i>
   <i name="EMAX">    -10.00000000</i>
   <i name="EFERMI">      0.00000000</i>
  </separator>
  <separator name="writing" >
   <i type="int" name="NWRITE">     2</i>
   <i type="logical" name="LWAVE"> F  </i>
   <i type="logical" name="LDOWNSAMPLE"> F  </i>
   <i type="logical" name="LCHARG"> F  </i>
   <i type="logical" name="LPARD"> F  </i>
   <i type="logical" name="LVTOT"> F  </i>
   <i type="logical" name="LVHAR"> F  </i>
   <i type="logical" name="LELF"> F  </i>
   <i type="logical" name="LOPTICS"> F  </i>
   <v name="STM">      0.00000000      0.00000000      0.00000000      0.00000000      0.00000000      0.00000000      0.00000000</v>
  </separator>
  <separator name="performance" >
   <i type="int" name="NPAR">     6</i>
   <i type="int" name="NSIM">     4</i>
   <i type="int" name="NBLK">    -1</i>
   <i type="logical" name="LPLANE"> T  </i>
   <i type="logical" name="LSCALAPACK"> T  </i>
   <i type="logical" name="LSCAAWARE"> F  </i>
   <i type="logical" name="LSCALU"> F  </i>
   <i type="logical" name="LASYNC"> F  </i>
   <i type="logical" name="LORBITALREAL"> F  </i>
  </separator>
  <separator name="miscellaneous" >
   <i type="int" name="IDIOT">     3</i>
   <i type="int" name="ISPECIAL">     0</i>
   <i type="logical" name="LMUSIC"> F  </i>
   <v name="POMASS">     12.01100000</v>
   <v name="DARWINR">      0.00000000</v>
   <v name="DARWINV">      1.00000000</v>
   <i type="logical" name="LCORR"> T  </i>
  </separator>
  <i type="logical" name="GGA_COMPAT"> T  </i>
  <i type="logical" name="LBERRY"> F  </i>
  <i type="int" name="ICORELEVEL">     0</i>
  <i type="logical" name="LDAU"> F  </i>
  <i type="int" name="I_CONSTRAINED_M">     0</i>
  <separator name="electronic exchange-correlation" >
   <i type="string" name="GGA">--</i>
   <i type="int" name="VOSKOWN">     0</i>
   <i type="logical" name="LHFCALC"> F  </i>
   <i type="string" name="PRECFOCK"></i>
   <i type="logical" name="LSYMGRAD"> F  </i>
   <i type="logical" name="LHFONE"> F  </i>
   <i type="logical" name="LRHFCALC"> F  </i>
   <i type="logical" name="LTHOMAS"> F  </i>
   <i type="logical" name="LMODELHF"> F  </i>
   <i name="ENCUT4O">     -1.00000000</i>
   <i type="int" name="EXXOEP">     0</i>
   <i type="int" name="FOURORBIT">     0</i>
   <i name="AEXX">      0.00000000</i>
   <i name="HFALPHA">      0.00000000</i>
   <i name="MCALPHA">      0.00000000</i>
   <i name="ALDAX">      1.00000000</i>
   <i name="AGGAX">      1.00000000</i>
   <i name="ALDAC">      1.00000000</i>
   <i name="AGGAC">      1.00000000</i>
   <i type="int" name="NKREDX">     1</i>
   <i type="int" name="NKREDY">     1</i>
   <i type="int" name="NKREDZ">     1</i>
   <i type="logical" name="SHIFTRED"> F  </i>
   <i type="logical" name="ODDONLY"> F  </i>
   <i type="logical" name="EVENONLY"> F  </i>
   <i type="int" name="LMAXFOCK">     0</i>
   <i type="int" name="NMAXFOCKAE">     0</i>
   <i type="logical" name="LFOCKAEDFT"> F  </i>
   <i name="HFSCREEN">      0.00000000</i>
   <i name="HFSCREENC">      0.00000000</i>
   <i type="int" name="NBANDSGWLOW">     0</i>
  </separator>
  <separator name="vdW DFT" >
   <i type="logical" name="LUSE_VDW"> F  </i>
   <i name="Zab_VDW">     -0.84910000</i>
   <i name="PARAM1">      0.12340000</i>
   <i name="PARAM2">      1.00000000</i>
   <i name="PARAM3">      0.00000000</i>
  </separator>
  <separator name="model GW" >
   <i type="int" name="MODEL_GW">     0</i>
   <i name="MODEL_EPS0">     15.71628168</i>
   <i name="MODEL_ALPHA">      1.00000000</i>
  </separator>
  <separator name="linear response parameters" >
   <i type="logical" name="LEPSILON"> F  </i>
   <i type="logical" name="LRPA"> F  </i>
   <i type="logical" name="LNABLA"> F  </i>
   <i type="logical" name="LVEL"> F  </i>
   <i type="int" name="KINTER">     0</i>
   <i name="CSHIFT">      0.10000000</i>
   <i name="OMEGAMAX">     -1.00000000</i>
   <i name="DEG_THRESHOLD">      0.00200000</i>
   <i name="RTIME">     -0.10000000</i>
   <i name="WPLASMAI">      0.00000000</i>
   <v name="DFIELD">      0.00000000      0.00000000      0.00000000</v>
   <v name="WPLASMA">      0.00000000      0.00000000      0.00000000      0.00000000      0.00000000      0.00000000      0.00000000      0.00000000      0.00000000</v>
  </separator>
  <separator name="orbital magnetization" >
   <i type="logical" name="NUCIND"> F  </i>
   <v name="MAGPOS">      0.00000000      0.00000000      0.00000000</v>
   <i type="logical" name="LNICSALL"> T  </i>
   <i type="logical" name="ORBITALMAG"> F  </i>
   <i type="logical" name="LMAGBLOCH"> F  </i>
   <i type="logical" name="LCHIMAG"> F  </i>
   <i type="logical" name="LGAUGE"> T  </i>
   <i type="int" name="MAGATOM">     0</i>
   <v name="MAGDIPOL">      0.00000000      0.00000000      0.00000000</v>
   <v name="AVECCONST">      0.00000000      0.00000000      0.00000000</v>
  </separator>
  <separator name="response functions" >
   <i type="logical" name="LADDER"> F  </i>
   <i type="logical" name="LRPAFORCE"> F  </i>
   <i type="logical" name="LFXC"> F  </i>
   <i type="logical" name="LHARTREE"> T  </i>
   <i type="int" name="IBSE">     0</i>
   <v type="int" name="KPOINT">    -1     0     0     0</v>
   <i type="logical" name="LTCTE"> F  </i>
   <i type="logical" name="LTETE"> F  </i>
   <i type="logical" name="LTRIPLET"> F  </i>
   <i type="logical" name="LFXCEPS"> F  </i>
   <i type="logical" name="LFXHEG"> F  </i>
   <i type="int" name="NATURALO">     2</i>
   <i type="logical" name="L2ORDER"> F  </i>
   <i type="logical" name="LMP2LT"> F  </i>
   <i type="logical" name="LUSEW"> F  </i>
   <i name="ENCUTGW">     -2.00000000</i>
   <i name="ENCUTGWSOFT">     -2.00000000</i>
   <i name="ENCUTLF">     -1.00000000</i>
   <i type="int" name="LMAXMP2">    -1</i>
   <i name="SCISSOR">      0.00000000</i>
   <i type="int" name="NOMEGA">     0</i>
   <i type="int" name="NOMEGAR">     0</i>
   <i type="int" name="NBANDSGW">    -1</i>
   <i type="int" name="NBANDSO">    -1</i>
   <i type="int" name="NBANDSV">    -1</i>
   <i type="int" name="NELM">     1</i>
   <i type="int" name="NELMHF">     1</i>
   <i type="int" name="DIM">     3</i>
   <i type="int" name="ANTIRES">     0</i>
   <i name="OMEGAMAX">    -30.00000000</i>
   <i name="OMEGAMIN">    -30.00000000</i>
   <i name="OMEGATL">   -200.00000000</i>
   <i type="int" name="OMEGAGRID">   140</i>
   <i name="CSHIFT">     -0.10000000</i>
   <i type="logical" name="SELFENERGY"> F  </i>
   <i type="logical" name="LSPECTRAL"> F  </i>
   <i type="logical" name="LSPECTRALGW"> F  </i>
   <i type="logical" name="LSINGLES"> F  </i>
   <i type="logical" name="LFERMIGW"> F  </i>
   <i type="logical" name="ODDONLYGW"> F  </i>
   <i type="logical" name="EVENONLYGW"> F  </i>
   <i type="int" name="NKREDLFX">     1</i>
   <i type="int" name="NKREDLFY">     1</i>
   <i type="int" name="NKREDLFZ">     1</i>
   <i type="int" name="MAXMEM">  2800</i>
   <i type="int" name="TELESCOPE">     0</i>
   <i type="int" name="TAUPAR">     1</i>
   <i type="int" name="OMEGAPAR">    -1</i>
   <i name="LAMBDA">      1.00000000</i>
  </separator>
  <separator name="External order field" >
   <i name="OFIELD_KAPPA">      0.00000000</i>
   <v name="OFIELD_K">      0.00000000      0.00000000      0.00000000</v>
   <i name="OFIELD_Q6_NEAR">      0.00000000</i>
   <i name="OFIELD_Q6_FAR">      0.00000000</i>
   <i name="OFIELD_A">      0.00000000</i>
  </separator>
 </parameters>
 <atominfo>
  <atoms>      36 </atoms>
  <types>       1 </types>
  <array name="atoms" >
   <dimension dim="1">ion</dimension>
   <field type="string">element</field>
   <field type="int">atomtype</field>
   <set>
    <rc><c>C </c><c>   1</c></rc>
    <rc><c>C </c><c>   1</c></rc>
    <rc><c>C </c><c>   1</c></rc>
    <rc><c>C </c><c>   1</c></rc>
    <rc><c>C </c><c>   1</c></rc>
    <rc><c>C </c><c>   1</c></rc>
    <rc><c>C </c><c>   1</c></rc>
    <rc><c>C </c><c>   1</c></rc>
    <rc><c>C </c><c>   1</c></rc>
    <rc><c>C </c><c>   1</c></rc>
    <rc><c>C </c><c>   1</c></rc>
    <rc><c>C </c><c>   1</c></rc>
    <rc><c>C </c><c>   1</c></rc>
    <rc><c>C </c><c>   1</c></rc>
    <rc><c>C </c><c>   1</c></rc>
    <rc><c>C </c><c>   1</c></rc>
    <rc><c>C </c><c>   1</c></rc>
    <rc><c>C </c><c>   1</c></rc>
    <rc><c>C </c><c>   1</c></rc>
    <rc><c>C </c><c>   1</c></rc>
    <rc><c>C </c><c>   1</c></rc>
    <rc><c>C </c><c>   1</c></rc>
    <rc><c>C </c><c>   1</c></rc>
    <rc><c>C </c><c>   1</c></rc>
    <rc><c>C </c><c>   1</c></rc>
    <rc><c>C </c><c>   1</c></rc>
    <rc><c>C </c><c>   1</c></rc>
    <rc><c>C </c><c>   1</c></rc>
    <rc><c>C </c><c>   1</c></rc>
    <rc><c>C </c><c>   1</c></rc>
    <rc><c>C </c><c>   1</c></rc>
    <rc><c>C </c><c>   1</c></rc>
    <rc><c>C </c><c>   1</c></rc>
    <rc><c>C </c><c>   1</c></rc>
    <rc><c>C </c><c>   1</c></rc>
    <rc><c>C </c><c>   1</c></rc>
   </set>
  </array>
  <array name="atomtypes" >
   <dimension dim="1">type</dimension>
   <field type="int">atomspertype</field>
   <field type="string">element</field>
   <field>mass</field>
   <field>valence</field>
   <field type="string">pseudopotential</field>
   <set>
    <rc><c>  36</c><c>C </c><c>     12.01100000</c><c>      4.00000000</c><c> PAW_PBE C 08Apr2002                    </c></rc>
   </set>
  </array>
 </atominfo>
 <structure name="initialpos" >
  <crystal>
   <varray name="basis" >
    <v>       6.39000000      -3.68926800       0.00000000 </v>
    <v>       6.39000000       3.68926800       0.00000000 </v>
    <v>       0.00000000       0.00000000      20.00000000 </v>
   </varray>
   <i name="volume">    942.97690080 </i>
   <varray name="rec_basis" >
    <v>       0.07824726      -0.13552824       0.00000000 </v>
    <v>       0.07824726       0.13552824       0.00000000 </v>
    <v>       0.00000000       0.00000000       0.05000000 </v>
   </varray>
  </crystal>
  <varray name="positions" >
   <v>       0.99953100       0.00000000       0.99953100 </v>
   <v>       0.33333300       0.00000000       0.00000000 </v>
   <v>       0.66666700       0.00000000       0.00000000 </v>
   <v>       0.00000000       0.33333300       0.00000000 </v>
   <v>       0.33333300       0.33333300       0.00000000 </v>
   <v>       0.66666700       0.33333300       0.00000000 </v>
   <v>       0.00000000       0.66666700       0.00000000 </v>
   <v>       0.33333300       0.66666700       0.00000000 </v>
   <v>       0.66666700       0.66666700       0.00000000 </v>
   <v>       0.11111100       0.11111100       0.00000000 </v>
   <v>       0.44444400       0.11111100       0.00000000 </v>
   <v>       0.77777800       0.11111100       0.00000000 </v>
   <v>       0.11111100       0.44444400       0.00000000 </v>
   <v>       0.44444400       0.44444400       0.00000000 </v>
   <v>       0.77777800       0.44444400       0.00000000 </v>
   <v>       0.11111100       0.77777800       0.00000000 </v>
   <v>       0.44444400       0.77777800       0.00000000 </v>
   <v>       0.77777800       0.77777800       0.00000000 </v>
   <v>       0.00000000       0.00000000       0.22193400 </v>
   <v>       0.33333300       0.00000000       0.22193400 </v>
   <v>       0.66666700       0.00000000       0.22193400 </v>
   <v>       0.00000000       0.33333300       0.22193400 </v>
   <v>       0.33333300       0.33333300       0.22193400 </v>
   <v>       0.66666700       0.33333300       0.22193400 </v>
   <v>       0.00000000       0.66666700       0.22193400 </v>
   <v>       0.33333300       0.66666700       0.22193400 </v>
   <v>       0.66666700       0.66666700       0.22193400 </v>
   <v>       0.11111100       0.11111100       0.22193400 </v>
   <v>       0.44444400       0.11111100       0.22193400 </v>
   <v>       0.77777800       0.11111100       0.22193400 </v>
   <v>       0.11111100       0.44444400       0.22193400 </v>
   <v>       0.44444400       0.44444400       0.22193400 </v>
   <v>       0.77777800       0.44444400       0.22193400 </v>
   <v>       0.11111100       0.77777800       0.22193400 </v>
   <v>       0.44444400       0.77777800       0.22193400 </v>
   <v>       0.77777800       0.77777800       0.22193400 </v>
  </varray>
 </structure>
 <calculation>
  <scstep>
   <time name="dav">   92.56   92.79</time>
   <time name="total">   92.75   93.00</time>
   <energy>
    <i name="alphaZ">    111.98396531 </i>
    <i name="ewald">  22255.45018445 </i>
    <i name="hartreedc"> -26411.19334581 </i>
    <i name="XCdc">    496.77428834 </i>
    <i name="pawpsdc">   1361.93195146 </i>
    <i name="pawaedc">  -1403.34921963 </i>
    <i name="eentropy">     -0.00047256 </i>
    <i name="bandstr">   -315.04281134 </i>
    <i name="atom">   5297.55924426 </i>
    <i name="e_fr_energy">   1394.11378448 </i>
    <i name="e_wo_entrp">   1394.11425704 </i>
    <i name="e_0_energy">   1394.11402076 </i>
   </energy>
  </scstep>
  <scstep>
   <time name="dav">  124.49  124.83</time>
   <time name="total">  124.50  124.83</time>
   <energy>
    <i name="e_fr_energy">   -138.03431741 </i>
    <i name="e_wo_entrp">   -138.03429047 </i>
    <i name="e_0_energy">   -138.03430394 </i>
   </energy>
  </scstep>
  <scstep>
   <time name="dav">  106.07  106.36</time>
   <time name="total">  106.08  106.36</time>
   <energy>
    <i name="e_fr_energy">   -348.84612256 </i>
    <i name="e_wo_entrp">   -348.84611962 </i>
    <i name="e_0_energy">   -348.84612109 </i>
   </energy>
  </scstep>
  <scstep>
   <time name="dav">  108.06  108.35</time>
   <time name="total">  108.06  108.35</time>
   <energy>
    <i name="e_fr_energy">   -355.49528529 </i>
    <i name="e_wo_entrp">   -355.49528517 </i>
    <i name="e_0_energy">   -355.49528523 </i>
   </energy>
  </scstep>
  <scstep>
   <time name="dav">  120.91  121.24</time>
   <time name="total">  125.64  125.98</time>
   <energy>
    <i name="e_fr_energy">   -355.71085647 </i>
    <i name="e_wo_entrp">   -355.71085639 </i>
    <i name="e_0_energy">   -355.71085643 </i>
   </energy>
  </scstep>
  <scstep>
   <time name="dav">  100.69  100.94</time>
   <time name="total">  105.58  105.86</time>
   <energy>
    <i name="e_fr_energy">   -338.64575970 </i>
    <i name="e_wo_entrp">   -338.64575970 </i>
    <i name="e_0_energy">   -338.64575970 </i>
   </energy>
  </scstep>
  <scstep>
   <time name="dav">  101.37  101.62</time>
   <time name="total">  106.44  106.73</time>
   <energy>
    <i name="e_fr_energy">   -332.38846321 </i>
    <i name="e_wo_entrp">   -332.38846321 </i>
    <i name="e_0_energy">   -332.38846321 </i>
   </energy>
  </scstep>
  <scstep>
   <time name="dav">  105.15  105.41</time>
   <time name="total">  110.00  110.30</time>
   <energy>
    <i name="e_fr_energy">   -332.37472610 </i>
    <i name="e_wo_entrp">   -332.37472610 </i>
    <i name="e_0_energy">   -332.37472610 </i>
   </energy>
  </scstep>
  <scstep>
   <time name="dav">  104.21  104.47</time>
   <time name="total">  109.03  109.32</time>
   <energy>
    <i name="e_fr_energy">   -332.34556505 </i>
    <i name="e_wo_entrp">   -332.34556505 </i>
    <i name="e_0_energy">   -332.34556505 </i>
   </energy>
  </scstep>
  <scstep>
   <time name="dav">   98.30   98.54</time>
   <time name="total">  103.25  103.53</time>
   <energy>
    <i name="e_fr_energy">   -332.30518067 </i>
    <i name="e_wo_entrp">   -332.30518067 </i>
    <i name="e_0_energy">   -332.30518067 </i>
   </energy>
  </scstep>
  <scstep>
   <time name="dav">   94.99   95.23</time>
   <time name="total">   99.84  100.11</time>
   <energy>
    <i name="e_fr_energy">   -332.27380897 </i>
    <i name="e_wo_entrp">   -332.27380897 </i>
    <i name="e_0_energy">   -332.27380897 </i>
   </energy>
  </scstep>
  <scstep>
   <time name="dav">   93.47   93.71</time>
   <time name="total">   98.21   98.48</time>
   <energy>
    <i name="e_fr_energy">   -332.25281882 </i>
    <i name="e_wo_entrp">   -332.25281882 </i>
    <i name="e_0_energy">   -332.25281882 </i>
   </energy>
  </scstep>
  <scstep>
   <time name="dav">   95.24   95.47</time>
   <time name="total">   99.83  100.10</time>
   <energy>
    <i name="e_fr_energy">   -332.26252926 </i>
    <i name="e_wo_entrp">   -332.26252926 </i>
    <i name="e_0_energy">   -332.26252926 </i>
   </energy>
  </scstep>
  <scstep>
   <time name="dav">   96.07   96.31</time>
   <time name="total">  100.77  101.05</time>
   <energy>
    <i name="e_fr_energy">   -332.26900696 </i>
    <i name="e_wo_entrp">   -332.26900696 </i>
    <i name="e_0_energy">   -332.26900696 </i>
   </energy>
  </scstep>
  <scstep>
   <time name="dav">   97.62   97.86</time>
   <time name="total">  102.26  102.54</time>
   <energy>
    <i name="e_fr_energy">   -332.27505107 </i>
    <i name="e_wo_entrp">   -332.27505107 </i>
    <i name="e_0_energy">   -332.27505107 </i>
   </energy>
  </scstep>
  <scstep>
   <time name="dav">   97.40   97.64</time>
   <time name="total">  102.02  102.30</time>
   <energy>
    <i name="e_fr_energy">   -332.27653933 </i>
    <i name="e_wo_entrp">   -332.27653933 </i>
    <i name="e_0_energy">   -332.27653933 </i>
   </energy>
  </scstep>
  <scstep>
   <time name="dav">   98.13   98.37</time>
   <time name="total">  102.86  103.14</time>
   <energy>
    <i name="e_fr_energy">   -332.27698452 </i>
    <i name="e_wo_entrp">   -332.27698452 </i>
    <i name="e_0_energy">   -332.27698452 </i>
   </energy>
  </scstep>
  <scstep>
   <time name="dav">  102.23  102.48</time>
   <time name="total">  106.87  107.15</time>
   <energy>
    <i name="e_fr_energy">   -332.27710559 </i>
    <i name="e_wo_entrp">   -332.27710559 </i>
    <i name="e_0_energy">   -332.27710559 </i>
   </energy>
  </scstep>
  <scstep>
   <time name="dav">   97.52   97.76</time>
   <time name="total">  102.13  102.41</time>
   <energy>
    <i name="e_fr_energy">   -332.27716634 </i>
    <i name="e_wo_entrp">   -332.27716634 </i>
    <i name="e_0_energy">   -332.27716634 </i>
   </energy>
  </scstep>
  <scstep>
   <time name="dav">   91.51   91.74</time>
   <time name="total">   96.12   96.38</time>
   <energy>
    <i name="e_fr_energy">   -332.27720453 </i>
    <i name="e_wo_entrp">   -332.27720453 </i>
    <i name="e_0_energy">   -332.27720453 </i>
   </energy>
  </scstep>
  <scstep>
   <time name="dav">   94.75   94.99</time>
   <time name="total">   99.36   99.63</time>
   <energy>
    <i name="e_fr_energy">   -332.27720601 </i>
    <i name="e_wo_entrp">   -332.27720601 </i>
    <i name="e_0_energy">   -332.27720601 </i>
   </energy>
  </scstep>
  <scstep>
   <time name="dav">   89.00   89.22</time>
   <time name="total">   93.61   93.87</time>
   <energy>
    <i name="e_fr_energy">   -332.27720669 </i>
    <i name="e_wo_entrp">   -332.27720669 </i>
    <i name="e_0_energy">   -332.27720669 </i>
   </energy>
  </scstep>
  <scstep>
   <time name="dav">   74.26   74.44</time>
   <time name="total">   78.86   79.08</time>
   <energy>
    <i name="e_fr_energy">   -332.27720667 </i>
    <i name="e_wo_entrp">   -332.27720667 </i>
    <i name="e_0_energy">   -332.27720667 </i>
   </energy>
  </scstep>
  <scstep>
   <time name="dav">   73.79   73.98</time>
   <time name="total">   78.40   78.62</time>
   <energy>
    <i name="e_fr_energy">   -332.27720669 </i>
    <i name="e_wo_entrp">   -332.27720669 </i>
    <i name="e_0_energy">   -332.27720669 </i>
   </energy>
  </scstep>
  <scstep>
   <time name="dav">   70.52   70.70</time>
   <time name="total">   70.67   70.87</time>
   <energy>
    <i name="alphaZ">    111.98396531 </i>
    <i name="ewald">  22255.45018445 </i>
    <i name="hartreedc"> -26974.76753976 </i>
    <i name="XCdc">    518.73008364 </i>
    <i name="pawpsdc">   2518.56786718 </i>
    <i name="pawaedc">  -2565.01692276 </i>
    <i name="eentropy">     -0.00000000 </i>
    <i name="bandstr">  -1494.78408902 </i>
    <i name="atom">   5297.55924426 </i>
    <i name="e_fr_energy">   -332.27720669 </i>
    <i name="e_wo_entrp">   -332.27720669 </i>
    <i name="e_0_energy">   -332.27720669 </i>
   </energy>
  </scstep>
  <structure>
   <crystal>
    <varray name="basis" >
     <v>       6.39000000      -3.68926800       0.00000000 </v>
     <v>       6.39000000       3.68926800       0.00000000 </v>
     <v>       0.00000000       0.00000000      20.00000000 </v>
    </varray>
    <i name="volume">    942.97690080 </i>
    <varray name="rec_basis" >
     <v>       0.07824726      -0.13552824       0.00000000 </v>
     <v>       0.07824726       0.13552824       0.00000000 </v>
     <v>       0.00000000       0.00000000       0.05000000 </v>
    </varray>
   </crystal>
   <varray name="positions" >
    <v>       0.99953100       0.00000000       0.99953100 </v>
    <v>       0.33333300       0.00000000       0.00000000 </v>
    <v>       0.66666700       0.00000000       0.00000000 </v>
    <v>       0.00000000       0.33333300       0.00000000 </v>
    <v>       0.33333300       0.33333300       0.00000000 </v>
    <v>       0.66666700       0.33333300       0.00000000 </v>
    <v>       0.00000000       0.66666700       0.00000000 </v>
    <v>       0.33333300       0.66666700       0.00000000 </v>
    <v>       0.66666700       0.66666700       0.00000000 </v>
    <v>       0.11111100       0.11111100       0.00000000 </v>
    <v>       0.44444400       0.11111100       0.00000000 </v>
    <v>       0.77777800       0.11111100       0.00000000 </v>
    <v>       0.11111100       0.44444400       0.00000000 </v>
    <v>       0.44444400       0.44444400       0.00000000 </v>
    <v>       0.77777800       0.44444400       0.00000000 </v>
    <v>       0.11111100       0.77777800       0.00000000 </v>
    <v>       0.44444400       0.77777800       0.00000000 </v>
    <v>       0.77777800       0.77777800       0.00000000 </v>
    <v>       0.00000000       0.00000000       0.22193400 </v>
    <v>       0.33333300       0.00000000       0.22193400 </v>
    <v>       0.66666700       0.00000000       0.22193400 </v>
    <v>       0.00000000       0.33333300       0.22193400 </v>
    <v>       0.33333300       0.33333300       0.22193400 </v>
    <v>       0.66666700       0.33333300       0.22193400 </v>
    <v>       0.00000000       0.66666700       0.22193400 </v>
    <v>       0.33333300       0.66666700       0.22193400 </v>
    <v>       0.66666700       0.66666700       0.22193400 </v>
    <v>       0.11111100       0.11111100       0.22193400 </v>
    <v>       0.44444400       0.11111100       0.22193400 </v>
    <v>       0.77777800       0.11111100       0.22193400 </v>
    <v>       0.11111100       0.44444400       0.22193400 </v>
    <v>       0.44444400       0.44444400       0.22193400 </v>
    <v>       0.77777800       0.44444400       0.22193400 </v>
    <v>       0.11111100       0.77777800       0.22193400 </v>
    <v>       0.44444400       0.77777800       0.22193400 </v>
    <v>       0.77777800       0.77777800       0.22193400 </v>
   </varray>
  </structure>
  <varray name="forces" >
   <v>       0.18840597      -0.10992587       0.13265608 </v>
   <v>      -0.01260027       0.01021327       0.00392351 </v>
   <v>      -0.01545091       0.00610504       0.00409698 </v>
   <v>      -0.00388570      -0.01366957       0.00399005 </v>
   <v>      -0.00418069       0.00244846      -0.00274340 </v>
   <v>       0.00975662       0.01051253       0.00403003 </v>
   <v>      -0.00153081      -0.00952287       0.00407651 </v>
   <v>       0.00718735       0.00565283       0.00394300 </v>
   <v>      -0.00449870       0.00244968      -0.00274334 </v>
   <v>      -0.07718837       0.01892577      -0.05909180 </v>
   <v>       0.00018029      -0.00021955       0.00795915 </v>
   <v>      -0.05513204       0.05788705      -0.05825512 </v>
   <v>       0.00149038      -0.00212983       0.00797794 </v>
   <v>       0.00294424      -0.00004011       0.00794057 </v>
   <v>      -0.00673218       0.00415324      -0.00394713 </v>
   <v>      -0.03237130       0.01939243      -0.05867981 </v>
   <v>      -0.00096798      -0.00619956      -0.00395047 </v>
   <v>       0.00457131       0.00396879      -0.00394401 </v>
   <v>       0.00039167      -0.00022394       0.00065447 </v>
   <v>       0.00000412      -0.00020958       0.00072146 </v>
   <v>      -0.00000756       0.00027697       0.00071863 </v>
   <v>       0.00017394       0.00012109       0.00072383 </v>
   <v>       0.00038426      -0.00020002       0.00071253 </v>
   <v>      -0.00010881       0.00004061       0.00071635 </v>
   <v>      -0.00015570      -0.00036550       0.00072239 </v>
   <v>       0.00005011      -0.00011034       0.00071778 </v>
   <v>       0.00006515      -0.00020010       0.00071255 </v>
   <v>      -0.00030363      -0.00000700       0.00070798 </v>
   <v>       0.00012679      -0.00017885       0.00071071 </v>
   <v>      -0.00020321       0.00035386       0.00068548 </v>
   <v>      -0.00004161       0.00047972       0.00070953 </v>
   <v>      -0.00005790       0.00000462       0.00071218 </v>
   <v>       0.00014310       0.00019666       0.00071283 </v>
   <v>      -0.00002862      -0.00006549       0.00069666 </v>
   <v>      -0.00004144       0.00009807       0.00071331 </v>
   <v>      -0.00038787      -0.00001246       0.00071260 </v>
  </varray>
  <varray name="stress" >
   <v>      12.68102871      -0.03764405      -0.00298545 </v>
   <v>      -0.03764405      12.80851927       0.00174188 </v>
   <v>      -0.00298545       0.00174189      -0.60330466 </v>
  </varray>
  <energy>
   <i name="e_fr_energy">   -332.27720669 </i>
   <i name="e_wo_entrp">   -332.27720669 </i>
   <i name="e_0_energy">     -0.00000000 </i>
  </energy>
  <time name="totalsc"> 2624.22 2631.35</time>
  <eigenvalues>
   <array>
    <dimension dim="1">band</dimension>
    <dimension dim="2">kpoint</dimension>
    <dimension dim="3">spin</dimension>
    <field>eigene</field>
    <field>occ</field>
    <set>
     <set comment="spin 1">
      <set comment="kpoint 1">
       <r>  -20.7948    1.0000 </r>
       <r>  -20.7831    1.0000 </r>
       <r>  -18.2022    1.0000 </r>
       <r>  -18.1977    1.0000 </r>
       <r>  -18.1973    1.0000 </r>
       <r>  -18.1973    1.0000 </r>
       <r>  -18.1969    1.0000 </r>
       <r>  -18.1949    1.0000 </r>
       <r>  -18.1903    1.0000 </r>
       <r>  -18.1883    1.0000 </r>
       <r>  -18.1879    1.0000 </r>
       <r>  -18.1879    1.0000 </r>
       <r>  -18.1875    1.0000 </r>
       <r>  -18.1829    1.0000 </r>
       <r>  -13.8341    1.0000 </r>
       <r>  -13.8306    1.0000 </r>
       <r>  -13.8304    1.0000 </r>
       <r>  -13.8289    1.0000 </r>
       <r>  -13.8263    1.0000 </r>
       <r>  -13.8247    1.0000 </r>
       <r>  -13.8246    1.0000 </r>
       <r>  -13.8210    1.0000 </r>
       <r>  -11.8210    1.0000 </r>
       <r>  -11.8202    1.0000 </r>
       <r>  -11.8165    1.0000 </r>
       <r>  -11.8156    1.0000 </r>
       <r>  -10.8702    1.0000 </r>
       <r>  -10.8657    1.0000 </r>
       <r>  -10.8639    1.0000 </r>
       <r>  -10.8639    1.0000 </r>
       <r>  -10.8629    1.0000 </r>
       <r>  -10.8623    1.0000 </r>
       <r>  -10.8613    1.0000 </r>
       <r>  -10.8607    1.0000 </r>
       <r>  -10.8598    1.0000 </r>
       <r>  -10.8598    1.0000 </r>
       <r>  -10.8579    1.0000 </r>
       <r>  -10.8532    1.0000 </r>
       <r>   -8.9732    1.0000 </r>
       <r>   -8.7916    1.0000 </r>
       <r>   -7.0147    1.0000 </r>
       <r>   -7.0066    1.0000 </r>
       <r>   -7.0057    1.0000 </r>
       <r>   -7.0057    1.0000 </r>
       <r>   -7.0053    1.0000 </r>
       <r>   -7.0052    1.0000 </r>
       <r>   -7.0051    1.0000 </r>
       <r>   -7.0050    1.0000 </r>
       <r>   -7.0046    1.0000 </r>
       <r>   -7.0046    1.0000 </r>
       <r>   -7.0037    1.0000 </r>
       <r>   -6.9956    1.0000 </r>
       <r>   -5.9484    1.0000 </r>
       <r>   -5.9456    1.0000 </r>
       <r>   -5.9455    1.0000 </r>
       <r>   -5.9454    1.0000 </r>
       <r>   -5.9453    1.0000 </r>
       <r>   -5.9422    1.0000 </r>
       <r>   -5.7973    1.0000 </r>
       <r>   -5.7942    1.0000 </r>
       <r>   -5.7940    1.0000 </r>
       <r>   -5.7940    1.0000 </r>
       <r>   -5.7938    1.0000 </r>
       <r>   -5.7909    1.0000 </r>
       <r>   -4.2475    1.0000 </r>
       <r>   -4.2419    1.0000 </r>
       <r>   -4.2418    1.0000 </r>
       <r>   -4.2359    1.0000 </r>
       <r>   -1.2645    1.0000 </r>
       <r>   -1.2619    1.0000 </r>
       <r>   -1.2618    1.0000 </r>
       <r>   -1.2592    1.0000 </r>
       <r>   -1.1696    0.0000 </r>
       <r>   -1.1669    0.0000 </r>
       <r>   -1.1668    0.0000 </r>
       <r>   -1.1642    0.0000 </r>
       <r>    1.9308    0.0000 </r>
       <r>    2.4903    0.0000 </r>
       <r>    3.1143    0.0000 </r>
       <r>    3.6607    0.0000 </r>
       <r>    3.6649    0.0000 </r>
       <r>    3.6652    0.0000 </r>
       <r>    3.6654    0.0000 </r>
       <r>    3.6656    0.0000 </r>
       <r>    3.6692    0.0000 </r>
       <r>    3.7758    0.0000 </r>
       <r>    3.7799    0.0000 </r>
       <r>    3.7802    0.0000 </r>
       <r>    3.7804    0.0000 </r>
       <r>    3.7807    0.0000 </r>
       <r>    3.7845    0.0000 </r>
       <r>    4.0033    0.0000 </r>
       <r>    4.6795    0.0000 </r>
       <r>    5.4394    0.0000 </r>
       <r>    5.4399    0.0000 </r>
       <r>    5.4404    0.0000 </r>
      </set>
      <set comment="kpoint 2">
       <r>  -20.7888    1.0000 </r>
       <r>  -20.7771    1.0000 </r>
       <r>  -18.4346    1.0000 </r>
       <r>  -18.4250    1.0000 </r>
       <r>  -18.3136    1.0000 </r>
       <r>  -18.3122    1.0000 </r>
       <r>  -18.3041    1.0000 </r>
       <r>  -18.3026    1.0000 </r>
       <r>  -18.0712    1.0000 </r>
       <r>  -18.0698    1.0000 </r>
       <r>  -18.0618    1.0000 </r>
       <r>  -18.0604    1.0000 </r>
       <r>  -17.9497    1.0000 </r>
       <r>  -17.9405    1.0000 </r>
       <r>  -14.0300    1.0000 </r>
       <r>  -14.0281    1.0000 </r>
       <r>  -14.0237    1.0000 </r>
       <r>  -14.0218    1.0000 </r>
       <r>  -13.6623    1.0000 </r>
       <r>  -13.6604    1.0000 </r>
       <r>  -13.6563    1.0000 </r>
       <r>  -13.6543    1.0000 </r>
       <r>  -11.7800    1.0000 </r>
       <r>  -11.7791    1.0000 </r>
       <r>  -11.7754    1.0000 </r>
       <r>  -11.7745    1.0000 </r>
       <r>  -11.2802    1.0000 </r>
       <r>  -11.2756    1.0000 </r>
       <r>  -11.0702    1.0000 </r>
       <r>  -11.0689    1.0000 </r>
       <r>  -11.0659    1.0000 </r>
       <r>  -11.0640    1.0000 </r>
       <r>  -10.6532    1.0000 </r>
       <r>  -10.6518    1.0000 </r>
       <r>  -10.6492    1.0000 </r>
       <r>  -10.6470    1.0000 </r>
       <r>  -10.4459    1.0000 </r>
       <r>  -10.4416    1.0000 </r>
       <r>   -8.9661    1.0000 </r>
       <r>   -8.7845    1.0000 </r>
       <r>   -7.1183    1.0000 </r>
       <r>   -7.1158    1.0000 </r>
       <r>   -7.0868    1.0000 </r>
       <r>   -7.0829    1.0000 </r>
       <r>   -7.0827    1.0000 </r>
       <r>   -7.0811    1.0000 </r>
       <r>   -6.9686    1.0000 </r>
       <r>   -6.9649    1.0000 </r>
       <r>   -6.9647    1.0000 </r>
       <r>   -6.9632    1.0000 </r>
       <r>   -6.8826    1.0000 </r>
       <r>   -6.8795    1.0000 </r>
       <r>   -6.2096    1.0000 </r>
       <r>   -6.0743    1.0000 </r>
       <r>   -6.0730    1.0000 </r>
       <r>   -6.0549    1.0000 </r>
       <r>   -5.9214    1.0000 </r>
       <r>   -5.9200    1.0000 </r>
       <r>   -5.8061    1.0000 </r>
       <r>   -5.8048    1.0000 </r>
       <r>   -5.6736    1.0000 </r>
       <r>   -5.6566    1.0000 </r>
       <r>   -5.6552    1.0000 </r>
       <r>   -5.5258    1.0000 </r>
       <r>   -4.2720    1.0000 </r>
       <r>   -4.2668    1.0000 </r>
       <r>   -4.2551    1.0000 </r>
       <r>   -4.2496    1.0000 </r>
       <r>   -1.5209    1.0000 </r>
       <r>   -1.5196    1.0000 </r>
       <r>   -1.4246    1.0000 </r>
       <r>   -1.4232    1.0000 </r>
       <r>   -1.0068    0.0000 </r>
       <r>   -1.0054    0.0000 </r>
       <r>   -0.9128    0.0000 </r>
       <r>   -0.9114    0.0000 </r>
       <r>    1.9388    0.0000 </r>
       <r>    2.4984    0.0000 </r>
       <r>    3.1224    0.0000 </r>
       <r>    3.2253    0.0000 </r>
       <r>    3.3455    0.0000 </r>
       <r>    3.4417    0.0000 </r>
       <r>    3.4435    0.0000 </r>
       <r>    3.5589    0.0000 </r>
       <r>    3.5607    0.0000 </r>
       <r>    3.8826    0.0000 </r>
       <r>    3.8844    0.0000 </r>
       <r>    3.9944    0.0000 </r>
       <r>    3.9963    0.0000 </r>
       <r>    4.0114    0.0000 </r>
       <r>    4.1067    0.0000 </r>
       <r>    4.2162    0.0000 </r>
       <r>    4.6876    0.0000 </r>
       <r>    5.1199    0.0000 </r>
       <r>    5.2845    0.0000 </r>
       <r>    5.2847    0.0000 </r>
      </set>
      <set comment="kpoint 3">
       <r>  -20.7709    1.0000 </r>
       <r>  -20.7592    1.0000 </r>
       <r>  -18.6612    1.0000 </r>
       <r>  -18.6515    1.0000 </r>
       <r>  -18.4180    1.0000 </r>
       <r>  -18.4165    1.0000 </r>
       <r>  -18.4083    1.0000 </r>
       <r>  -18.4068    1.0000 </r>
       <r>  -17.9333    1.0000 </r>
       <r>  -17.9319    1.0000 </r>
       <r>  -17.9241    1.0000 </r>
       <r>  -17.9226    1.0000 </r>
       <r>  -17.6921    1.0000 </r>
       <r>  -17.6831    1.0000 </r>
       <r>  -14.2524    1.0000 </r>
       <r>  -14.2505    1.0000 </r>
       <r>  -14.2459    1.0000 </r>
       <r>  -14.2441    1.0000 </r>
       <r>  -13.5224    1.0000 </r>
       <r>  -13.5206    1.0000 </r>
       <r>  -13.5166    1.0000 </r>
       <r>  -13.5146    1.0000 </r>
       <r>  -11.6907    1.0000 </r>
       <r>  -11.6857    1.0000 </r>
       <r>  -11.6618    1.0000 </r>
       <r>  -11.6607    1.0000 </r>
       <r>  -11.6573    1.0000 </r>
       <r>  -11.6563    1.0000 </r>
       <r>  -11.2701    1.0000 </r>
       <r>  -11.2688    1.0000 </r>
       <r>  -11.2657    1.0000 </r>
       <r>  -11.2638    1.0000 </r>
       <r>  -10.4382    1.0000 </r>
       <r>  -10.4368    1.0000 </r>
       <r>  -10.4343    1.0000 </r>
       <r>  -10.4320    1.0000 </r>
       <r>  -10.0243    1.0000 </r>
       <r>  -10.0202    1.0000 </r>
       <r>   -8.9445    1.0000 </r>
       <r>   -8.7631    1.0000 </r>
       <r>   -7.2211    1.0000 </r>
       <r>   -7.2187    1.0000 </r>
       <r>   -7.2011    1.0000 </r>
       <r>   -7.1975    1.0000 </r>
       <r>   -7.1972    1.0000 </r>
       <r>   -7.1955    1.0000 </r>
       <r>   -6.9647    1.0000 </r>
       <r>   -6.9608    1.0000 </r>
       <r>   -6.9605    1.0000 </r>
       <r>   -6.9591    1.0000 </r>
       <r>   -6.7507    1.0000 </r>
       <r>   -6.7477    1.0000 </r>
       <r>   -6.4657    1.0000 </r>
       <r>   -6.3080    1.0000 </r>
       <r>   -6.1902    1.0000 </r>
       <r>   -6.1889    1.0000 </r>
       <r>   -6.0358    1.0000 </r>
       <r>   -6.0344    1.0000 </r>
       <r>   -5.6543    1.0000 </r>
       <r>   -5.6531    1.0000 </r>
       <r>   -5.5069    1.0000 </r>
       <r>   -5.5055    1.0000 </r>
       <r>   -5.3970    1.0000 </r>
       <r>   -5.2533    1.0000 </r>
       <r>   -4.3459    1.0000 </r>
       <r>   -4.3410    1.0000 </r>
       <r>   -4.2945    1.0000 </r>
       <r>   -4.2892    1.0000 </r>
       <r>   -1.7813    1.0000 </r>
       <r>   -1.7801    1.0000 </r>
       <r>   -1.6832    1.0000 </r>
       <r>   -1.6818    1.0000 </r>
       <r>   -0.7543    0.0000 </r>
       <r>   -0.7529    0.0000 </r>
       <r>   -0.6607    0.0000 </r>
       <r>   -0.6592    0.0000 </r>
       <r>    1.9629    0.0000 </r>
       <r>    2.5228    0.0000 </r>
       <r>    2.7937    0.0000 </r>
       <r>    2.9196    0.0000 </r>
       <r>    3.1468    0.0000 </r>
       <r>    3.2152    0.0000 </r>
       <r>    3.2169    0.0000 </r>
       <r>    3.3336    0.0000 </r>
       <r>    3.3354    0.0000 </r>
       <r>    4.0355    0.0000 </r>
       <r>    4.0932    0.0000 </r>
       <r>    4.0949    0.0000 </r>
       <r>    4.2007    0.0000 </r>
       <r>    4.2025    0.0000 </r>
       <r>    4.5441    0.0000 </r>
       <r>    4.6469    0.0000 </r>
       <r>    4.7121    0.0000 </r>
       <r>    4.8165    0.0000 </r>
       <r>    5.1445    0.0000 </r>
       <r>    5.1447    0.0000 </r>
      </set>
      <set comment="kpoint 4">
       <r>  -20.7410    1.0000 </r>
       <r>  -20.7293    1.0000 </r>
       <r>  -18.8770    1.0000 </r>
       <r>  -18.8671    1.0000 </r>
       <r>  -18.5109    1.0000 </r>
       <r>  -18.5094    1.0000 </r>
       <r>  -18.5011    1.0000 </r>
       <r>  -18.4997    1.0000 </r>
       <r>  -17.7845    1.0000 </r>
       <r>  -17.7830    1.0000 </r>
       <r>  -17.7753    1.0000 </r>
       <r>  -17.7739    1.0000 </r>
       <r>  -17.4250    1.0000 </r>
       <r>  -17.4162    1.0000 </r>
       <r>  -14.4915    1.0000 </r>
       <r>  -14.4896    1.0000 </r>
       <r>  -14.4848    1.0000 </r>
       <r>  -14.4830    1.0000 </r>
       <r>  -13.4065    1.0000 </r>
       <r>  -13.4047    1.0000 </r>
       <r>  -13.4007    1.0000 </r>
       <r>  -13.3988    1.0000 </r>
       <r>  -12.0950    1.0000 </r>
       <r>  -12.0899    1.0000 </r>
       <r>  -11.4797    1.0000 </r>
       <r>  -11.4785    1.0000 </r>
       <r>  -11.4752    1.0000 </r>
       <r>  -11.4743    1.0000 </r>
       <r>  -11.4628    1.0000 </r>
       <r>  -11.4617    1.0000 </r>
       <r>  -11.4584    1.0000 </r>
       <r>  -11.4565    1.0000 </r>
       <r>  -10.2208    1.0000 </r>
       <r>  -10.2195    1.0000 </r>
       <r>  -10.2170    1.0000 </r>
       <r>  -10.2147    1.0000 </r>
       <r>   -9.6012    1.0000 </r>
       <r>   -9.5973    1.0000 </r>
       <r>   -8.9086    1.0000 </r>
       <r>   -8.7274    1.0000 </r>
       <r>   -7.3510    1.0000 </r>
       <r>   -7.3475    1.0000 </r>
       <r>   -7.3471    1.0000 </r>
       <r>   -7.3457    1.0000 </r>
       <r>   -7.3134    1.0000 </r>
       <r>   -7.3106    1.0000 </r>
       <r>   -6.9948    1.0000 </r>
       <r>   -6.9908    1.0000 </r>
       <r>   -6.9905    1.0000 </r>
       <r>   -6.9892    1.0000 </r>
       <r>   -6.7121    1.0000 </r>
       <r>   -6.6103    1.0000 </r>
       <r>   -6.6073    1.0000 </r>
       <r>   -6.5516    1.0000 </r>
       <r>   -6.2938    1.0000 </r>
       <r>   -6.2925    1.0000 </r>
       <r>   -6.1381    1.0000 </r>
       <r>   -6.1366    1.0000 </r>
       <r>   -5.4913    1.0000 </r>
       <r>   -5.4900    1.0000 </r>
       <r>   -5.3460    1.0000 </r>
       <r>   -5.3446    1.0000 </r>
       <r>   -5.1180    1.0000 </r>
       <r>   -4.9787    1.0000 </r>
       <r>   -4.4675    1.0000 </r>
       <r>   -4.4627    1.0000 </r>
       <r>   -4.3587    1.0000 </r>
       <r>   -4.3536    1.0000 </r>
       <r>   -2.0431    1.0000 </r>
       <r>   -2.0418    1.0000 </r>
       <r>   -1.9426    1.0000 </r>
       <r>   -1.9412    1.0000 </r>
       <r>   -0.5054    0.0000 </r>
       <r>   -0.5040    0.0000 </r>
       <r>   -0.4115    0.0000 </r>
       <r>   -0.4101    0.0000 </r>
       <r>    2.0029    0.0000 </r>
       <r>    2.3739    0.0000 </r>
       <r>    2.5058    0.0000 </r>
       <r>    2.5636    0.0000 </r>
       <r>    2.9863    0.0000 </r>
       <r>    2.9880    0.0000 </r>
       <r>    3.1053    0.0000 </r>
       <r>    3.1070    0.0000 </r>
       <r>    3.1877    0.0000 </r>
       <r>    4.0757    0.0000 </r>
       <r>    4.2941    0.0000 </r>
       <r>    4.2958    0.0000 </r>
       <r>    4.3960    0.0000 </r>
       <r>    4.3978    0.0000 </r>
       <r>    4.5155    0.0000 </r>
       <r>    4.7527    0.0000 </r>
       <r>    4.9736    0.0000 </r>
       <r>    4.9807    0.0000 </r>
       <r>    5.0201    0.0000 </r>
       <r>    5.0206    0.0000 </r>
      </set>
      <set comment="kpoint 5">
       <r>  -20.6991    1.0000 </r>
       <r>  -20.6874    1.0000 </r>
       <r>  -19.0819    1.0000 </r>
       <r>  -19.0717    1.0000 </r>
       <r>  -18.5923    1.0000 </r>
       <r>  -18.5909    1.0000 </r>
       <r>  -18.5825    1.0000 </r>
       <r>  -18.5811    1.0000 </r>
       <r>  -17.6249    1.0000 </r>
       <r>  -17.6234    1.0000 </r>
       <r>  -17.6159    1.0000 </r>
       <r>  -17.6144    1.0000 </r>
       <r>  -17.1490    1.0000 </r>
       <r>  -17.1404    1.0000 </r>
       <r>  -14.7405    1.0000 </r>
       <r>  -14.7387    1.0000 </r>
       <r>  -14.7337    1.0000 </r>
       <r>  -14.7319    1.0000 </r>
       <r>  -13.3060    1.0000 </r>
       <r>  -13.3044    1.0000 </r>
       <r>  -13.3004    1.0000 </r>
       <r>  -13.2986    1.0000 </r>
       <r>  -12.4922    1.0000 </r>
       <r>  -12.4870    1.0000 </r>
       <r>  -11.6486    1.0000 </r>
       <r>  -11.6473    1.0000 </r>
       <r>  -11.6440    1.0000 </r>
       <r>  -11.6422    1.0000 </r>
       <r>  -11.2487    1.0000 </r>
       <r>  -11.2474    1.0000 </r>
       <r>  -11.2444    1.0000 </r>
       <r>  -11.2432    1.0000 </r>
       <r>  -10.0031    1.0000 </r>
       <r>  -10.0018    1.0000 </r>
       <r>   -9.9995    1.0000 </r>
       <r>   -9.9970    1.0000 </r>
       <r>   -9.1781    1.0000 </r>
       <r>   -9.1742    1.0000 </r>
       <r>   -8.8583    1.0000 </r>
       <r>   -8.6776    1.0000 </r>
       <r>   -7.5338    1.0000 </r>
       <r>   -7.5305    1.0000 </r>
       <r>   -7.5301    1.0000 </r>
       <r>   -7.5286    1.0000 </r>
       <r>   -7.3949    1.0000 </r>
       <r>   -7.3922    1.0000 </r>
       <r>   -7.0556    1.0000 </r>
       <r>   -7.0515    1.0000 </r>
       <r>   -7.0510    1.0000 </r>
       <r>   -7.0498    1.0000 </r>
       <r>   -6.9479    1.0000 </r>
       <r>   -6.7850    1.0000 </r>
       <r>   -6.4622    1.0000 </r>
       <r>   -6.4593    1.0000 </r>
       <r>   -6.3847    1.0000 </r>
       <r>   -6.3833    1.0000 </r>
       <r>   -6.2279    1.0000 </r>
       <r>   -6.2264    1.0000 </r>
       <r>   -5.3172    1.0000 </r>
       <r>   -5.3159    1.0000 </r>
       <r>   -5.1742    1.0000 </r>
       <r>   -5.1728    1.0000 </r>
       <r>   -4.8404    1.0000 </r>
       <r>   -4.7058    1.0000 </r>
       <r>   -4.6337    1.0000 </r>
       <r>   -4.6293    1.0000 </r>
       <r>   -4.4458    1.0000 </r>
       <r>   -4.4409    1.0000 </r>
       <r>   -2.3052    1.0000 </r>
       <r>   -2.3039    1.0000 </r>
       <r>   -2.2021    1.0000 </r>
       <r>   -2.2007    1.0000 </r>
       <r>   -0.2601    0.0000 </r>
       <r>   -0.2587    0.0000 </r>
       <r>   -0.1655    0.0000 </r>
       <r>   -0.1640    0.0000 </r>
       <r>    1.9706    0.0000 </r>
       <r>    2.0589    0.0000 </r>
       <r>    2.1090    0.0000 </r>
       <r>    2.6204    0.0000 </r>
       <r>    2.7563    0.0000 </r>
       <r>    2.7580    0.0000 </r>
       <r>    2.8751    0.0000 </r>
       <r>    2.8769    0.0000 </r>
       <r>    3.2447    0.0000 </r>
       <r>    4.1319    0.0000 </r>
       <r>    4.2392    0.0000 </r>
       <r>    4.4825    0.0000 </r>
       <r>    4.4843    0.0000 </r>
       <r>    4.5777    0.0000 </r>
       <r>    4.5795    0.0000 </r>
       <r>    4.8096    0.0000 </r>
       <r>    4.8119    0.0000 </r>
       <r>    4.9113    0.0000 </r>
       <r>    4.9115    0.0000 </r>
       <r>    5.3001    0.0000 </r>
      </set>
      <set comment="kpoint 6">
       <r>  -20.6453    1.0000 </r>
       <r>  -20.6337    1.0000 </r>
       <r>  -19.2756    1.0000 </r>
       <r>  -19.2653    1.0000 </r>
       <r>  -18.6623    1.0000 </r>
       <r>  -18.6608    1.0000 </r>
       <r>  -18.6524    1.0000 </r>
       <r>  -18.6509    1.0000 </r>
       <r>  -17.4546    1.0000 </r>
       <r>  -17.4531    1.0000 </r>
       <r>  -17.4458    1.0000 </r>
       <r>  -17.4443    1.0000 </r>
       <r>  -16.8651    1.0000 </r>
       <r>  -16.8568    1.0000 </r>
       <r>  -14.9942    1.0000 </r>
       <r>  -14.9925    1.0000 </r>
       <r>  -14.9872    1.0000 </r>
       <r>  -14.9855    1.0000 </r>
       <r>  -13.2131    1.0000 </r>
       <r>  -13.2116    1.0000 </r>
       <r>  -13.2076    1.0000 </r>
       <r>  -13.2058    1.0000 </r>
       <r>  -12.8808    1.0000 </r>
       <r>  -12.8753    1.0000 </r>
       <r>  -11.8260    1.0000 </r>
       <r>  -11.8247    1.0000 </r>
       <r>  -11.8213    1.0000 </r>
       <r>  -11.8195    1.0000 </r>
       <r>  -10.9835    1.0000 </r>
       <r>  -10.9821    1.0000 </r>
       <r>  -10.9793    1.0000 </r>
       <r>  -10.9780    1.0000 </r>
       <r>   -9.7878    1.0000 </r>
       <r>   -9.7865    1.0000 </r>
       <r>   -9.7843    1.0000 </r>
       <r>   -9.7817    1.0000 </r>
       <r>   -8.7939    1.0000 </r>
       <r>   -8.7562    1.0000 </r>
       <r>   -8.7525    1.0000 </r>
       <r>   -8.6136    1.0000 </r>
       <r>   -7.7466    1.0000 </r>
       <r>   -7.7435    1.0000 </r>
       <r>   -7.7430    1.0000 </r>
       <r>   -7.7415    1.0000 </r>
       <r>   -7.4652    1.0000 </r>
       <r>   -7.4626    1.0000 </r>
       <r>   -7.1731    1.0000 </r>
       <r>   -7.1417    1.0000 </r>
       <r>   -7.1380    1.0000 </r>
       <r>   -7.1374    1.0000 </r>
       <r>   -7.1363    1.0000 </r>
       <r>   -7.0073    1.0000 </r>
       <r>   -6.4630    1.0000 </r>
       <r>   -6.4618    1.0000 </r>
       <r>   -6.3080    1.0000 </r>
       <r>   -6.3069    1.0000 </r>
       <r>   -6.3048    1.0000 </r>
       <r>   -6.3000    1.0000 </r>
       <r>   -5.1325    1.0000 </r>
       <r>   -5.1312    1.0000 </r>
       <r>   -4.9921    1.0000 </r>
       <r>   -4.9907    1.0000 </r>
       <r>   -4.8417    1.0000 </r>
       <r>   -4.8372    1.0000 </r>
       <r>   -4.5687    1.0000 </r>
       <r>   -4.5534    1.0000 </r>
       <r>   -4.5485    1.0000 </r>
       <r>   -4.4394    1.0000 </r>
       <r>   -2.5666    1.0000 </r>
       <r>   -2.5654    1.0000 </r>
       <r>   -2.4607    1.0000 </r>
       <r>   -2.4593    1.0000 </r>
       <r>   -0.0185    0.0000 </r>
       <r>   -0.0170    0.0000 </r>
       <r>    0.0774    0.0000 </r>
       <r>    0.0789    0.0000 </r>
       <r>    1.5900    0.0000 </r>
       <r>    1.7347    0.0000 </r>
       <r>    2.1311    0.0000 </r>
       <r>    2.5258    0.0000 </r>
       <r>    2.5275    0.0000 </r>
       <r>    2.6440    0.0000 </r>
       <r>    2.6457    0.0000 </r>
       <r>    2.6938    0.0000 </r>
       <r>    3.3180    0.0000 </r>
       <r>    3.9772    0.0000 </r>
       <r>    4.2043    0.0000 </r>
       <r>    4.5586    0.0000 </r>
       <r>    4.6534    0.0000 </r>
       <r>    4.6551    0.0000 </r>
       <r>    4.7421    0.0000 </r>
       <r>    4.7439    0.0000 </r>
       <r>    4.8205    0.0000 </r>
       <r>    4.8209    0.0000 </r>
       <r>    4.8830    0.0000 </r>
       <r>    5.1679    0.0000 </r>
      </set>
      <set comment="kpoint 7">
       <r>  -20.5796    1.0000 </r>
       <r>  -20.5680    1.0000 </r>
       <r>  -19.4580    1.0000 </r>
       <r>  -19.4476    1.0000 </r>
       <r>  -18.7206    1.0000 </r>
       <r>  -18.7192    1.0000 </r>
       <r>  -18.7107    1.0000 </r>
       <r>  -18.7093    1.0000 </r>
       <r>  -17.2740    1.0000 </r>
       <r>  -17.2725    1.0000 </r>
       <r>  -17.2653    1.0000 </r>
       <r>  -17.2638    1.0000 </r>
       <r>  -16.5751    1.0000 </r>
       <r>  -16.5671    1.0000 </r>
       <r>  -15.2486    1.0000 </r>
       <r>  -15.2469    1.0000 </r>
       <r>  -15.2413    1.0000 </r>
       <r>  -15.2397    1.0000 </r>
       <r>  -13.2587    1.0000 </r>
       <r>  -13.2529    1.0000 </r>
       <r>  -13.1215    1.0000 </r>
       <r>  -13.1200    1.0000 </r>
       <r>  -13.1161    1.0000 </r>
       <r>  -13.1143    1.0000 </r>
       <r>  -11.9950    1.0000 </r>
       <r>  -11.9937    1.0000 </r>
       <r>  -11.9902    1.0000 </r>
       <r>  -11.9885    1.0000 </r>
       <r>  -10.6948    1.0000 </r>
       <r>  -10.6933    1.0000 </r>
       <r>  -10.6907    1.0000 </r>
[...]
       <r>   -7.6638    1.0000 </r>
       <r>   -7.3939    1.0000 </r>
       <r>   -7.3920    1.0000 </r>
       <r>   -6.8692    1.0000 </r>
       <r>   -6.7067    1.0000 </r>
       <r>   -6.5465    1.0000 </r>
       <r>   -6.5460    1.0000 </r>
       <r>   -6.5446    1.0000 </r>
       <r>   -6.5441    1.0000 </r>
       <r>   -6.4434    1.0000 </r>
       <r>   -6.2854    1.0000 </r>
       <r>   -5.3985    1.0000 </r>
       <r>   -5.3981    1.0000 </r>
       <r>   -5.3976    1.0000 </r>
       <r>   -5.3970    1.0000 </r>
       <r>   -4.1012    1.0000 </r>
       <r>   -4.0999    1.0000 </r>
       <r>   -3.9739    1.0000 </r>
       <r>   -3.9726    1.0000 </r>
       <r>   -3.8032    1.0000 </r>
       <r>   -3.8016    1.0000 </r>
       <r>   -3.6826    1.0000 </r>
       <r>   -3.6809    1.0000 </r>
       <r>   -3.6363    1.0000 </r>
       <r>   -3.5316    1.0000 </r>
       <r>    0.3809    0.0000 </r>
       <r>    0.5536    0.0000 </r>
       <r>    1.0468    0.0000 </r>
       <r>    1.0498    0.0000 </r>
       <r>    1.1622    0.0000 </r>
       <r>    1.1653    0.0000 </r>
       <r>    1.4861    0.0000 </r>
       <r>    1.4887    0.0000 </r>
       <r>    1.5867    0.0000 </r>
       <r>    1.5895    0.0000 </r>
       <r>    2.8198    0.0000 </r>
       <r>    2.8200    0.0000 </r>
       <r>    3.3922    0.0000 </r>
       <r>    3.3923    0.0000 </r>
       <r>    4.0172    0.0000 </r>
       <r>    4.0176    0.0000 </r>
       <r>    4.3315    0.0000 </r>
       <r>    4.8158    0.0000 </r>
       <r>    4.8334    0.0000 </r>
       <r>    4.8772    0.0000 </r>
       <r>    4.8926    0.0000 </r>
       <r>    4.8927    0.0000 </r>
       <r>    4.9220    0.0000 </r>
       <r>    5.4420    0.0000 </r>
      </set>
     </set>
    </set>
   </array>
  </eigenvalues>
  <separator name="orbital magnetization" >
   <v name="MAGDIPOLOUT">      0.00000000      0.00000000      0.00000000</v>
  </separator>
  <dos>
   <i name="efermi">     -1.21218480 </i>
   <total>
    <array>
     <dimension dim="1">gridpoints</dimension>
     <dimension dim="2">spin</dimension>
     <field>energy</field>
     <field>total</field>
     <field>integrated</field>
     <set>
      <set comment="spin 1">
       <r>   -22.1272     0.0000     0.0000 </r>
       <r>   -22.0295     0.0000     0.0000 </r>
       <r>   -21.9318     0.0000     0.0000 </r>
       <r>   -21.8340     0.0000     0.0000 </r>
       <r>   -21.7363     0.0000     0.0000 </r>
       <r>   -21.6386     0.0000     0.0000 </r>
       <r>   -21.5409     0.0000     0.0000 </r>
       <r>   -21.4432     0.0000     0.0000 </r>
       <r>   -21.3455     0.0000     0.0000 </r>
       <r>   -21.2478     0.0000     0.0000 </r>
       <r>   -21.1501     0.0000     0.0000 </r>
       <r>   -21.0524     0.0000     0.0000 </r>
       <r>   -20.9547     0.0000     0.0000 </r>
       <r>   -20.8570     0.0000     0.0000 </r>
       <r>   -20.7593     1.6551     0.1617 </r>
       <r>   -20.6616     5.0174     0.7174 </r>
       <r>   -20.5639     4.4943     1.2373 </r>
       <r>   -20.4662     4.3768     1.7973 </r>
       <r>   -20.3685     4.4949     2.2986 </r>
       <r>   -20.2708     4.9846     2.8363 </r>
       <r>   -20.1731     5.6350     3.3899 </r>
       <r>   -20.0754     5.0917     3.9352 </r>
       <r>   -19.9777     5.5689     4.5261 </r>
       <r>   -19.8799     4.8732     5.0567 </r>
       <r>   -19.7822     3.8685     5.5028 </r>
       <r>   -19.6845     3.8742     6.1019 </r>
       <r>   -19.5868     5.8825     6.7335 </r>
       <r>   -19.4891     4.7275     7.2193 </r>
       <r>   -19.3914     4.0708     7.6995 </r>
       <r>   -19.2937     5.5910     8.3377 </r>
       <r>   -19.1960     3.6048     8.7424 </r>
       <r>   -19.0983     6.0639     9.4184 </r>
       <r>   -19.0006     4.8171     9.9219 </r>
       <r>   -18.9029     4.4240    10.5094 </r>
       <r>   -18.8052     5.5689    11.0566 </r>
       <r>   -18.7075     4.2168    11.6320 </r>
       <r>   -18.6098     5.5160    12.1943 </r>
       <r>   -18.5121     3.9560    12.6679 </r>
       <r>   -18.4144     4.8399    13.3255 </r>
       <r>   -18.3167     3.4905    13.7923 </r>
       <r>   -18.2190     4.6890    14.3448 </r>
       <r>   -18.1213     5.0934    14.9333 </r>
       <r>   -18.0236     5.0581    15.5237 </r>
       <r>   -17.9258     4.7483    16.0922 </r>
       <r>   -17.8281     2.3194    16.4534 </r>
       <r>   -17.7304     5.8046    17.1751 </r>
       <r>   -17.6327     3.4117    17.6486 </r>
       <r>   -17.5350     6.3856    18.3475 </r>
       <r>   -17.4373     3.2721    18.8323 </r>
       <r>   -17.3396     5.6655    19.4742 </r>
       <r>   -17.2419     5.2110    20.1100 </r>
       <r>   -17.1442     3.4358    20.4808 </r>
       <r>   -17.0465     6.6220    21.2276 </r>
       <r>   -16.9488     4.7797    21.7550 </r>
       <r>   -16.8511     4.7442    22.2957 </r>
       <r>   -16.7534     4.4559    22.9206 </r>
       <r>   -16.6557     5.4868    23.4568 </r>
       <r>   -16.5580     6.5732    24.1071 </r>
       <r>   -16.4603     3.4353    24.6168 </r>
       <r>   -16.3626     4.6033    25.1663 </r>
       <r>   -16.2649     6.1883    25.9198 </r>
       <r>   -16.1672     3.7234    26.3865 </r>
       <r>   -16.0695     6.6316    27.1060 </r>
       <r>   -15.9717     5.6788    27.7748 </r>
       <r>   -15.8740     4.0337    28.2127 </r>
       <r>   -15.7763     7.8924    29.0252 </r>
       <r>   -15.6786     5.9834    29.6733 </r>
       <r>   -15.5809     5.8613    30.3508 </r>
       <r>   -15.4832     9.5979    31.3686 </r>
       <r>   -15.3855     4.8336    32.0824 </r>
       <r>   -15.2878     3.7915    32.5428 </r>
       <r>   -15.1901     4.5304    33.1593 </r>
       <r>   -15.0924     3.3408    33.5329 </r>
       <r>   -14.9947     2.9537    33.8215 </r>
       <r>   -14.8970     2.7840    34.3492 </r>
       <r>   -14.7993     0.6617    34.4139 </r>
       <r>   -14.7016     5.0130    35.0023 </r>
       <r>   -14.6039     0.5570    35.0567 </r>
       <r>   -14.5062     1.9180    35.2441 </r>
       <r>   -14.4085     4.6487    35.8103 </r>
       <r>   -14.3108     3.6951    36.3429 </r>
       <r>   -14.2131     5.5277    37.0118 </r>
       <r>   -14.1154     3.1916    37.4822 </r>
       <r>   -14.0176     6.3348    38.2155 </r>
       <r>   -13.9199     5.0207    38.7581 </r>
       <r>   -13.8222     3.6278    39.2299 </r>
       <r>   -13.7245     7.0790    39.9751 </r>
       <r>   -13.6268     6.0208    40.6065 </r>
       <r>   -13.5291     6.3368    41.4994 </r>
       <r>   -13.4314     5.2250    42.2431 </r>
       <r>   -13.3337     7.2135    42.9816 </r>
       <r>   -13.2360     5.7751    43.7117 </r>
       <r>   -13.1383     6.0398    44.3362 </r>
       <r>   -13.0406     5.1645    44.9855 </r>
       <r>   -12.9429     2.9463    45.4490 </r>
       <r>   -12.8452     3.3419    46.0318 </r>
       <r>   -12.7475     6.1805    46.6901 </r>
       <r>   -12.6498     5.7198    47.2981 </r>
       <r>   -12.5521     3.5932    47.7434 </r>
       <r>   -12.4544     4.6119    48.3329 </r>
       <r>   -12.3567     3.3931    48.8667 </r>
       <r>   -12.2590     3.8756    49.3492 </r>
       <r>   -12.1613     3.4769    49.8000 </r>
       <r>   -12.0635     5.2671    50.4103 </r>
       <r>   -11.9658     2.7732    50.8199 </r>
       <r>   -11.8681     5.2486    51.3337 </r>
       <r>   -11.7704     3.9764    51.8080 </r>
       <r>   -11.6727     4.6628    52.4377 </r>
       <r>   -11.5750     6.3644    53.2026 </r>
       <r>   -11.4773     3.5862    53.5840 </r>
       <r>   -11.3796     6.0153    54.4383 </r>
       <r>   -11.2819     3.3695    54.8689 </r>
       <r>   -11.1842     5.7548    55.6283 </r>
       <r>   -11.0865     3.5189    56.1082 </r>
       <r>   -10.9888     6.2864    56.8956 </r>
       <r>   -10.8911     6.4248    57.6710 </r>
       <r>   -10.7934     4.4318    58.1292 </r>
       <r>   -10.6957     6.4753    58.8731 </r>
       <r>   -10.5980     6.0191    59.5905 </r>
       <r>   -10.5003     5.6083    60.1489 </r>
       <r>   -10.4026     6.9324    60.9313 </r>
       <r>   -10.3049     4.5587    61.5975 </r>
       <r>   -10.2072     5.0039    62.1034 </r>
       <r>   -10.1094     6.4107    63.0391 </r>
       <r>   -10.0117     3.7513    63.4504 </r>
       <r>    -9.9140     4.3823    64.1744 </r>
       <r>    -9.8163     5.3746    64.8607 </r>
       <r>    -9.7186     4.8257    65.7506 </r>
       <r>    -9.6209     3.5577    66.0982 </r>
       <r>    -9.5232     9.9917    67.3075 </r>
       <r>    -9.4255     3.8100    67.7557 </r>
       <r>    -9.3278     8.6853    68.6672 </r>
       <r>    -9.2301     4.3625    69.3425 </r>
       <r>    -9.1324     8.2823    70.2335 </r>
       <r>    -9.0347     5.8001    70.9431 </r>
       <r>    -8.9370     9.6775    72.0294 </r>
       <r>    -8.8393     6.8783    72.7673 </r>
       <r>    -8.7416    11.5485    74.0945 </r>
       <r>    -8.6439     8.0432    75.2260 </r>
       <r>    -8.5462    10.7919    76.5012 </r>
       <r>    -8.4485     8.9661    77.7746 </r>
       <r>    -8.3508    11.0239    79.1818 </r>
       <r>    -8.2531    11.1924    80.6583 </r>
       <r>    -8.1553     7.2769    81.7632 </r>
       <r>    -8.0576    14.5299    83.7149 </r>
       <r>    -7.9599    10.0095    84.8601 </r>
       <r>    -7.8622    13.9577    86.6608 </r>
       <r>    -7.7645    15.8484    88.4238 </r>
       <r>    -7.6668    14.5806    90.1232 </r>
       <r>    -7.5691    17.5674    92.3108 </r>
       <r>    -7.4714    16.0903    94.1801 </r>
       <r>    -7.3737    14.8112    95.7965 </r>
       <r>    -7.2760    12.4261    97.3593 </r>
       <r>    -7.1783    13.4129    98.8528 </r>
       <r>    -7.0806    12.2247   100.1513 </r>
       <r>    -6.9829     9.8464   101.4156 </r>
       <r>    -6.8852    12.3178   102.7460 </r>
       <r>    -6.7875    11.4522   104.0489 </r>
       <r>    -6.6898    12.1526   105.2965 </r>
       <r>    -6.5921    10.7298   106.5087 </r>
       <r>    -6.4944     8.6560   107.5577 </r>
       <r>    -6.3967    10.6400   108.7584 </r>
       <r>    -6.2990     7.4207   109.9409 </r>
       <r>    -6.2012     9.5495   111.1010 </r>
       <r>    -6.1035     8.4294   112.1530 </r>
       <r>    -6.0058    11.5813   113.3404 </r>
       <r>    -5.9081    10.4731   114.4021 </r>
       <r>    -5.8104     8.7293   115.4289 </r>
       <r>    -5.7127     8.7484   116.5146 </r>
       <r>    -5.6150     5.2672   117.4307 </r>
       <r>    -5.5173    12.2472   118.7931 </r>
       <r>    -5.4196     4.9784   119.4162 </r>
       <r>    -5.3219    11.4583   120.7750 </r>
       <r>    -5.2242     7.4107   121.5859 </r>
       <r>    -5.1265     7.7027   122.6211 </r>
       <r>    -5.0288     8.0007   123.5481 </r>
       <r>    -4.9311     8.4765   124.6108 </r>
       <r>    -4.8334    10.0184   125.6501 </r>
       <r>    -4.7357     5.8569   126.4317 </r>
       <r>    -4.6380     9.1577   127.4895 </r>
       <r>    -4.5403     8.2970   128.5296 </r>
       <r>    -4.4426     7.1483   129.3972 </r>
       <r>    -4.3449     7.6326   130.3694 </r>
       <r>    -4.2471     9.3041   131.4580 </r>
       <r>    -4.1494     5.6032   132.1032 </r>
       <r>    -4.0517     5.6004   132.7196 </r>
       <r>    -3.9540     5.2288   133.3635 </r>
       <r>    -3.8563     5.6218   134.1185 </r>
       <r>    -3.7586     5.9815   134.8612 </r>
       <r>    -3.6609     6.2971   135.7264 </r>
       <r>    -3.5632     9.1599   136.7500 </r>
       <r>    -3.4655     7.1551   137.6879 </r>
       <r>    -3.3678     5.1100   138.3587 </r>
       <r>    -3.2701     5.9274   139.0374 </r>
       <r>    -3.1724     6.1267   139.7097 </r>
       <r>    -3.0747     4.3563   140.1355 </r>
       <r>    -2.9770     3.0619   140.5803 </r>
       <r>    -2.8793     3.5019   140.9775 </r>
       <r>    -2.7816     3.4911   141.3843 </r>
       <r>    -2.6839     2.3542   141.7357 </r>
       <r>    -2.5862     1.6450   142.0112 </r>
       <r>    -2.4885     2.4387   142.3155 </r>
       <r>    -2.3908     2.1395   142.5946 </r>
       <r>    -2.2930     1.3631   142.7818 </r>
       <r>    -2.1953     2.3930   143.0186 </r>
       <r>    -2.0976     1.9496   143.2200 </r>
       <r>    -1.9999     1.4559   143.3622 </r>
       <r>    -1.9022     1.2172   143.5294 </r>
       <r>    -1.8045     0.3458   143.6347 </r>
       <r>    -1.7068     0.8363   143.7371 </r>
       <r>    -1.6091     1.1142   143.8459 </r>
       <r>    -1.5114     0.6817   143.9215 </r>
       <r>    -1.4137     0.5145   143.9777 </r>
       <r>    -1.3160     0.0000   143.9819 </r>
       <r>    -1.2183     0.1857   144.0000 </r>
       <r>    -1.1206     0.1857   144.0181 </r>
       <r>    -1.0229     0.0053   144.0187 </r>
       <r>    -0.9252     0.1110   144.0744 </r>
       <r>    -0.8275     0.2772   144.1541 </r>
       <r>    -0.7298     1.1135   144.2630 </r>
       <r>    -0.6321     1.3562   144.3955 </r>
       <r>    -0.5344     1.0572   144.5024 </r>
       <r>    -0.4367     1.4975   144.6542 </r>
       <r>    -0.3389     1.0419   144.8002 </r>
       <r>    -0.2412     1.4237   145.0280 </r>
       <r>    -0.1435     2.7764   145.3507 </r>
       <r>    -0.0458     1.8916   145.5363 </r>
       <r>     0.0519     3.6081   145.9400 </r>
       <r>     0.1496     2.6956   146.3223 </r>
       <r>     0.2473     5.1955   146.8931 </r>
       <r>     0.3450     7.0575   147.6193 </r>
       <r>     0.4427     7.0664   148.4547 </r>
       <r>     0.5404     8.2905   149.4812 </r>
       <r>     0.6381     9.3454   150.5913 </r>
       <r>     0.7358     6.4487   151.3153 </r>
       <r>     0.8335     6.1929   152.1062 </r>
       <r>     0.9312     5.2826   152.7792 </r>
       <r>     1.0289     3.5314   153.2613 </r>
       <r>     1.1266     6.2881   153.9299 </r>
       <r>     1.2243     4.3836   154.4965 </r>
       <r>     1.3220     2.4887   154.9371 </r>
       <r>     1.4197     6.0691   155.6589 </r>
       <r>     1.5174     4.0123   156.0836 </r>
       <r>     1.6152     4.6497   156.6085 </r>
       <r>     1.7129     3.2504   156.9344 </r>
       <r>     1.8106     4.6649   157.5082 </r>
       <r>     1.9083     3.1207   157.8741 </r>
       <r>     2.0060     5.6680   158.5039 </r>
       <r>     2.1037     6.4192   159.2078 </r>
       <r>     2.2014     5.0991   159.7956 </r>
       <r>     2.2991     4.3100   160.3351 </r>
       <r>     2.3968     6.0678   161.0509 </r>
       <r>     2.4945     5.6797   161.6571 </r>
       <r>     2.5922     7.2669   162.4516 </r>
       <r>     2.6899     5.7033   163.1151 </r>
       <r>     2.7876     7.1915   163.9685 </r>
       <r>     2.8853     5.9810   164.7478 </r>
       <r>     2.9830     6.2066   165.4500 </r>
       <r>     3.0807     5.5742   166.1775 </r>
       <r>     3.1784     9.3095   167.1864 </r>
       <r>     3.2761     6.7991   168.0158 </r>
       <r>     3.3738     7.6600   168.9799 </r>
       <r>     3.4715     8.4199   169.9976 </r>
       <r>     3.5693     8.5427   170.9617 </r>
       <r>     3.6670     7.2058   171.7834 </r>
       <r>     3.7647     8.7030   172.8278 </r>
       <r>     3.8624     6.7718   173.6415 </r>
       <r>     3.9601     7.3694   174.5751 </r>
       <r>     4.0578     7.6998   175.5324 </r>
       <r>     4.1555    10.8253   176.7949 </r>
       <r>     4.2532     8.2789   177.8520 </r>
       <r>     4.3509     9.6479   179.0198 </r>
       <r>     4.4486     9.0063   180.0183 </r>
       <r>     4.5463    11.2652   181.3003 </r>
       <r>     4.6440     8.3801   182.1884 </r>
       <r>     4.7417    10.5473   183.5158 </r>
       <r>     4.8394    10.8712   184.8039 </r>
       <r>     4.9371    11.4452   186.1388 </r>
       <r>     5.0348    11.5014   187.4504 </r>
       <r>     5.1325     9.8434   188.5401 </r>
       <r>     5.2302    10.0952   189.7079 </r>
       <r>     5.3279     9.0462   190.6300 </r>
       <r>     5.4256     5.7483   191.3056 </r>
       <r>     5.5234     2.5049   191.6552 </r>
       <r>     5.6211     1.5745   191.8364 </r>
       <r>     5.7188     0.8355   191.9184 </r>
       <r>     5.8165     0.5570   191.9728 </r>
       <r>     5.9142     0.2785   192.0000 </r>
       <r>     6.0119     0.0000   192.0000 </r>
       <r>     6.1096     0.0000   192.0000 </r>
       <r>     6.2073     0.0000   192.0000 </r>
       <r>     6.3050     0.0000   192.0000 </r>
       <r>     6.4027     0.0000   192.0000 </r>
       <r>     6.5004     0.0000   192.0000 </r>
       <r>     6.5981     0.0000   192.0000 </r>
       <r>     6.6958     0.0000   192.0000 </r>
       <r>     6.7935     0.0000   192.0000 </r>
       <r>     6.8912     0.0000   192.0000 </r>
       <r>     6.9889     0.0000   192.0000 </r>
       <r>     7.0866     0.0000   192.0000 </r>
       <r>     7.1843     0.0000   192.0000 </r>
      </set>
     </set>
    </array>
   </total>
  </dos>
 </calculation>
 <structure name="finalpos" >
  <crystal>
   <varray name="basis" >
    <v>       6.39000000      -3.68926800       0.00000000 </v>
    <v>       6.39000000       3.68926800       0.00000000 </v>
    <v>       0.00000000       0.00000000      20.00000000 </v>
   </varray>
   <i name="volume">    942.97690080 </i>
   <varray name="rec_basis" >
    <v>       0.07824726      -0.13552824       0.00000000 </v>
    <v>       0.07824726       0.13552824       0.00000000 </v>
    <v>       0.00000000       0.00000000       0.05000000 </v>
   </varray>
  </crystal>
  <varray name="positions" >
   <v>       0.99953100       0.00000000       0.99953100 </v>
   <v>       0.33333300       0.00000000       0.00000000 </v>
   <v>       0.66666700       0.00000000       0.00000000 </v>
   <v>       0.00000000       0.33333300       0.00000000 </v>
   <v>       0.33333300       0.33333300       0.00000000 </v>
   <v>       0.66666700       0.33333300       0.00000000 </v>
   <v>       0.00000000       0.66666700       0.00000000 </v>
   <v>       0.33333300       0.66666700       0.00000000 </v>
   <v>       0.66666700       0.66666700       0.00000000 </v>
   <v>       0.11111100       0.11111100       0.00000000 </v>
   <v>       0.44444400       0.11111100       0.00000000 </v>
   <v>       0.77777800       0.11111100       0.00000000 </v>
   <v>       0.11111100       0.44444400       0.00000000 </v>
   <v>       0.44444400       0.44444400       0.00000000 </v>
   <v>       0.77777800       0.44444400       0.00000000 </v>
   <v>       0.11111100       0.77777800       0.00000000 </v>
   <v>       0.44444400       0.77777800       0.00000000 </v>
   <v>       0.77777800       0.77777800       0.00000000 </v>
   <v>       0.00000000       0.00000000       0.22193400 </v>
   <v>       0.33333300       0.00000000       0.22193400 </v>
   <v>       0.66666700       0.00000000       0.22193400 </v>
   <v>       0.00000000       0.33333300       0.22193400 </v>
   <v>       0.33333300       0.33333300       0.22193400 </v>
   <v>       0.66666700       0.33333300       0.22193400 </v>
   <v>       0.00000000       0.66666700       0.22193400 </v>
   <v>       0.33333300       0.66666700       0.22193400 </v>
   <v>       0.66666700       0.66666700       0.22193400 </v>
   <v>       0.11111100       0.11111100       0.22193400 </v>
   <v>       0.44444400       0.11111100       0.22193400 </v>
   <v>       0.77777800       0.11111100       0.22193400 </v>
   <v>       0.11111100       0.44444400       0.22193400 </v>
   <v>       0.44444400       0.44444400       0.22193400 </v>
   <v>       0.77777800       0.44444400       0.22193400 </v>
   <v>       0.11111100       0.77777800       0.22193400 </v>
   <v>       0.44444400       0.77777800       0.22193400 </v>
   <v>       0.77777800       0.77777800       0.22193400 </v>
  </varray>
 </structure>
</modeling>
