...it's alive! Batch file starting...
 running on   36 total cores
 distrk:  each k-point on   36 cores,    1 groups
 distr:  one band on    6 cores,    6 groups
 using from now: INCAR     
 vasp.5.4.4.18Apr17-6-g9f103f2a35 (build May 31 2018 21:15:54) complex          
  
 POSCAR found type information on POSCAR  C 
 POSCAR found :  1 types and      36 ions
 scaLAPACK will be used

 ----------------------------------------------------------------------------- 
|                                                                             |
|  ADVICE TO THIS USER RUNNING 'VASP/VAMP'   (HEAR YOUR MASTER'S VOICE ...):  |
|                                                                             |
|      You have a (more or less) 'large supercell' and for larger cells       |
|      it might be more efficient to use real space projection operators      |
|      So try LREAL= Auto  in the INCAR   file.                               |
|      Mind: If you want to do a very accurate calculations keep the          |
|      reciprocal projection scheme          (i.e. LREAL=.FALSE.)             |
|                                                                             |
 ----------------------------------------------------------------------------- 

 LDA part: xc-table for Pade appr. of Perdew
 POSCAR, INCAR and KPOINTS ok, starting setup
 FFT: planning ...
 WAVECAR not read
 entering main loop
       N       E                     dE             d eps       ncg     rms          rms(c)
DAV:   1     0.139411378448E+04    0.13941E+04   -0.73436E+04 42432   0.170E+03
DAV:   2    -0.138034317406E+03   -0.15321E+04   -0.14614E+04 63564   0.326E+02
DAV:   3    -0.348846122557E+03   -0.21081E+03   -0.20960E+03 51264   0.121E+02
DAV:   4    -0.355495285287E+03   -0.66492E+01   -0.66312E+01 53004   0.262E+01
DAV:   5    -0.355710856474E+03   -0.21557E+00   -0.21544E+00 61452   0.415E+00    0.237E+01
DAV:   6    -0.338645759697E+03    0.17065E+02   -0.16442E+01 47604   0.105E+01    0.125E+01
DAV:   7    -0.332388463207E+03    0.62573E+01   -0.19255E+01 48072   0.112E+01    0.216E+00
DAV:   8    -0.332374726100E+03    0.13737E-01   -0.44279E-01 50760   0.188E+00    0.349E-01
DAV:   9    -0.332345565054E+03    0.29161E-01   -0.42866E-02 50028   0.550E-01    0.239E-01
DAV:  10    -0.332305180672E+03    0.40384E-01   -0.18453E-02 45888   0.330E-01    0.162E-01
DAV:  11    -0.332273808967E+03    0.31372E-01   -0.19393E-02 44184   0.291E-01    0.147E-01
DAV:  12    -0.332252818825E+03    0.20990E-01   -0.12942E-02 43212   0.255E-01    0.974E-02
DAV:  13    -0.332262529259E+03   -0.97104E-02   -0.49844E-03 44028   0.199E-01    0.871E-02
DAV:  14    -0.332269006964E+03   -0.64777E-02   -0.65315E-03 44496   0.180E-01    0.827E-02
DAV:  15    -0.332275051069E+03   -0.60441E-02   -0.46060E-03 45432   0.142E-01    0.445E-02
DAV:  16    -0.332276539332E+03   -0.14883E-02   -0.39831E-04 45336   0.532E-02    0.128E-02
DAV:  17    -0.332276984522E+03   -0.44519E-03   -0.32868E-05 45816   0.176E-02    0.473E-03
DAV:  18    -0.332277105594E+03   -0.12107E-03   -0.40837E-06 48468   0.603E-03    0.253E-03
DAV:  19    -0.332277166336E+03   -0.60743E-04   -0.21463E-06 45660   0.353E-03    0.107E-03
DAV:  20    -0.332277204526E+03   -0.38190E-04   -0.94677E-07 45384   0.230E-03    0.761E-04
DAV:  21    -0.332277206006E+03   -0.14798E-05   -0.62312E-08 47652   0.682E-04    0.261E-04
DAV:  22    -0.332277206694E+03   -0.68796E-06   -0.28821E-08 43656   0.421E-04    0.549E-05
DAV:  23    -0.332277206669E+03    0.25493E-07   -0.68152E-10 33024   0.917E-05    0.287E-05
DAV:  24    -0.332277206686E+03   -0.17812E-07   -0.29860E-10 32784   0.607E-05    0.166E-05
DAV:  25    -0.332277206694E+03   -0.79481E-08    0.10415E-11 30492   0.318E-05
   1 F= -.33227721E+03 E0= -.33227721E+03  d E =-.200964E-12
Bstch file complete.
