C-4                                     
           1
     6.390000   -3.689268    0.000000
     6.390000    3.689268    0.000000
     0.000000    0.000000   20.000000
   C 
  36
Direct configuration=     1
   0.99953100  0.00000000  0.99953100
   0.33333300  0.00000000  0.00000000
   0.66666700  0.00000000  0.00000000
   0.00000000  0.33333300  0.00000000
   0.33333300  0.33333300  0.00000000
   0.66666700  0.33333300  0.00000000
   0.00000000  0.66666700  0.00000000
   0.33333300  0.66666700  0.00000000
   0.66666700  0.66666700  0.00000000
   0.11111100  0.11111100  0.00000000
   0.44444400  0.11111100  0.00000000
   0.77777800  0.11111100  0.00000000
   0.11111100  0.44444400  0.00000000
   0.44444400  0.44444400  0.00000000
   0.77777800  0.44444400  0.00000000
   0.11111100  0.77777800  0.00000000
   0.44444400  0.77777800  0.00000000
   0.77777800  0.77777800  0.00000000
   0.00000000  0.00000000  0.22193400
   0.33333300  0.00000000  0.22193400
   0.66666700  0.00000000  0.22193400
   0.00000000  0.33333300  0.22193400
   0.33333300  0.33333300  0.22193400
   0.66666700  0.33333300  0.22193400
   0.00000000  0.66666700  0.22193400
   0.33333300  0.66666700  0.22193400
   0.66666700  0.66666700  0.22193400
   0.11111100  0.11111100  0.22193400
   0.44444400  0.11111100  0.22193400
   0.77777800  0.11111100  0.22193400
   0.11111100  0.44444400  0.22193400
   0.44444400  0.44444400  0.22193400
   0.77777800  0.44444400  0.22193400
   0.11111100  0.77777800  0.22193400
   0.44444400  0.77777800  0.22193400
   0.77777800  0.77777800  0.22193400
