   4   4   0   0
  0.2619380E+02  0.2459512E-09  0.2459512E-09  0.2000000E-08  0.5000000E-15
  1.000000000000000E-004
  CAR 
 bilayer_graphene_AA                     
     11.74328974    -22.34991591 3001     -1.22331524      1.00000000
    -22.350  0.0000E+00  0.0000E+00
    -22.339  0.0000E+00  0.0000E+00
    -22.327  0.0000E+00  0.0000E+00
    -22.316  0.0000E+00  0.0000E+00
    -22.304  0.0000E+00  0.0000E+00
    -22.293  0.0000E+00  0.0000E+00
    -22.282  0.0000E+00  0.0000E+00
    -22.270  0.0000E+00  0.0000E+00
    -22.259  0.0000E+00  0.0000E+00
    -22.248  0.0000E+00  0.0000E+00
    -22.236  0.0000E+00  0.0000E+00
    -22.225  0.0000E+00  0.0000E+00
    -22.214  0.0000E+00  0.0000E+00
    -22.202  0.0000E+00  0.0000E+00
    -22.191  0.0000E+00  0.0000E+00
    -22.179  0.0000E+00  0.0000E+00
    -22.168  0.0000E+00  0.0000E+00
    -22.157  0.0000E+00  0.0000E+00
    -22.145  0.0000E+00  0.0000E+00
    -22.134  0.0000E+00  0.0000E+00
    -22.123  0.0000E+00  0.0000E+00
    -22.111  0.0000E+00  0.0000E+00
    -22.100  0.0000E+00  0.0000E+00
    -22.089  0.0000E+00  0.0000E+00
    -22.077  0.0000E+00  0.0000E+00
    -22.066  0.0000E+00  0.0000E+00
    -22.054  0.0000E+00  0.0000E+00
    -22.043  0.0000E+00  0.0000E+00
    -22.032  0.0000E+00  0.0000E+00
    -22.020  0.0000E+00  0.0000E+00
    -22.009  0.0000E+00  0.0000E+00
    -21.998  0.0000E+00  0.0000E+00
    -21.986  0.0000E+00  0.0000E+00
    -21.975  0.0000E+00  0.0000E+00
    -21.964  0.0000E+00  0.0000E+00
    -21.952  0.0000E+00  0.0000E+00
    -21.941  0.0000E+00  0.0000E+00
    -21.929  0.0000E+00  0.0000E+00
    -21.918  0.0000E+00  0.0000E+00
    -21.907  0.0000E+00  0.0000E+00
    -21.895  0.0000E+00  0.0000E+00
    -21.884  0.0000E+00  0.0000E+00
    -21.873  0.0000E+00  0.0000E+00
    -21.861  0.0000E+00  0.0000E+00
    -21.850  0.0000E+00  0.0000E+00
    -21.839  0.0000E+00  0.0000E+00
    -21.827  0.0000E+00  0.0000E+00
    -21.816  0.0000E+00  0.0000E+00
    -21.804  0.0000E+00  0.0000E+00
    -21.793  0.0000E+00  0.0000E+00
    -21.782  0.0000E+00  0.0000E+00
    -21.770  0.0000E+00  0.0000E+00
    -21.759  0.0000E+00  0.0000E+00
    -21.748  0.0000E+00  0.0000E+00
    -21.736  0.0000E+00  0.0000E+00
    -21.725  0.0000E+00  0.0000E+00
    -21.714  0.0000E+00  0.0000E+00
    -21.702  0.0000E+00  0.0000E+00
    -21.691  0.0000E+00  0.0000E+00
    -21.679  0.0000E+00  0.0000E+00
    -21.668  0.0000E+00  0.0000E+00
    -21.657  0.0000E+00  0.0000E+00
    -21.645  0.0000E+00  0.0000E+00
    -21.634  0.0000E+00  0.0000E+00
    -21.623  0.0000E+00  0.0000E+00
    -21.611  0.0000E+00  0.0000E+00
    -21.600  0.0000E+00  0.0000E+00
    -21.589  0.0000E+00  0.0000E+00
    -21.577  0.0000E+00  0.0000E+00
    -21.566  0.0000E+00  0.0000E+00
    -21.554  0.0000E+00  0.0000E+00
    -21.543  0.0000E+00  0.0000E+00
    -21.532  0.0000E+00  0.0000E+00
    -21.520  0.0000E+00  0.0000E+00
    -21.509  0.0000E+00  0.0000E+00
    -21.498  0.0000E+00  0.0000E+00
    -21.486  0.0000E+00  0.0000E+00
    -21.475  0.0000E+00  0.0000E+00
    -21.463  0.0000E+00  0.0000E+00
    -21.452  0.0000E+00  0.0000E+00
    -21.441  0.0000E+00  0.0000E+00
    -21.429  0.0000E+00  0.0000E+00
    -21.418  0.0000E+00  0.0000E+00
    -21.407  0.0000E+00  0.0000E+00
    -21.395  0.0000E+00  0.0000E+00
    -21.384  0.0000E+00  0.0000E+00
    -21.373  0.0000E+00  0.0000E+00
    -21.361  0.0000E+00  0.0000E+00
    -21.350  0.0000E+00  0.0000E+00
    -21.338  0.0000E+00  0.0000E+00
    -21.327  0.0000E+00  0.0000E+00
    -21.316  0.0000E+00  0.0000E+00
    -21.304  0.0000E+00  0.0000E+00
    -21.293  0.0000E+00  0.0000E+00
    -21.282  0.0000E+00  0.0000E+00
    -21.270  0.0000E+00  0.0000E+00
    -21.259  0.0000E+00  0.0000E+00
    -21.248  0.0000E+00  0.0000E+00
    -21.236  0.0000E+00  0.0000E+00
    -21.225  0.0000E+00  0.0000E+00
    -21.213  0.0000E+00  0.0000E+00
    -21.202  0.0000E+00  0.0000E+00
    -21.191  0.0000E+00  0.0000E+00
    -21.179  0.0000E+00  0.0000E+00
    -21.168  0.0000E+00  0.0000E+00
    -21.157  0.0000E+00  0.0000E+00
    -21.145  0.0000E+00  0.0000E+00
    -21.134  0.0000E+00  0.0000E+00
    -21.123  0.0000E+00  0.0000E+00
    -21.111  0.0000E+00  0.0000E+00
    -21.100  0.0000E+00  0.0000E+00
    -21.088  0.0000E+00  0.0000E+00
    -21.077  0.0000E+00  0.0000E+00
    -21.066  0.0000E+00  0.0000E+00
    -21.054  0.0000E+00  0.0000E+00
    -21.043  0.0000E+00  0.0000E+00
    -21.032  0.0000E+00  0.0000E+00
    -21.020  0.0000E+00  0.0000E+00
    -21.009  0.0000E+00  0.0000E+00
    -20.998  0.0000E+00  0.0000E+00
    -20.986  0.0000E+00  0.0000E+00
    -20.975  0.0000E+00  0.0000E+00
    -20.963  0.0000E+00  0.0000E+00
    -20.952  0.0000E+00  0.0000E+00
    -20.941  0.0000E+00  0.0000E+00
    -20.929  0.0000E+00  0.0000E+00
    -20.918  0.0000E+00  0.0000E+00
    -20.907  0.0000E+00  0.0000E+00
    -20.895  0.0000E+00  0.0000E+00
    -20.884  0.0000E+00  0.0000E+00
    -20.873  0.0000E+00  0.0000E+00
    -20.861  0.0000E+00  0.0000E+00
    -20.850  0.1163E-13  0.1321E-15
    -20.838  0.3216E-09  0.3655E-11
    -20.827  0.7253E-06  0.8247E-08
    -20.816  0.1416E-03  0.1617E-05
    -20.804  0.2772E-02  0.3312E-04
    -20.793  0.8175E-02  0.1260E-03
    -20.782  0.7186E-02  0.2077E-03
    -20.770  0.1651E-02  0.2265E-03
    -20.759  0.2330E-02  0.2529E-03
    -20.748  0.2580E-01  0.5461E-03
    -20.736  0.5240E-01  0.1142E-02
    -20.725  0.3435E-01  0.1532E-02
    -20.713  0.4787E-02  0.1586E-02
    -20.702  0.7780E-04  0.1587E-02
    -20.691  0.1156E-06  0.1587E-02
    -20.679  0.2920E-09  0.1587E-02
    -20.668  0.1056E-05  0.1587E-02
    -20.657  0.3421E-03  0.1591E-02
    -20.645  0.1065E-01  0.1712E-02
    -20.634  0.4441E-01  0.2217E-02
    -20.623  0.4845E-01  0.2768E-02
    -20.611  0.1517E-01  0.2940E-02
    -20.600  0.1772E-02  0.2960E-02
    -20.588  0.1863E-01  0.3172E-02
    -20.577  0.5057E-01  0.3747E-02
    -20.566  0.4113E-01  0.4214E-02
    -20.554  0.8105E-02  0.4306E-02
    -20.543  0.2028E-03  0.4308E-02
    -20.532  0.4783E-06  0.4308E-02
    -20.520  0.9525E-10  0.4308E-02
    -20.509  0.1529E-14  0.4308E-02
    -20.498  0.0000E+00  0.4308E-02
    -20.486  0.0000E+00  0.4308E-02
    -20.475  0.3519E-13  0.4308E-02
    -20.463  0.1312E-08  0.4308E-02
    -20.452  0.3973E-05  0.4308E-02
    -20.441  0.1031E-02  0.4320E-02
    -20.429  0.2626E-01  0.4619E-02
    -20.418  0.9459E-01  0.5694E-02
    -20.407  0.9258E-01  0.6746E-02
    -20.395  0.2411E-01  0.7020E-02
    -20.384  0.8690E-03  0.7029E-02
    -20.373  0.3048E-05  0.7029E-02
    -20.361  0.9227E-09  0.7029E-02
    -20.350  0.8051E-07  0.7029E-02
    -20.338  0.6072E-04  0.7030E-02
    -20.327  0.4170E-02  0.7078E-02
    -20.316  0.3307E-01  0.7453E-02
    -20.304  0.5351E-01  0.8062E-02
    -20.293  0.2650E-01  0.8363E-02
    -20.282  0.2378E-02  0.8390E-02
    -20.270  0.2322E-04  0.8390E-02
    -20.259  0.2020E-07  0.8390E-02
    -20.248  0.1450E-11  0.8390E-02
    -20.236  0.6646E-17  0.8390E-02
    -20.225  0.0000E+00  0.8390E-02
    -20.213  0.1329E-16  0.8390E-02
    -20.202  0.2201E-11  0.8390E-02
    -20.191  0.2781E-07  0.8390E-02
    -20.179  0.2905E-04  0.8390E-02
    -20.168  0.2719E-02  0.8421E-02
    -20.157  0.2812E-01  0.8741E-02
    -20.145  0.5404E-01  0.9355E-02
    -20.134  0.3123E-01  0.9710E-02
    -20.122  0.3823E-02  0.9753E-02
    -20.111  0.1339E-01  0.9905E-02
    -20.100  0.7866E-01  0.1080E-01
    -20.088  0.1046E+00  0.1199E-01
    -20.077  0.4003E-01  0.1244E-01
    -20.066  0.2470E-02  0.1247E-01
    -20.054  0.1579E-04  0.1247E-01
    -20.043  0.8825E-08  0.1247E-01
    -20.032  0.4039E-12  0.1247E-01
    -20.020  0.0000E+00  0.1247E-01
    -20.009  0.0000E+00  0.1247E-01
    -19.997  0.1695E-15  0.1247E-01
    -19.986  0.1642E-10  0.1247E-01
    -19.975  0.1281E-06  0.1247E-01
    -19.963  0.8349E-04  0.1247E-01
    -19.952  0.5009E-02  0.1253E-01
    -19.941  0.3580E-01  0.1294E-01
    -19.929  0.5380E-01  0.1355E-01
    -19.918  0.2329E-01  0.1381E-01
    -19.907  0.1720E-02  0.1383E-01
    -19.895  0.1353E-04  0.1383E-01
    -19.884  0.9391E-08  0.1383E-01
    -19.872  0.5359E-12  0.1383E-01
    -19.861  0.0000E+00  0.1383E-01
    -19.850  0.0000E+00  0.1383E-01
    -19.838  0.1462E-15  0.1383E-01
    -19.827  0.1688E-10  0.1383E-01
    -19.816  0.1548E-06  0.1383E-01
    -19.804  0.1183E-03  0.1383E-01
    -19.793  0.8245E-02  0.1393E-01
    -19.782  0.6696E-01  0.1469E-01
    -19.770  0.1092E+00  0.1593E-01
    -19.759  0.5071E-01  0.1651E-01
    -19.747  0.4148E-02  0.1655E-01
    -19.736  0.3678E-04  0.1655E-01
    -19.725  0.2899E-07  0.1655E-01
    -19.713  0.7067E-08  0.1655E-01
    -19.702  0.1346E-04  0.1655E-01
    -19.691  0.2241E-02  0.1658E-01
    -19.679  0.3861E-01  0.1702E-01
    -19.668  0.1060E+00  0.1822E-01
    -19.657  0.7927E-01  0.1912E-01
    -19.645  0.1305E-01  0.1927E-01
    -19.634  0.2672E-03  0.1927E-01
    -19.622  0.5120E-06  0.1927E-01
    -19.611  0.8248E-10  0.1927E-01
    -19.600  0.1063E-14  0.1927E-01
    -19.588  0.0000E+00  0.1927E-01
    -19.577  0.0000E+00  0.1927E-01
    -19.566  0.0000E+00  0.1927E-01
    -19.554  0.0000E+00  0.1927E-01
    -19.543  0.0000E+00  0.1927E-01
    -19.532  0.0000E+00  0.1927E-01
    -19.520  0.2991E-16  0.1927E-01
    -19.509  0.4164E-11  0.1927E-01
    -19.497  0.4525E-07  0.1927E-01
    -19.486  0.4082E-04  0.1927E-01
    -19.475  0.3334E-02  0.1931E-01
    -19.463  0.3113E-01  0.1967E-01
    -19.452  0.5555E-01  0.2030E-01
    -19.441  0.2723E-01  0.2061E-01
    -19.429  0.2407E-02  0.2063E-01
    -19.418  0.2351E-04  0.2063E-01
    -19.407  0.2054E-07  0.2063E-01
    -19.395  0.3552E-08  0.2063E-01
    -19.384  0.6758E-05  0.2063E-01
    -19.372  0.1125E-02  0.2065E-01
    -19.361  0.1947E-01  0.2087E-01
    -19.350  0.5380E-01  0.2148E-01
    -19.338  0.3913E-01  0.2193E-01
    -19.327  0.6174E-02  0.2200E-01
    -19.316  0.7568E-02  0.2208E-01
    -19.304  0.6538E-01  0.2282E-01
    -19.293  0.1114E+00  0.2409E-01
    -19.282  0.5098E-01  0.2467E-01
    -19.270  0.4080E-02  0.2472E-01
    -19.259  0.3563E-04  0.2472E-01
    -19.247  0.2770E-07  0.2472E-01
    -19.236  0.1774E-11  0.2472E-01
    -19.225  0.0000E+00  0.2472E-01
    -19.213  0.0000E+00  0.2472E-01
    -19.202  0.1462E-15  0.2472E-01
    -19.191  0.1687E-10  0.2472E-01
    -19.179  0.1548E-06  0.2472E-01
    -19.168  0.1184E-03  0.2472E-01
    -19.157  0.8293E-02  0.2481E-01
    -19.145  0.6849E-01  0.2559E-01
    -19.134  0.1115E+00  0.2686E-01
    -19.122  0.4759E-01  0.2740E-01
    -19.111  0.3457E-02  0.2744E-01
    -19.100  0.2708E-04  0.2744E-01
    -19.088  0.1879E-07  0.2744E-01
    -19.077  0.1072E-11  0.2744E-01
    -19.066  0.0000E+00  0.2744E-01
    -19.054  0.0000E+00  0.2744E-01
    -19.043  0.0000E+00  0.2744E-01
    -19.032  0.0000E+00  0.2744E-01
    -19.020  0.0000E+00  0.2744E-01
    -19.009  0.0000E+00  0.2744E-01
    -18.997  0.0000E+00  0.2744E-01
    -18.986  0.0000E+00  0.2744E-01
    -18.975  0.0000E+00  0.2744E-01
    -18.963  0.0000E+00  0.2744E-01
    -18.952  0.0000E+00  0.2744E-01
    -18.941  0.6646E-17  0.2744E-01
    -18.929  0.1095E-11  0.2744E-01
    -18.918  0.1628E-07  0.2744E-01
    -18.907  0.1998E-04  0.2744E-01
    -18.895  0.2192E-02  0.2746E-01
    -18.884  0.2659E-01  0.2776E-01
    -18.872  0.5673E-01  0.2841E-01
    -18.861  0.3100E-01  0.2876E-01
    -18.850  0.3567E-02  0.2880E-01
    -18.838  0.1659E-01  0.2899E-01
    -18.827  0.8850E-01  0.3000E-01
    -18.816  0.1037E+00  0.3117E-01
    -18.804  0.2910E-01  0.3151E-01
    -18.793  0.1203E-02  0.3152E-01
    -18.781  0.5007E-05  0.3152E-01
    -18.770  0.1814E-08  0.3152E-01
    -18.759  0.1343E-06  0.3152E-01
    -18.747  0.1074E-03  0.3152E-01
    -18.736  0.7872E-02  0.3161E-01
    -18.725  0.6802E-01  0.3238E-01
    -18.713  0.1131E+00  0.3367E-01
    -18.702  0.4702E-01  0.3420E-01
    -18.691  0.3285E-02  0.3424E-01
    -18.679  0.2480E-04  0.3424E-01
    -18.668  0.1659E-07  0.3424E-01
    -18.656  0.9123E-12  0.3424E-01
    -18.645  0.0000E+00  0.3424E-01
    -18.634  0.0000E+00  0.3424E-01
    -18.622  0.0000E+00  0.3424E-01
    -18.611  0.0000E+00  0.3424E-01
    -18.600  0.0000E+00  0.3424E-01
    -18.588  0.0000E+00  0.3424E-01
    -18.577  0.0000E+00  0.3424E-01
    -18.566  0.9208E-13  0.3424E-01
    -18.554  0.2790E-08  0.3424E-01
    -18.543  0.6889E-05  0.3424E-01
    -18.531  0.1477E-02  0.3426E-01
    -18.520  0.3242E-01  0.3463E-01
    -18.509  0.1074E+00  0.3585E-01
    -18.497  0.8410E-01  0.3680E-01
    -18.486  0.1373E-01  0.3696E-01
    -18.475  0.2860E-03  0.3696E-01
    -18.463  0.5641E-06  0.3696E-01
    -18.452  0.9383E-10  0.3696E-01
    -18.441  0.1249E-14  0.3696E-01
    -18.429  0.0000E+00  0.3696E-01
    -18.418  0.0000E+00  0.3696E-01
    -18.406  0.0000E+00  0.3696E-01
    -18.395  0.0000E+00  0.3696E-01
    -18.384  0.0000E+00  0.3696E-01
    -18.372  0.0000E+00  0.3696E-01
    -18.361  0.0000E+00  0.3696E-01
    -18.350  0.0000E+00  0.3696E-01
    -18.338  0.0000E+00  0.3696E-01
    -18.327  0.0000E+00  0.3696E-01
    -18.316  0.0000E+00  0.3696E-01
    -18.304  0.3094E-12  0.3696E-01
    -18.293  0.6143E-08  0.3696E-01
    -18.281  0.1002E-04  0.3696E-01
    -18.270  0.1446E-02  0.3698E-01
    -18.259  0.2246E-01  0.3723E-01
    -18.247  0.5728E-01  0.3788E-01
    -18.236  0.3454E-01  0.3828E-01
    -18.225  0.4196E-02  0.3832E-01
    -18.213  0.1566E-01  0.3850E-01
    -18.202  0.1151E+00  0.3981E-01
    -18.191  0.1678E+00  0.4172E-01
    -18.179  0.5730E-01  0.4237E-01
    -18.168  0.3106E-02  0.4240E-01
    -18.156  0.1798E-04  0.4240E-01
    -18.145  0.9302E-08  0.4240E-01
    -18.134  0.4011E-12  0.4240E-01
    -18.122  0.0000E+00  0.4240E-01
    -18.111  0.0000E+00  0.4240E-01
    -18.100  0.1439E-13  0.4240E-01
    -18.088  0.6492E-09  0.4240E-01
    -18.077  0.2374E-05  0.4240E-01
    -18.066  0.7441E-03  0.4241E-01
    -18.054  0.2312E-01  0.4267E-01
    -18.043  0.1006E+00  0.4382E-01
    -18.031  0.9528E-01  0.4490E-01
    -18.020  0.1916E-01  0.4512E-01
    -18.009  0.5212E-03  0.4512E-01
    -17.997  0.1382E-05  0.4512E-01
    -17.986  0.3123E-09  0.4512E-01
    -17.975  0.5702E-14  0.4512E-01
    -17.963  0.0000E+00  0.4512E-01
    -17.952  0.0000E+00  0.4512E-01
    -17.941  0.0000E+00  0.4512E-01
    -17.929  0.0000E+00  0.4512E-01
    -17.918  0.0000E+00  0.4512E-01
    -17.906  0.0000E+00  0.4512E-01
    -17.895  0.0000E+00  0.4512E-01
    -17.884  0.0000E+00  0.4512E-01
    -17.872  0.0000E+00  0.4512E-01
    -17.861  0.0000E+00  0.4512E-01
    -17.850  0.0000E+00  0.4512E-01
    -17.838  0.2323E-12  0.4512E-01
    -17.827  0.5744E-08  0.4512E-01
    -17.816  0.1162E-04  0.4512E-01
    -17.804  0.2066E-02  0.4515E-01
    -17.793  0.3877E-01  0.4559E-01
    -17.781  0.1139E+00  0.4688E-01
    -17.770  0.7512E-01  0.4774E-01
    -17.759  0.9415E-02  0.4784E-01
    -17.747  0.1438E-03  0.4785E-01
    -17.736  0.2046E-06  0.4785E-01
    -17.725  0.2437E-10  0.4785E-01
    -17.713  0.2392E-15  0.4785E-01
    -17.702  0.0000E+00  0.4785E-01
    -17.691  0.0000E+00  0.4785E-01
    -17.679  0.0000E+00  0.4785E-01
    -17.668  0.0000E+00  0.4785E-01
    -17.656  0.0000E+00  0.4785E-01
    -17.645  0.0000E+00  0.4785E-01
    -17.634  0.6662E-12  0.4785E-01
    -17.622  0.1301E-07  0.4785E-01
    -17.611  0.2090E-04  0.4785E-01
    -17.600  0.2984E-02  0.4788E-01
    -17.588  0.4639E-01  0.4841E-01
    -17.577  0.1174E+00  0.4974E-01
    -17.566  0.6588E-01  0.5049E-01
    -17.554  0.6640E-02  0.5057E-01
    -17.543  0.7851E-04  0.5057E-01
    -17.531  0.8511E-07  0.5057E-01
    -17.520  0.9009E-08  0.5057E-01
    -17.509  0.1606E-04  0.5057E-01
    -17.497  0.2536E-02  0.5060E-01
    -17.486  0.4312E-01  0.5109E-01
    -17.475  0.1169E+00  0.5241E-01
    -17.463  0.6929E-01  0.5320E-01
    -17.452  0.7528E-02  0.5329E-01
    -17.440  0.4873E-02  0.5334E-01
    -17.429  0.3823E-01  0.5378E-01
    -17.418  0.5720E-01  0.5443E-01
    -17.406  0.1851E-01  0.5464E-01
    -17.395  0.9216E-03  0.5465E-01
    -17.384  0.4829E-05  0.5465E-01
    -17.372  0.2220E-08  0.5465E-01
    -17.361  0.8344E-13  0.5465E-01
    -17.350  0.0000E+00  0.5465E-01
    -17.338  0.0000E+00  0.5465E-01
    -17.327  0.5680E-12  0.5465E-01
    -17.315  0.1150E-07  0.5465E-01
    -17.304  0.1915E-04  0.5465E-01
    -17.293  0.2834E-02  0.5468E-01
    -17.281  0.4567E-01  0.5520E-01
    -17.270  0.1183E+00  0.5654E-01
    -17.259  0.6598E-01  0.5729E-01
    -17.247  0.6516E-02  0.5737E-01
    -17.236  0.7557E-04  0.5737E-01
    -17.225  0.8046E-07  0.5737E-01
    -17.213  0.7129E-11  0.5737E-01
    -17.202  0.5317E-16  0.5737E-01
    -17.190  0.0000E+00  0.5737E-01
    -17.179  0.0000E+00  0.5737E-01
    -17.168  0.0000E+00  0.5737E-01
    -17.156  0.0000E+00  0.5737E-01
    -17.145  0.0000E+00  0.5737E-01
    -17.134  0.0000E+00  0.5737E-01
    -17.122  0.0000E+00  0.5737E-01
    -17.111  0.0000E+00  0.5737E-01
    -17.100  0.0000E+00  0.5737E-01
    -17.088  0.0000E+00  0.5737E-01
    -17.077  0.0000E+00  0.5737E-01
    -17.065  0.0000E+00  0.5737E-01
    -17.054  0.0000E+00  0.5737E-01
    -17.043  0.0000E+00  0.5737E-01
    -17.031  0.2592E-15  0.5737E-01
    -17.020  0.2683E-10  0.5737E-01
    -17.009  0.2202E-06  0.5737E-01
    -16.997  0.1517E-03  0.5737E-01
    -16.986  0.9825E-02  0.5748E-01
    -16.975  0.7844E-01  0.5837E-01
    -16.963  0.1148E+00  0.5968E-01
    -16.952  0.3468E-01  0.6007E-01
    -16.940  0.1576E-02  0.6009E-01
    -16.929  0.7503E-05  0.6009E-01
    -16.918  0.3318E-08  0.6009E-01
    -16.906  0.7980E-06  0.6009E-01
    -16.895  0.2885E-03  0.6009E-01
    -16.884  0.1035E-01  0.6021E-01
    -16.872  0.5079E-01  0.6079E-01
    -16.861  0.4892E-01  0.6134E-01
    -16.850  0.9212E-02  0.6145E-01
    -16.838  0.6429E-02  0.6152E-01
    -16.827  0.6554E-01  0.6227E-01
    -16.815  0.1198E+00  0.6363E-01
    -16.804  0.4515E-01  0.6414E-01
    -16.793  0.2694E-02  0.6417E-01
    -16.781  0.1751E-04  0.6417E-01
    -16.770  0.1013E-07  0.6417E-01
    -16.759  0.4822E-12  0.6417E-01
    -16.747  0.0000E+00  0.6417E-01
    -16.736  0.6646E-17  0.6417E-01
    -16.725  0.1456E-11  0.6417E-01
    -16.713  0.2381E-07  0.6417E-01
    -16.702  0.3219E-04  0.6417E-01
    -16.690  0.3929E-02  0.6422E-01
    -16.679  0.5396E-01  0.6483E-01
    -16.668  0.1214E+00  0.6621E-01
    -16.656  0.5581E-01  0.6684E-01
    -16.645  0.4237E-02  0.6689E-01
    -16.634  0.3643E-04  0.6689E-01
    -16.622  0.2848E-07  0.6689E-01
    -16.611  0.5716E-06  0.6689E-01
    -16.600  0.2316E-03  0.6690E-01
    -16.588  0.9239E-02  0.6700E-01
    -16.577  0.4948E-01  0.6756E-01
    -16.565  0.5057E-01  0.6814E-01
    -16.554  0.9926E-02  0.6825E-01
    -16.543  0.2644E-03  0.6825E-01
    -16.531  0.6977E-06  0.6825E-01
    -16.520  0.1578E-09  0.6825E-01
    -16.509  0.2884E-14  0.6825E-01
    -16.497  0.0000E+00  0.6825E-01
    -16.486  0.6958E-14  0.6825E-01
    -16.475  0.3659E-09  0.6825E-01
    -16.463  0.1557E-05  0.6825E-01
    -16.452  0.5694E-03  0.6826E-01
    -16.440  0.2073E-01  0.6850E-01
    -16.429  0.1029E+00  0.6967E-01
    -16.418  0.9746E-01  0.7077E-01
    -16.406  0.1733E-01  0.7097E-01
    -16.395  0.4095E-03  0.7098E-01
    -16.384  0.9490E-06  0.7098E-01
    -16.372  0.1878E-09  0.7098E-01
    -16.361  0.3004E-14  0.7098E-01
    -16.350  0.0000E+00  0.7098E-01
    -16.338  0.0000E+00  0.7098E-01
    -16.327  0.0000E+00  0.7098E-01
    -16.315  0.0000E+00  0.7098E-01
    -16.304  0.0000E+00  0.7098E-01
    -16.293  0.0000E+00  0.7098E-01
    -16.281  0.0000E+00  0.7098E-01
    -16.270  0.0000E+00  0.7098E-01
    -16.259  0.0000E+00  0.7098E-01
    -16.247  0.0000E+00  0.7098E-01
    -16.236  0.0000E+00  0.7098E-01
    -16.225  0.0000E+00  0.7098E-01
    -16.213  0.0000E+00  0.7098E-01
    -16.202  0.0000E+00  0.7098E-01
    -16.190  0.0000E+00  0.7098E-01
    -16.179  0.0000E+00  0.7098E-01
    -16.168  0.0000E+00  0.7098E-01
    -16.156  0.1131E-12  0.7098E-01
    -16.145  0.3279E-08  0.7098E-01
    -16.134  0.7779E-05  0.7098E-01
    -16.122  0.1626E-02  0.7099E-01
    -16.111  0.3606E-01  0.7140E-01
    -16.099  0.1254E+00  0.7283E-01
    -16.088  0.1464E+00  0.7449E-01
    -16.077  0.1284E+00  0.7595E-01
    -16.065  0.3900E-01  0.7640E-01
    -16.054  0.1889E-02  0.7642E-01
    -16.043  0.9824E-05  0.7642E-01
    -16.031  0.2814E-07  0.7642E-01
    -16.020  0.3209E-04  0.7642E-01
    -16.009  0.3960E-02  0.7646E-01
    -15.997  0.5528E-01  0.7709E-01
    -15.986  0.1235E+00  0.7849E-01
    -15.974  0.5301E-01  0.7910E-01
    -15.963  0.3611E-02  0.7914E-01
    -15.952  0.2762E-04  0.7914E-01
    -15.940  0.1912E-07  0.7914E-01
    -15.929  0.1095E-11  0.7914E-01
    -15.918  0.0000E+00  0.7914E-01
    -15.906  0.0000E+00  0.7914E-01
    -15.895  0.0000E+00  0.7914E-01
    -15.884  0.0000E+00  0.7914E-01
    -15.872  0.2559E-14  0.7914E-01
    -15.861  0.1654E-09  0.7914E-01
    -15.849  0.8645E-06  0.7914E-01
    -15.838  0.3865E-03  0.7914E-01
    -15.827  0.1701E-01  0.7934E-01
    -15.815  0.9878E-01  0.8046E-01
    -15.804  0.1032E+00  0.8163E-01
    -15.793  0.1958E-01  0.8185E-01
    -15.781  0.4995E-03  0.8186E-01
    -15.770  0.1305E-05  0.8186E-01
    -15.759  0.3521E-04  0.8186E-01
    -15.747  0.3189E-02  0.8190E-01
    -15.736  0.3413E-01  0.8228E-01
    -15.724  0.6077E-01  0.8297E-01
    -15.713  0.2054E-01  0.8321E-01
    -15.702  0.1048E-02  0.8322E-01
    -15.690  0.5771E-05  0.8322E-01
    -15.679  0.2825E-08  0.8322E-01
    -15.668  0.1136E-12  0.8322E-01
    -15.656  0.0000E+00  0.8322E-01
    -15.645  0.8272E-13  0.8322E-01
    -15.634  0.2569E-08  0.8322E-01
    -15.622  0.6526E-05  0.8322E-01
    -15.611  0.1461E-02  0.8324E-01
    -15.599  0.3453E-01  0.8363E-01
    -15.588  0.1190E+00  0.8498E-01
    -15.577  0.7615E-01  0.8585E-01
    -15.565  0.8205E-02  0.8594E-01
    -15.554  0.1071E-03  0.8594E-01
    -15.543  0.1315E-06  0.8594E-01
    -15.531  0.3042E-10  0.8594E-01
    -15.520  0.1311E-06  0.8594E-01
    -15.509  0.8614E-04  0.8594E-01
    -15.497  0.5408E-02  0.8600E-01
    -15.486  0.4235E-01  0.8648E-01
    -15.474  0.5716E-01  0.8713E-01
    -15.463  0.1421E-01  0.8730E-01
    -15.452  0.4998E-03  0.8730E-01
    -15.440  0.1815E-05  0.8730E-01
    -15.429  0.5754E-09  0.8730E-01
    -15.418  0.1486E-13  0.8730E-01
    -15.406  0.0000E+00  0.8730E-01
    -15.395  0.0000E+00  0.8730E-01
    -15.384  0.0000E+00  0.8730E-01
    -15.372  0.0000E+00  0.8730E-01
    -15.361  0.0000E+00  0.8730E-01
    -15.349  0.0000E+00  0.8730E-01
    -15.338  0.3001E-13  0.8730E-01
    -15.327  0.9996E-09  0.8730E-01
    -15.315  0.2724E-05  0.8730E-01
    -15.304  0.6543E-03  0.8731E-01
    -15.293  0.1655E-01  0.8750E-01
    -15.281  0.5978E-01  0.8818E-01
    -15.270  0.3967E-01  0.8863E-01
    -15.259  0.3394E-01  0.8901E-01
    -15.247  0.1172E+00  0.9034E-01
    -15.236  0.8179E-01  0.9127E-01
    -15.224  0.1134E-01  0.9140E-01
    -15.213  0.2758E-01  0.9172E-01
    -15.202  0.6263E-01  0.9243E-01
    -15.190  0.2814E-01  0.9275E-01
    -15.179  0.4321E-01  0.9324E-01
    -15.168  0.1238E+00  0.9465E-01
    -15.156  0.6634E-01  0.9540E-01
    -15.145  0.5676E-02  0.9546E-01
    -15.134  0.5680E-04  0.9546E-01
    -15.122  0.5271E-07  0.9546E-01
    -15.111  0.4086E-11  0.9546E-01
    -15.099  0.2658E-16  0.9546E-01
    -15.088  0.0000E+00  0.9546E-01
    -15.077  0.0000E+00  0.9546E-01
    -15.065  0.0000E+00  0.9546E-01
    -15.054  0.0000E+00  0.9546E-01
    -15.043  0.0000E+00  0.9546E-01
    -15.031  0.0000E+00  0.9546E-01
    -15.020  0.0000E+00  0.9546E-01
    -15.009  0.0000E+00  0.9546E-01
    -14.997  0.0000E+00  0.9546E-01
    -14.986  0.0000E+00  0.9546E-01
    -14.974  0.0000E+00  0.9546E-01
    -14.963  0.0000E+00  0.9546E-01
    -14.952  0.0000E+00  0.9546E-01
    -14.940  0.0000E+00  0.9546E-01
    -14.929  0.0000E+00  0.9546E-01
    -14.918  0.0000E+00  0.9546E-01
    -14.906  0.0000E+00  0.9546E-01
    -14.895  0.0000E+00  0.9546E-01
    -14.884  0.0000E+00  0.9546E-01
    -14.872  0.0000E+00  0.9546E-01
    -14.861  0.0000E+00  0.9546E-01
    -14.849  0.0000E+00  0.9546E-01
    -14.838  0.0000E+00  0.9546E-01
    -14.827  0.0000E+00  0.9546E-01
    -14.815  0.0000E+00  0.9546E-01
    -14.804  0.0000E+00  0.9546E-01
    -14.793  0.0000E+00  0.9546E-01
    -14.781  0.0000E+00  0.9546E-01
    -14.770  0.0000E+00  0.9546E-01
    -14.758  0.0000E+00  0.9546E-01
    -14.747  0.0000E+00  0.9546E-01
    -14.736  0.0000E+00  0.9546E-01
    -14.724  0.0000E+00  0.9546E-01
    -14.713  0.1233E-14  0.9546E-01
    -14.702  0.8042E-10  0.9546E-01
    -14.690  0.4250E-06  0.9546E-01
    -14.679  0.1934E-03  0.9547E-01
    -14.668  0.8759E-02  0.9557E-01
    -14.656  0.5160E-01  0.9615E-01
    -14.645  0.5070E-01  0.9673E-01
    -14.633  0.8284E-02  0.9682E-01
    -14.622  0.1750E-03  0.9683E-01
    -14.611  0.3662E-06  0.9683E-01
    -14.599  0.6590E-10  0.9683E-01
    -14.588  0.9570E-15  0.9683E-01
    -14.577  0.0000E+00  0.9683E-01
    -14.565  0.0000E+00  0.9683E-01
    -14.554  0.1329E-16  0.9683E-01
    -14.543  0.2364E-11  0.9683E-01
    -14.531  0.3471E-07  0.9683E-01
    -14.520  0.4259E-04  0.9683E-01
    -14.508  0.4841E-02  0.9688E-01
    -14.497  0.6340E-01  0.9760E-01
    -14.486  0.1266E+00  0.9904E-01
    -14.474  0.5291E-01  0.9964E-01
    -14.463  0.5673E-01  0.1003E+00
    -14.452  0.4784E-01  0.1008E+00
    -14.440  0.6689E-02  0.1009E+00
    -14.429  0.1173E-03  0.1009E+00
    -14.418  0.2015E-06  0.1009E+00
    -14.406  0.2963E-10  0.1009E+00
    -14.395  0.3522E-15  0.1009E+00
    -14.383  0.0000E+00  0.1009E+00
    -14.372  0.0000E+00  0.1009E+00
    -14.361  0.0000E+00  0.1009E+00
    -14.349  0.0000E+00  0.1009E+00
    -14.338  0.0000E+00  0.1009E+00
    -14.327  0.3323E-17  0.1009E+00
    -14.315  0.5389E-12  0.1009E+00
    -14.304  0.9485E-08  0.1009E+00
    -14.293  0.1391E-04  0.1009E+00
    -14.281  0.1875E-02  0.1009E+00
    -14.270  0.2854E-01  0.1013E+00
    -14.258  0.6410E-01  0.1020E+00
    -14.247  0.2390E-01  0.1023E+00
    -14.236  0.1285E-02  0.1023E+00
    -14.224  0.2947E-04  0.1023E+00
    -14.213  0.2488E-02  0.1023E+00
    -14.202  0.3257E-01  0.1027E+00
    -14.190  0.6348E-01  0.1034E+00
    -14.179  0.2026E-01  0.1036E+00
    -14.168  0.9071E-03  0.1036E+00
    -14.156  0.1584E-03  0.1036E+00
    -14.145  0.1055E-01  0.1037E+00
    -14.133  0.8844E-01  0.1048E+00
    -14.122  0.1153E+00  0.1061E+00
    -14.111  0.2431E-01  0.1063E+00
    -14.099  0.6797E-03  0.1063E+00
    -14.088  0.1946E-05  0.1063E+00
    -14.077  0.4877E-09  0.1063E+00
    -14.065  0.9982E-14  0.1063E+00
    -14.054  0.0000E+00  0.1063E+00
    -14.043  0.0000E+00  0.1063E+00
    -14.031  0.0000E+00  0.1063E+00
    -14.020  0.0000E+00  0.1063E+00
    -14.008  0.0000E+00  0.1063E+00
    -13.997  0.0000E+00  0.1063E+00
    -13.986  0.0000E+00  0.1063E+00
    -13.974  0.0000E+00  0.1063E+00
    -13.963  0.0000E+00  0.1063E+00
    -13.952  0.0000E+00  0.1063E+00
    -13.940  0.0000E+00  0.1063E+00
    -13.929  0.0000E+00  0.1063E+00
    -13.918  0.0000E+00  0.1063E+00
    -13.906  0.0000E+00  0.1063E+00
    -13.895  0.2215E-17  0.1063E+00
    -13.883  0.3960E-12  0.1063E+00
    -13.872  0.6826E-08  0.1063E+00
    -13.861  0.9829E-05  0.1063E+00
    -13.849  0.1307E-02  0.1064E+00
    -13.838  0.1963E-01  0.1066E+00
    -13.827  0.4292E-01  0.1071E+00
    -13.815  0.1519E-01  0.1072E+00
    -13.804  0.7586E-03  0.1073E+00
    -13.793  0.5513E-04  0.1073E+00
    -13.781  0.6375E-02  0.1073E+00
    -13.770  0.1003E+00  0.1085E+00
    -13.758  0.2678E+00  0.1115E+00
    -13.747  0.1758E+00  0.1135E+00
    -13.736  0.4501E-01  0.1140E+00
    -13.724  0.3283E-02  0.1141E+00
    -13.713  0.3278E-04  0.1141E+00
    -13.702  0.3150E-07  0.1141E+00
    -13.690  0.2559E-11  0.1141E+00
    -13.679  0.1329E-16  0.1141E+00
    -13.668  0.0000E+00  0.1141E+00
    -13.656  0.0000E+00  0.1141E+00
    -13.645  0.0000E+00  0.1141E+00
    -13.633  0.0000E+00  0.1141E+00
    -13.622  0.0000E+00  0.1141E+00
    -13.611  0.0000E+00  0.1141E+00
    -13.599  0.0000E+00  0.1141E+00
    -13.588  0.0000E+00  0.1141E+00
    -13.577  0.3589E-15  0.1141E+00
    -13.565  0.3456E-10  0.1141E+00
    -13.554  0.2695E-06  0.1141E+00
    -13.543  0.1801E-03  0.1141E+00
    -13.531  0.1172E-01  0.1142E+00
    -13.520  0.9323E-01  0.1153E+00
    -13.508  0.1126E+00  0.1165E+00
    -13.497  0.2118E-01  0.1168E+00
    -13.486  0.5130E-03  0.1168E+00
    -13.474  0.1259E-05  0.1168E+00
    -13.463  0.2697E-09  0.1168E+00
    -13.452  0.6283E-09  0.1168E+00
    -13.440  0.2360E-05  0.1168E+00
    -13.429  0.7823E-03  0.1168E+00
    -13.417  0.2676E-01  0.1171E+00
    -13.406  0.1198E+00  0.1185E+00
    -13.395  0.8335E-01  0.1194E+00
    -13.383  0.8595E-02  0.1195E+00
    -13.372  0.1053E-03  0.1195E+00
    -13.361  0.1236E-06  0.1195E+00
    -13.349  0.1234E-10  0.1195E+00
    -13.338  0.1063E-15  0.1195E+00
    -13.327  0.0000E+00  0.1195E+00
    -13.315  0.6373E-14  0.1195E+00
    -13.304  0.2966E-09  0.1195E+00
    -13.292  0.1130E-05  0.1195E+00
    -13.281  0.3798E-03  0.1195E+00
    -13.270  0.1315E-01  0.1197E+00
    -13.258  0.5962E-01  0.1203E+00
    -13.247  0.4209E-01  0.1208E+00
    -13.236  0.4426E-02  0.1209E+00
    -13.224  0.5546E-04  0.1209E+00
    -13.213  0.6668E-07  0.1209E+00
    -13.202  0.6824E-11  0.1209E+00
    -13.190  0.3192E-11  0.1209E+00
    -13.179  0.4396E-07  0.1209E+00
    -13.167  0.5106E-04  0.1209E+00
    -13.156  0.5574E-02  0.1209E+00
    -13.145  0.7054E-01  0.1217E+00
    -13.133  0.1506E+00  0.1234E+00
    -13.122  0.1531E+00  0.1252E+00
    -13.111  0.8919E-01  0.1262E+00
    -13.099  0.9667E-02  0.1263E+00
    -13.088  0.1267E-03  0.1263E+00
    -13.077  0.1602E-06  0.1263E+00
    -13.065  0.1732E-10  0.1263E+00
    -13.054  0.1595E-15  0.1263E+00
    -13.042  0.0000E+00  0.1263E+00
    -13.031  0.0000E+00  0.1263E+00
    -13.020  0.0000E+00  0.1263E+00
    -13.008  0.0000E+00  0.1263E+00
    -12.997  0.0000E+00  0.1263E+00
    -12.986  0.0000E+00  0.1263E+00
    -12.974  0.0000E+00  0.1263E+00