       N       E                     dE             d eps       ncg     rms          rms(c)
DAV:   1     0.127731963597E+03    0.12773E+03   -0.80793E+03  1152   0.149E+03
DAV:   2    -0.251609759909E+02   -0.15289E+03   -0.13891E+03  1880   0.243E+02
DAV:   3    -0.392158738004E+02   -0.14055E+02   -0.13501E+02  1440   0.841E+01
DAV:   4    -0.395235344650E+02   -0.30766E+00   -0.30697E+00  1460   0.153E+01
DAV:   5    -0.395325200809E+02   -0.89856E-02   -0.89643E-02  1472   0.254E+00    0.902E+00
DAV:   6    -0.376524314073E+02    0.18801E+01   -0.17244E+00  1364   0.919E+00    0.529E+00
DAV:   7    -0.369383876462E+02    0.71404E+00   -0.23304E+00  1412   0.106E+01    0.138E+00
DAV:   8    -0.369385596207E+02   -0.17197E-03   -0.69062E-02  1436   0.189E+00    0.133E-01
DAV:   9    -0.369373857262E+02    0.11739E-02   -0.18363E-03  1464   0.351E-01    0.934E-02
DAV:  10    -0.369334156902E+02    0.39700E-02   -0.24621E-03  1356   0.329E-01    0.687E-02
DAV:  11    -0.369324286523E+02    0.98704E-03   -0.46856E-04  1292   0.151E-01    0.553E-02
DAV:  12    -0.369294746195E+02    0.29540E-02   -0.16381E-03  1208   0.236E-01    0.102E-01
DAV:  13    -0.369275911929E+02    0.18834E-02   -0.58908E-04  1316   0.167E-01    0.398E-02
DAV:  14    -0.369286418716E+02   -0.10507E-02   -0.31598E-04  1312   0.137E-01    0.381E-02
DAV:  15    -0.369290472547E+02   -0.40538E-03   -0.34104E-05  1340   0.538E-02    0.156E-02
DAV:  16    -0.369298555957E+02   -0.80834E-03   -0.12582E-04  1268   0.598E-02    0.153E-02
DAV:  17    -0.369299474076E+02   -0.91812E-04   -0.10599E-05  1320   0.290E-02    0.535E-03
DAV:  18    -0.369299633075E+02   -0.15900E-04   -0.18916E-06  1308   0.159E-02    0.198E-03
DAV:  19    -0.369299672442E+02   -0.39367E-05   -0.47013E-07  1344   0.611E-03    0.616E-04
DAV:  20    -0.369299682155E+02   -0.97127E-06   -0.93105E-08  1348   0.232E-03    0.334E-04
DAV:  21    -0.369299684358E+02   -0.22031E-06   -0.12299E-08  1064   0.764E-04    0.120E-04
DAV:  22    -0.369299684951E+02   -0.59261E-07   -0.20085E-09   964   0.309E-04    0.576E-05
DAV:  23    -0.369299685562E+02   -0.61119E-07   -0.28997E-09   916   0.263E-04    0.306E-05
DAV:  24    -0.369299685720E+02   -0.15805E-07   -0.45570E-10   872   0.125E-04    0.749E-06
DAV:  25    -0.369299685805E+02   -0.85420E-08   -0.16402E-10   908   0.672E-05
   1 F= -.36929969E+02 E0= -.36929966E+02  d E =-.369300E+02
       N       E                     dE             d eps       ncg     rms          rms(c)
DAV:   1    -0.369299687222E+02   -0.15022E-06   -0.18180E-05  1272   0.373E-02    0.756E-04
DAV:   2    -0.369299687293E+02   -0.71143E-08   -0.21662E-07  1308   0.446E-03    0.525E-04
DAV:   3    -0.369299687253E+02    0.40598E-08   -0.20087E-08  1016   0.151E-03    0.102E-04
DAV:   4    -0.369299687260E+02   -0.68940E-09   -0.62376E-09   904   0.656E-04    0.464E-05
DAV:   5    -0.369299687262E+02   -0.25557E-09   -0.90345E-10   932   0.283E-04
   2 F= -.36929969E+02 E0= -.36929966E+02  d E =-.145676E-06
       N       E                     dE             d eps       ncg     rms          rms(c)
DAV:   1    -0.369299691273E+02   -0.40132E-06   -0.16378E-04  1168   0.112E-01    0.228E-03
DAV:   2    -0.369299691756E+02   -0.48268E-07   -0.19067E-06  1312   0.133E-02    0.157E-03
DAV:   3    -0.369299691412E+02    0.34398E-07   -0.18802E-07  1372   0.447E-03    0.305E-04
DAV:   4    -0.369299691460E+02   -0.48394E-08   -0.53280E-08  1288   0.174E-03    0.150E-04
DAV:   5    -0.369299691466E+02   -0.58185E-09   -0.11607E-09   916   0.542E-04
   3 F= -.36929969E+02 E0= -.36929966E+02  d E =-.566031E-06
       N       E                     dE             d eps       ncg     rms          rms(c)
DAV:   1    -0.369299698747E+02   -0.72869E-06   -0.65490E-04  1160   0.223E-01    0.455E-03
DAV:   2    -0.369299701047E+02   -0.22998E-06   -0.78758E-06  1296   0.266E-02    0.315E-03
DAV:   3    -0.369299699644E+02    0.14031E-06   -0.73816E-07  1364   0.881E-03    0.661E-04
DAV:   4    -0.369299699846E+02   -0.20219E-07   -0.20343E-07  1320   0.342E-03    0.322E-04
DAV:   5    -0.369299699862E+02   -0.15903E-08   -0.46642E-09   964   0.114E-03
   4 F= -.36929970E+02 E0= -.36929967E+02  d E =-.140562E-05
       N       E                     dE             d eps       ncg     rms          rms(c)
DAV:   1    -0.369299711961E+02   -0.12116E-05   -0.26196E-03  1152   0.446E-01    0.910E-03
DAV:   2    -0.369299721441E+02   -0.94797E-06   -0.31660E-05  1280   0.531E-02    0.630E-03
DAV:   3    -0.369299715822E+02    0.56192E-06   -0.29661E-06  1380   0.176E-02    0.132E-03
DAV:   4    -0.369299716583E+02   -0.76080E-07   -0.81665E-07  1324   0.679E-03    0.647E-04
DAV:   5    -0.369299716646E+02   -0.63133E-08   -0.22120E-08  1240   0.219E-03
   5 F= -.36929972E+02 E0= -.36929969E+02  d E =-.308404E-05
       N       E                     dE             d eps       ncg     rms          rms(c)
DAV:   1    -0.369299730460E+02   -0.13878E-05   -0.10476E-02  1152   0.886E-01    0.182E-02
DAV:   2    -0.369299769541E+02   -0.39080E-05   -0.12727E-04  1276   0.106E-01    0.126E-02
DAV:   3    -0.369299747071E+02    0.22469E-05   -0.11770E-05  1356   0.351E-02    0.269E-03
DAV:   4    -0.369299749971E+02   -0.28998E-06   -0.32340E-06  1316   0.133E-02    0.129E-03
DAV:   5    -0.369299750210E+02   -0.23901E-07   -0.89937E-08  1476   0.406E-03    0.729E-04
DAV:   6    -0.369299750292E+02   -0.81877E-08   -0.25312E-08  1348   0.224E-03
   6 F= -.36929975E+02 E0= -.36929972E+02  d E =-.644867E-05
       N       E                     dE             d eps       ncg     rms          rms(c)
DAV:   1    -0.369299753710E+02   -0.34993E-06   -0.41903E-02  1152   0.179E+00    0.365E-02
DAV:   2    -0.369299895154E+02   -0.14144E-04   -0.49927E-04  1296   0.212E-01    0.252E-02
DAV:   3    -0.369299806035E+02    0.89119E-05   -0.47985E-05  1364   0.711E-02    0.506E-03
DAV:   4    -0.369299816605E+02   -0.10570E-05   -0.13360E-05  1320   0.268E-02    0.243E-03
DAV:   5    -0.369299817672E+02   -0.10670E-06   -0.39663E-07  1512   0.702E-03    0.118E-03
DAV:   6    -0.369299817681E+02   -0.83787E-09   -0.61870E-08  1356   0.384E-03
   7 F= -.36929982E+02 E0= -.36929979E+02  d E =-.131875E-04
       N       E                     dE             d eps       ncg     rms          rms(c)
DAV:   1    -0.369299616565E+02    0.20111E-04   -0.16752E-01  1152   0.356E+00    0.725E-02
DAV:   2    -0.369300269361E+02   -0.65280E-04   -0.20623E-03  1280   0.422E-01    0.506E-02
DAV:   3    -0.369299906512E+02    0.36285E-04   -0.18954E-04  1368   0.142E-01    0.105E-02
DAV:   4    -0.369299948856E+02   -0.42344E-05   -0.52220E-05  1320   0.524E-02    0.486E-03
DAV:   5    -0.369299952199E+02   -0.33427E-06   -0.15142E-06  1520   0.109E-02    0.194E-03
DAV:   6    -0.369299952601E+02   -0.40241E-07   -0.12529E-07  1372   0.602E-03    0.102E-03
DAV:   7    -0.369299952562E+02    0.39252E-08   -0.55301E-08  1384   0.339E-03
   8 F= -.36929995E+02 E0= -.36929993E+02  d E =-.266756E-04
       N       E                     dE             d eps       ncg     rms          rms(c)
DAV:   1    -0.369298402032E+02    0.15506E-03   -0.66916E-01  1152   0.714E+00    0.143E-01
DAV:   2    -0.369301555582E+02   -0.31536E-03   -0.86676E-03  1292   0.827E-01    0.102E-01
DAV:   3    -0.369300049920E+02    0.15057E-03   -0.76153E-04  1424   0.271E-01    0.205E-02
DAV:   4    -0.369300213676E+02   -0.16376E-04   -0.21807E-04  1272   0.103E-01    0.989E-03
DAV:   5    -0.369300225382E+02   -0.11707E-05   -0.59634E-06  1496   0.255E-02    0.601E-03
DAV:   6    -0.369300223369E+02    0.20138E-06   -0.11847E-06  1360   0.125E-02    0.158E-03
DAV:   7    -0.369300222922E+02    0.44684E-07   -0.43255E-07  1380   0.576E-03    0.757E-04
DAV:   8    -0.369300221792E+02    0.11295E-06   -0.63470E-08  1436   0.225E-03    0.199E-04
DAV:   9    -0.369300222006E+02   -0.21350E-07   -0.85613E-09   980   0.824E-04    0.258E-04
DAV:  10    -0.369300224122E+02   -0.21165E-06   -0.12970E-08  1240   0.589E-04    0.865E-05
DAV:  11    -0.369300225688E+02   -0.15659E-06   -0.72561E-09  1140   0.377E-04    0.974E-05
DAV:  12    -0.369300227013E+02   -0.13248E-06   -0.10972E-08  1240   0.468E-04    0.435E-05
DAV:  13    -0.369300227352E+02   -0.33934E-07   -0.27824E-09   964   0.281E-04    0.311E-05
DAV:  14    -0.369300227191E+02    0.16164E-07   -0.36855E-09   980   0.239E-04    0.343E-05
DAV:  15    -0.369300227119E+02    0.72032E-08   -0.27473E-10  1024   0.983E-05
   9 F= -.36930023E+02 E0= -.36930020E+02  d E =-.541313E-04
       N       E                     dE             d eps       ncg     rms          rms(c)
DAV:   1    -0.369292003105E+02    0.82241E-03   -0.26732E+00  1152   0.143E+01    0.285E-01
DAV:   2    -0.369306154766E+02   -0.14152E-02   -0.35943E-02  1304   0.157E+00    0.205E-01
DAV:   3    -0.369300065623E+02    0.60891E-03   -0.28614E-03  1380   0.479E-01    0.479E-02
DAV:   4    -0.369300798194E+02   -0.73257E-04   -0.79487E-04  1268   0.174E-01    0.212E-02
DAV:   5    -0.369300756216E+02    0.41978E-05   -0.21128E-05  1576   0.452E-02    0.134E-02
DAV:   6    -0.369300760288E+02   -0.40722E-06   -0.69455E-06  1356   0.217E-02    0.273E-03
DAV:   7    -0.369300762472E+02   -0.21833E-06   -0.98345E-07  1392   0.890E-03    0.131E-03
DAV:   8    -0.369300760582E+02    0.18899E-06   -0.22923E-07  1380   0.401E-03    0.641E-04
DAV:   9    -0.369300762685E+02   -0.21034E-06   -0.25148E-08  1348   0.145E-03    0.424E-04
DAV:  10    -0.369300767820E+02   -0.51351E-06   -0.30964E-08  1232   0.105E-03    0.214E-04
DAV:  11    -0.369300772730E+02   -0.49098E-06   -0.36074E-08  1340   0.759E-04    0.204E-04
DAV:  12    -0.369300775046E+02   -0.23155E-06   -0.22461E-08  1340   0.774E-04    0.168E-04
DAV:  13    -0.369300775583E+02   -0.53745E-07   -0.61098E-09  1036   0.403E-04    0.139E-04
DAV:  14    -0.369300775402E+02    0.18133E-07   -0.35565E-09   968   0.301E-04    0.605E-05
DAV:  15    -0.369300775085E+02    0.31695E-07   -0.10973E-09   988   0.171E-04    0.503E-05
DAV:  16    -0.369300774765E+02    0.31969E-07   -0.48268E-10   964   0.105E-04    0.385E-05
DAV:  17    -0.369300774701E+02    0.63853E-08   -0.29676E-10   832   0.105E-04
  10 F= -.36930077E+02 E0= -.36930076E+02  d E =-.108890E-03
       N       E                     dE             d eps       ncg     rms          rms(c)
DAV:   1    -0.369259098637E+02    0.41676E-02   -0.10657E+01  1152   0.285E+01    0.584E-01
DAV:   2    -0.369323688415E+02   -0.64590E-02   -0.15113E-01  1220   0.293E+00    0.414E-01
DAV:   3    -0.369300523305E+02    0.23165E-02   -0.92242E-03  1400   0.786E-01    0.155E-01
DAV:   4    -0.369302213487E+02   -0.16902E-03   -0.25418E-03  1372   0.337E-01    0.444E-02
DAV:   5    -0.369301807634E+02    0.40585E-04   -0.10899E-04  1444   0.103E-01    0.260E-02
DAV:   6    -0.369301822677E+02   -0.15043E-05   -0.37388E-05  1356   0.483E-02    0.661E-03
DAV:   7    -0.369301827919E+02   -0.52417E-06   -0.29999E-06  1396   0.151E-02    0.243E-03
DAV:   8    -0.369301823568E+02    0.43505E-06   -0.59638E-07  1380   0.634E-03    0.861E-04
DAV:   9    -0.369301830448E+02   -0.68801E-06   -0.91902E-08  1484   0.248E-03    0.803E-04
DAV:  10    -0.369301851994E+02   -0.21546E-05   -0.23692E-07  1244   0.253E-03    0.493E-04
DAV:  11    -0.369301858138E+02   -0.61438E-06   -0.33519E-08  1380   0.149E-03    0.342E-04
DAV:  12    -0.369301866807E+02   -0.86693E-06   -0.14707E-07  1352   0.181E-03    0.267E-04
DAV:  13    -0.369301867485E+02   -0.67782E-07   -0.50112E-09  1036   0.553E-04    0.150E-04
DAV:  14    -0.369301867672E+02   -0.18677E-07   -0.21807E-08  1300   0.647E-04    0.147E-04
DAV:  15    -0.369301866775E+02    0.89640E-07   -0.58722E-09   988   0.481E-04    0.162E-04
DAV:  16    -0.369301866334E+02    0.44065E-07   -0.34236E-09   964   0.359E-04    0.794E-05
DAV:  17    -0.369301866199E+02    0.13526E-07   -0.16381E-09   860   0.182E-04    0.272E-05
DAV:  18    -0.369301866099E+02    0.10044E-07   -0.34794E-10   908   0.996E-05    0.274E-05
DAV:  19    -0.369301866181E+02   -0.82132E-08   -0.14399E-09   892   0.166E-04
  11 F= -.36930187E+02 E0= -.36930186E+02  d E =-.218038E-03
       N       E                     dE             d eps       ncg     rms          rms(c)
DAV:   1    -0.369031837502E+02    0.27003E-01   -0.42095E+01  1152   0.566E+01    0.135E+00
DAV:   2    -0.369394155156E+02   -0.36232E-01   -0.70391E-01  1184   0.599E+00    0.875E-01
DAV:   3    -0.369322444348E+02    0.71711E-02   -0.30132E-02  1444   0.128E+00    0.517E-01
DAV:   4    -0.369302619804E+02    0.19825E-02   -0.87085E-03  1392   0.860E-01    0.973E-02
DAV:   5    -0.369304043823E+02   -0.14240E-03   -0.22038E-03  1360   0.288E-01    0.389E-02
DAV:   6    -0.369303906542E+02    0.13728E-04   -0.12881E-04  1456   0.998E-02    0.105E-02
DAV:   7    -0.369303872664E+02    0.33878E-05   -0.17872E-05  1384   0.368E-02    0.408E-03
DAV:   8    -0.369303889118E+02   -0.16454E-05   -0.10211E-06  1420   0.117E-02    0.194E-03
DAV:   9    -0.369303939781E+02   -0.50664E-05   -0.10826E-06  1352   0.752E-03    0.186E-03
DAV:  10    -0.369303972552E+02   -0.32771E-05   -0.25759E-07  1328   0.303E-03    0.138E-03
DAV:  11    -0.369304013012E+02   -0.40460E-05   -0.49134E-07  1240   0.377E-03    0.830E-04
DAV:  12    -0.369304028305E+02   -0.15294E-05   -0.22025E-07  1384   0.213E-03    0.386E-04
DAV:  13    -0.369304032741E+02   -0.44360E-06   -0.76606E-08  1376   0.136E-03    0.283E-04
DAV:  14    -0.369304031837E+02    0.90442E-07   -0.55931E-08  1372   0.108E-03    0.392E-04
DAV:  15    -0.369304031126E+02    0.71123E-07   -0.14199E-08  1320   0.578E-04    0.960E-05
DAV:  16    -0.369304030066E+02    0.10596E-06   -0.99321E-09  1232   0.498E-04    0.145E-04
DAV:  17    -0.369304029882E+02    0.18422E-07   -0.30383E-09   884   0.304E-04    0.364E-05
DAV:  18    -0.369304029919E+02   -0.37385E-08   -0.28172E-09   888   0.251E-04
  12 F= -.36930403E+02 E0= -.36930403E+02  d E =-.434411E-03
       N       E                     dE             d eps       ncg     rms          rms(c)
DAV:   1    -0.366783546629E+02    0.25205E+00   -0.16012E+02  1152   0.110E+02    0.493E+00
DAV:   2    -0.369696296921E+02   -0.29128E+00   -0.42047E+00  1160   0.141E+01    0.241E+00
DAV:   3    -0.369464234594E+02    0.23206E-01   -0.12995E-01  1580   0.245E+00    0.175E+00
DAV:   4    -0.369304181505E+02    0.16005E-01   -0.52222E-02  1412   0.177E+00    0.290E-01
DAV:   5    -0.369309191165E+02   -0.50097E-03   -0.10662E-02  1336   0.650E-01    0.760E-02
DAV:   6    -0.369307895313E+02    0.12959E-03   -0.66344E-04  1384   0.233E-01    0.312E-02
DAV:   7    -0.369307701856E+02    0.19346E-04   -0.93450E-05  1368   0.101E-01    0.156E-02
DAV:   8    -0.369307456955E+02    0.24490E-04   -0.36315E-05  1364   0.492E-02    0.963E-03
DAV:   9    -0.369307520633E+02   -0.63678E-05   -0.53943E-06  1444   0.280E-02    0.259E-03
DAV:  10    -0.369307676338E+02   -0.15571E-04   -0.58803E-06  1284   0.207E-02    0.559E-03
DAV:  11    -0.369307758150E+02   -0.81811E-05   -0.86033E-07  1320   0.101E-02    0.200E-03
DAV:  12    -0.369307838208E+02   -0.80058E-05   -0.16693E-06  1248   0.160E-02    0.304E-03
DAV:  13    -0.369307848971E+02   -0.10763E-05   -0.41556E-07  1352   0.880E-03    0.595E-04
DAV:  14    -0.369307858431E+02   -0.94600E-06   -0.62527E-07  1316   0.599E-03    0.135E-03
DAV:  15    -0.369307858285E+02    0.14635E-07   -0.66830E-08  1412   0.234E-03    0.687E-04
DAV:  16    -0.369307852680E+02    0.56049E-06   -0.88277E-08  1368   0.196E-03    0.112E-03
DAV:  17    -0.369307852606E+02    0.74065E-08   -0.71695E-08  1364   0.266E-03
  13 F= -.36930785E+02 E0= -.36930785E+02  d E =-.816680E-03
       N       E                     dE             d eps       ncg     rms          rms(c)
DAV:   1    -0.345296514079E+02    0.24011E+01   -0.52679E+02  1152   0.192E+02    0.210E+01
DAV:   2    -0.370783777329E+02   -0.25487E+01   -0.29605E+01  1216   0.355E+01    0.867E+00
DAV:   3    -0.370157169792E+02    0.62661E-01   -0.74881E-01  1436   0.537E+00    0.654E+00
DAV:   4    -0.369300667248E+02    0.85650E-01   -0.31000E-01  1372   0.370E+00    0.894E-01
DAV:   5    -0.369316936241E+02   -0.16269E-02   -0.28493E-02  1332   0.107E+00    0.327E-01
DAV:   6    -0.369307154354E+02    0.97819E-03   -0.36789E-03  1424   0.548E-01    0.140E-01
DAV:   7    -0.369307357650E+02   -0.20330E-04   -0.59003E-04  1308   0.194E-01    0.314E-02
DAV:   8    -0.369306970781E+02    0.38687E-04   -0.57791E-05  1456   0.962E-02    0.147E-02
DAV:   9    -0.369307051941E+02   -0.81160E-05   -0.29811E-05  1364   0.519E-02    0.870E-03
DAV:  10    -0.369307423807E+02   -0.37187E-04   -0.95457E-06  1360   0.227E-02    0.342E-03
DAV:  11    -0.369307613710E+02   -0.18990E-04   -0.43994E-06  1308   0.127E-02    0.607E-03
DAV:  12    -0.369307807491E+02   -0.19378E-04   -0.38304E-06  1288   0.204E-02    0.213E-03
DAV:  13    -0.369307844452E+02   -0.36961E-05   -0.11803E-06  1356   0.937E-03    0.256E-03
DAV:  14    -0.369307858608E+02   -0.14156E-05   -0.19176E-06  1352   0.135E-02    0.230E-03
DAV:  15    -0.369307855982E+02    0.26263E-06   -0.16418E-07  1432   0.823E-03    0.106E-03
DAV:  16    -0.369307862129E+02   -0.61476E-06   -0.26039E-07  1364   0.596E-03    0.728E-04
DAV:  17    -0.369307860323E+02    0.18067E-06   -0.85589E-08  1376   0.245E-03    0.349E-04
DAV:  18    -0.369307864312E+02   -0.39894E-06   -0.74035E-08  1340   0.202E-03    0.607E-04
DAV:  19    -0.369307863730E+02    0.58208E-07   -0.83386E-09  1036   0.241E-03    0.225E-04
DAV:  20    -0.369307863810E+02   -0.80361E-08   -0.50705E-08  1304   0.167E-03
  14 F= -.36930786E+02 E0= -.36930786E+02  d E =-.817800E-03
       N       E                     dE             d eps       ncg     rms          rms(c)
DAV:   1    -0.364296225261E+02    0.50116E+00   -0.23873E+02  1152   0.133E+02    0.818E+00
DAV:   2    -0.369951562662E+02   -0.56553E+00   -0.76636E+00  1224   0.192E+01    0.375E+00
DAV:   3    -0.369573099409E+02    0.37846E-01   -0.18149E-01  1468   0.298E+00    0.269E+00
DAV:   4    -0.369303926701E+02    0.26917E-01   -0.86651E-02  1340   0.225E+00    0.461E-01
DAV:   5    -0.369312928800E+02   -0.90021E-03   -0.16388E-02  1376   0.787E-01    0.128E-01
DAV:   6    -0.369309970809E+02    0.29580E-03   -0.11207E-03  1452   0.322E-01    0.534E-02
DAV:   7    -0.369309737280E+02    0.23353E-04   -0.18249E-04  1292   0.130E-01    0.183E-02
DAV:   8    -0.369309551143E+02    0.18614E-04   -0.45472E-05  1380   0.591E-02    0.936E-03
DAV:   9    -0.369309451962E+02    0.99181E-05   -0.92709E-06  1408   0.329E-02    0.355E-03
DAV:  10    -0.369309404512E+02    0.47450E-05   -0.40293E-06  1376   0.287E-02    0.480E-03
DAV:  11    -0.369309423897E+02   -0.19385E-05   -0.14424E-06  1384   0.115E-02    0.418E-03
DAV:  12    -0.369309488407E+02   -0.64510E-05   -0.41942E-06  1240   0.246E-02    0.404E-03
DAV:  13    -0.369309486988E+02    0.14190E-06   -0.14795E-06  1328   0.102E-02    0.476E-03
DAV:  14    -0.369309533958E+02   -0.46970E-05   -0.59219E-07  1388   0.969E-03    0.690E-04
DAV:  15    -0.369309600309E+02   -0.66350E-05   -0.60922E-07  1648   0.143E-02    0.397E-03
DAV:  16    -0.369309630669E+02   -0.30360E-05   -0.42179E-07  1384   0.727E-03    0.119E-03
DAV:  17    -0.369309655817E+02   -0.25148E-05   -0.35304E-07  1368   0.560E-03    0.109E-03
DAV:  18    -0.369309671548E+02   -0.15731E-05   -0.62008E-08  1304   0.197E-03    0.316E-04
DAV:  19    -0.369309685183E+02   -0.13635E-05   -0.31488E-08  1328   0.104E-03    0.427E-04
DAV:  20    -0.369309693009E+02   -0.78256E-06   -0.21152E-08  1280   0.828E-04    0.281E-04
DAV:  21    -0.369309697313E+02   -0.43044E-06   -0.60378E-09   980   0.130E-03    0.730E-05
DAV:  22    -0.369309700294E+02   -0.29804E-06   -0.50769E-09  1004   0.120E-03    0.467E-04
DAV:  23    -0.369309701472E+02   -0.11781E-06   -0.56873E-09   952   0.672E-04    0.147E-04
DAV:  24    -0.369309701916E+02   -0.44394E-07   -0.54072E-09   928   0.659E-04    0.109E-04
DAV:  25    -0.369309702136E+02   -0.22056E-07   -0.11683E-09   920   0.484E-04    0.932E-05
DAV:  26    -0.369309702136E+02    0.73214E-10   -0.23669E-10  1000   0.177E-04
  15 F= -.36930970E+02 E0= -.36930970E+02  d E =-.100163E-02
       N       E                     dE             d eps       ncg     rms          rms(c)
DAV:   1    -0.369087003011E+02    0.22270E-01   -0.37436E+01  1152   0.534E+01    0.125E+00
DAV:   2    -0.369390033334E+02   -0.30303E-01   -0.60769E-01  1160   0.589E+00    0.813E-01
DAV:   3    -0.369323250836E+02    0.66782E-02   -0.26230E-02  1492   0.124E+00    0.463E-01
DAV:   4    -0.369308807518E+02    0.14443E-02   -0.83434E-03  1472   0.754E-01    0.774E-02
DAV:   5    -0.369309895584E+02   -0.10881E-03   -0.14665E-03  1292   0.288E-01    0.221E-02
DAV:   6    -0.369309846753E+02    0.48830E-05   -0.81610E-05  1504   0.782E-02    0.124E-02
DAV:   7    -0.369309829818E+02    0.16936E-05   -0.78580E-06  1388   0.319E-02    0.408E-03
DAV:   8    -0.369309861858E+02   -0.32040E-05   -0.13358E-06  1376   0.121E-02    0.123E-03
DAV:   9    -0.369309888867E+02   -0.27009E-05   -0.30152E-07  1364   0.468E-03    0.101E-03
DAV:  10    -0.369309932342E+02   -0.43475E-05   -0.39693E-07  1308   0.344E-03    0.727E-04
DAV:  11    -0.369309961621E+02   -0.29279E-05   -0.34986E-07  1264   0.300E-03    0.321E-04
DAV:  12    -0.369309974260E+02   -0.12639E-05   -0.18700E-07  1320   0.233E-03    0.307E-04
DAV:  13    -0.369309977811E+02   -0.35503E-06   -0.79361E-08  1376   0.126E-03    0.219E-04
DAV:  14    -0.369309977424E+02    0.38700E-07   -0.31853E-08  1396   0.868E-04    0.214E-04
DAV:  15    -0.369309976934E+02    0.48924E-07   -0.59641E-09  1016   0.412E-04    0.127E-04
DAV:  16    -0.369309976559E+02    0.37578E-07   -0.15231E-08  1292   0.724E-04    0.169E-04
DAV:  17    -0.369309976458E+02    0.10054E-07   -0.47411E-09   892   0.548E-04    0.125E-04
DAV:  18    -0.369309976470E+02   -0.12417E-08   -0.85475E-10   920   0.208E-04
  16 F= -.36930998E+02 E0= -.36930998E+02  d E =-.102907E-02
       N       E                     dE             d eps       ncg     rms          rms(c)
DAV:   1    -0.369306336693E+02    0.36398E-03   -0.18984E+00  1152   0.120E+01    0.243E-01
DAV:   2    -0.369313660899E+02   -0.73242E-03   -0.23315E-02  1292   0.138E+00    0.171E-01
DAV:   3    -0.369309494264E+02    0.41666E-03   -0.20809E-03  1380   0.465E-01    0.331E-02
DAV:   4    -0.369309967265E+02   -0.47300E-04   -0.62733E-04  1300   0.180E-01    0.170E-02
DAV:   5    -0.369310007369E+02   -0.40104E-05   -0.17052E-05  1560   0.327E-02    0.639E-03
DAV:   6    -0.369309993702E+02    0.13667E-05   -0.46894E-06  1400   0.199E-02    0.109E-03
DAV:   7    -0.369309992802E+02    0.90054E-07   -0.31337E-07  1416   0.535E-03    0.339E-04
DAV:   8    -0.369309989419E+02    0.33822E-06   -0.64814E-08  1380   0.220E-03    0.442E-04
DAV:   9    -0.369309988934E+02    0.48577E-07   -0.10294E-08  1200   0.952E-04    0.152E-04
DAV:  10    -0.369309988519E+02    0.41472E-07   -0.15793E-08  1332   0.610E-04    0.133E-04
DAV:  11    -0.369309989232E+02   -0.71333E-07   -0.26307E-09   888   0.296E-04    0.131E-04
DAV:  12    -0.369309990818E+02   -0.15856E-06   -0.12320E-08  1232   0.525E-04    0.726E-05
DAV:  13    -0.369309992488E+02   -0.16698E-06   -0.22732E-09   960   0.314E-04    0.483E-05
DAV:  14    -0.369309993637E+02   -0.11497E-06   -0.34209E-09   984   0.268E-04    0.347E-05
DAV:  15    -0.369309994680E+02   -0.10426E-06   -0.11821E-09   988   0.187E-04    0.316E-05
DAV:  16    -0.369309994996E+02   -0.31565E-07   -0.24798E-10   860   0.949E-05    0.242E-05
DAV:  17    -0.369309995359E+02   -0.36293E-07   -0.53107E-10   888   0.108E-04    0.325E-05
DAV:  18    -0.369309995422E+02   -0.62910E-08   -0.48699E-11   976   0.453E-05
  17 F= -.36931000E+02 E0= -.36931000E+02  d E =-.103096E-02
