<?xml version="1.0" encoding="ISO-8859-1"?>
<modeling>
 <generator>
  <i name="program" type="string">vasp </i>
  <i name="version" type="string">5.4.4.18Apr17-6-g9f103f2a35  </i>
  <i name="subversion" type="string">(build May 31 2018 21:15:54) complex            parallel </i>
  <i name="platform" type="string">c7_intel_O1 </i>
  <i name="date" type="string">2020 07 27 </i>
  <i name="time" type="string">21:59:49 </i>
 </generator>
 <incar>
  <i type="string" name="SYSTEM"> bilayer_graphene_AA</i>
  <i type="int" name="ISTART">     0</i>
  <i type="string" name="PREC">accurate</i>
  <i type="string" name="ALGO"> N</i>
  <i type="logical" name="ADDGRID"> T  </i>
  <i name="AMIN">      0.01000000</i>
  <i type="int" name="NELMIN">     5</i>
  <i type="int" name="IBRION">     2</i>
  <i name="EDIFF">      0.00000001</i>
  <i name="EDIFFG">     -0.00010000</i>
  <i type="int" name="NSW">    40</i>
  <i name="SYMPREC">      0.00010000</i>
  <i name="ENCUT">    800.00000000</i>
  <i type="int" name="NEDOS">  3001</i>
  <i type="logical" name="LREAL"> F  </i>
  <i type="int" name="ISMEAR">     0</i>
  <i name="SIGMA">      0.01000000</i>
  <i type="logical" name="LWAVE"> F  </i>
  <v type="int" name="KPOINT_BSE">    -1     0     0     0</v>
 </incar>
 <structure name="primitive_cell" >
  <crystal>
   <varray name="basis" >
    <v>       2.13000000      -1.22975600       0.00000000 </v>
    <v>       2.13000000       1.22975600       0.00000000 </v>
    <v>       0.00000000       0.00000000      20.00000000 </v>
   </varray>
   <i name="volume">    104.77521120 </i>
   <varray name="rec_basis" >
    <v>       0.23474178      -0.40658472       0.00000000 </v>
    <v>       0.23474178       0.40658472       0.00000000 </v>
    <v>       0.00000000       0.00000000       0.05000000 </v>
   </varray>
  </crystal>
  <varray name="positions" >
   <v>       0.00000000       0.00000000       0.00000000 </v>
   <v>       0.33333300       0.33333300       0.00000000 </v>
   <v>       0.00000000       0.00000000       0.25000000 </v>
   <v>       0.33333300       0.33333300       0.25000000 </v>
  </varray>
 </structure>
 <varray name="primitive_index" >
  <v type="int" >        1 </v>
  <v type="int" >        2 </v>
  <v type="int" >        3 </v>
  <v type="int" >        4 </v>
 </varray>
 <kpoints>
  <generation param="Gamma">
   <v type="int" name="divisions">      21       21        1 </v>
   <v name="usershift">      0.00000000       0.00000000       0.00000000 </v>
   <v name="genvec1">      0.04761905       0.00000000       0.00000000 </v>
   <v name="genvec2">      0.00000000       0.04761905       0.00000000 </v>
   <v name="genvec3">      0.00000000       0.00000000       1.00000000 </v>
   <v name="shift">      0.00000000       0.00000000       0.00000000 </v>
  </generation>
  <varray name="kpointlist" >
   <v>       0.00000000       0.00000000       0.00000000 </v>
   <v>       0.04761905       0.00000000       0.00000000 </v>
   <v>       0.09523810       0.00000000       0.00000000 </v>
   <v>       0.14285714       0.00000000       0.00000000 </v>
   <v>       0.19047619       0.00000000       0.00000000 </v>
   <v>       0.23809524       0.00000000       0.00000000 </v>
   <v>       0.28571429       0.00000000       0.00000000 </v>
   <v>       0.33333333       0.00000000       0.00000000 </v>
   <v>       0.38095238       0.00000000       0.00000000 </v>
   <v>       0.42857143       0.00000000       0.00000000 </v>
   <v>       0.47619048       0.00000000       0.00000000 </v>
   <v>       0.09523810       0.04761905       0.00000000 </v>
   <v>       0.14285714       0.04761905       0.00000000 </v>
   <v>       0.19047619       0.04761905       0.00000000 </v>
   <v>       0.23809524       0.04761905       0.00000000 </v>
   <v>       0.28571429       0.04761905       0.00000000 </v>
   <v>       0.33333333       0.04761905       0.00000000 </v>
   <v>       0.38095238       0.04761905       0.00000000 </v>
   <v>       0.42857143       0.04761905       0.00000000 </v>
   <v>       0.47619048       0.04761905       0.00000000 </v>
   <v>      -0.47619048       0.04761905       0.00000000 </v>
   <v>       0.19047619       0.09523810       0.00000000 </v>
   <v>       0.23809524       0.09523810       0.00000000 </v>
   <v>       0.28571429       0.09523810       0.00000000 </v>
   <v>       0.33333333       0.09523810       0.00000000 </v>
   <v>       0.38095238       0.09523810       0.00000000 </v>
   <v>       0.42857143       0.09523810       0.00000000 </v>
   <v>       0.47619048       0.09523810       0.00000000 </v>
   <v>      -0.47619048       0.09523810       0.00000000 </v>
   <v>       0.28571429       0.14285714       0.00000000 </v>
   <v>       0.33333333       0.14285714       0.00000000 </v>
   <v>       0.38095238       0.14285714       0.00000000 </v>
   <v>       0.42857143       0.14285714       0.00000000 </v>
   <v>       0.47619048       0.14285714       0.00000000 </v>
   <v>      -0.47619048       0.14285714       0.00000000 </v>
   <v>      -0.42857143       0.14285714       0.00000000 </v>
   <v>       0.38095238       0.19047619       0.00000000 </v>
   <v>       0.42857143       0.19047619       0.00000000 </v>
   <v>       0.47619048       0.19047619       0.00000000 </v>
   <v>      -0.47619048       0.19047619       0.00000000 </v>
   <v>      -0.42857143       0.19047619       0.00000000 </v>
   <v>       0.47619048       0.23809524       0.00000000 </v>
   <v>      -0.47619048       0.23809524       0.00000000 </v>
   <v>      -0.42857143       0.23809524       0.00000000 </v>
   <v>      -0.38095238       0.23809524       0.00000000 </v>
   <v>      -0.42857143       0.28571429       0.00000000 </v>
   <v>      -0.38095238       0.28571429       0.00000000 </v>
   <v>      -0.33333333       0.33333333       0.00000000 </v>
  </varray>
  <varray name="weights" >
   <v>       0.00226757 </v>
   <v>       0.01360544 </v>
   <v>       0.01360544 </v>
   <v>       0.01360544 </v>
   <v>       0.01360544 </v>
   <v>       0.01360544 </v>
   <v>       0.01360544 </v>
   <v>       0.01360544 </v>
   <v>       0.01360544 </v>
   <v>       0.01360544 </v>
   <v>       0.01360544 </v>
   <v>       0.01360544 </v>
   <v>       0.02721088 </v>
   <v>       0.02721088 </v>
   <v>       0.02721088 </v>
   <v>       0.02721088 </v>
   <v>       0.02721088 </v>
   <v>       0.02721088 </v>
   <v>       0.02721088 </v>
   <v>       0.02721088 </v>
   <v>       0.01360544 </v>
   <v>       0.01360544 </v>
   <v>       0.02721088 </v>
   <v>       0.02721088 </v>
   <v>       0.02721088 </v>
   <v>       0.02721088 </v>
   <v>       0.02721088 </v>
   <v>       0.02721088 </v>
   <v>       0.02721088 </v>
   <v>       0.01360544 </v>
   <v>       0.02721088 </v>
   <v>       0.02721088 </v>
   <v>       0.02721088 </v>
   <v>       0.02721088 </v>
   <v>       0.02721088 </v>
   <v>       0.01360544 </v>
   <v>       0.01360544 </v>
   <v>       0.02721088 </v>
   <v>       0.02721088 </v>
   <v>       0.02721088 </v>
   <v>       0.02721088 </v>
   <v>       0.01360544 </v>
   <v>       0.02721088 </v>
   <v>       0.02721088 </v>
   <v>       0.01360544 </v>
   <v>       0.01360544 </v>
   <v>       0.02721088 </v>
   <v>       0.00453515 </v>
  </varray>
 </kpoints>
 <parameters>
  <separator name="general" >
   <i type="string" name="SYSTEM">bilayer_graphene_AA</i>
   <i type="logical" name="LCOMPAT"> F  </i>
  </separator>
  <separator name="electronic" >
   <i type="string" name="PREC">accura</i>
   <i name="ENMAX">    800.00000000</i>
   <i name="ENAUG">    644.87300000</i>
   <i name="EDIFF">      0.00000001</i>
   <i type="int" name="IALGO">    38</i>
   <i type="int" name="IWAVPR">    11</i>
   <i type="int" name="NBANDS">    12</i>
   <i name="NELECT">     16.00000000</i>
   <i type="int" name="TURBO">     0</i>
   <i type="int" name="IRESTART">     0</i>
   <i type="int" name="NREBOOT">     0</i>
   <i type="int" name="NMIN">     0</i>
   <i name="EREF">      0.00000000</i>
   <separator name="electronic smearing" >
    <i type="int" name="ISMEAR">     0</i>
    <i name="SIGMA">      0.01000000</i>
    <i name="KSPACING">      0.50000000</i>
    <i type="logical" name="KGAMMA"> T  </i>
   </separator>
   <separator name="electronic projectors" >
    <i type="logical" name="LREAL"> F  </i>
    <v name="ROPT">      0.00000000</v>
    <i type="int" name="LMAXPAW">  -100</i>
    <i type="int" name="LMAXMIX">     2</i>
    <i type="logical" name="NLSPLINE"> F  </i>
   </separator>
   <separator name="electronic startup" >
    <i type="int" name="ISTART">     0</i>
    <i type="int" name="ICHARG">     2</i>
    <i type="int" name="INIWAV">     1</i>
   </separator>
   <separator name="electronic spin" >
    <i type="int" name="ISPIN">     1</i>
    <i type="logical" name="LNONCOLLINEAR"> F  </i>
    <v name="MAGMOM">      1.00000000      1.00000000      1.00000000      1.00000000</v>
    <i name="NUPDOWN">     -1.00000000</i>
    <i type="logical" name="LSORBIT"> F  </i>
    <v name="SAXIS">      0.00000000      0.00000000      1.00000000</v>
    <i type="logical" name="LSPIRAL"> F  </i>
    <v name="QSPIRAL">      0.00000000      0.00000000      0.00000000</v>
    <i type="logical" name="LZEROZ"> F  </i>
   </separator>
   <separator name="electronic exchange-correlation" >
    <i type="logical" name="LASPH"> F  </i>
    <i type="logical" name="LMETAGGA"> F  </i>
   </separator>
   <separator name="electronic convergence" >
    <i type="int" name="NELM">    60</i>
    <i type="int" name="NELMDL">    -5</i>
    <i type="int" name="NELMIN">     5</i>
    <i name="ENINI">    800.00000000</i>
    <separator name="electronic convergence detail" >
     <i type="logical" name="LDIAG"> T  </i>
     <i type="logical" name="LSUBROT"> F  </i>
     <i name="WEIMIN">      0.00100000</i>
     <i name="EBREAK">      0.00000000</i>
     <i name="DEPER">      0.30000000</i>
     <i type="int" name="NRMM">     4</i>
     <i name="TIME">      0.40000000</i>
    </separator>
   </separator>
   <separator name="electronic mixer" >
    <i name="AMIX">      0.40000000</i>
    <i name="BMIX">      1.00000000</i>
    <i name="AMIN">      0.01000000</i>
    <i name="AMIX_MAG">      1.60000000</i>
    <i name="BMIX_MAG">      1.00000000</i>
    <separator name="electronic mixer details" >
     <i type="int" name="IMIX">     4</i>
     <i type="logical" name="MIXFIRST"> F  </i>
     <i type="int" name="MAXMIX">   -45</i>
     <i name="WC">    100.00000000</i>
     <i type="int" name="INIMIX">     1</i>
     <i type="int" name="MIXPRE">     1</i>
     <i type="int" name="MREMOVE">     5</i>
    </separator>
   </separator>
   <separator name="electronic dipolcorrection" >
    <i type="logical" name="LDIPOL"> F  </i>
    <i type="logical" name="LMONO"> F  </i>
    <i type="int" name="IDIPOL">     0</i>
    <i name="EPSILON">      1.00000000</i>
    <v name="DIPOL">   -100.00000000   -100.00000000   -100.00000000</v>
    <i name="EFIELD">      0.00000000</i>
   </separator>
  </separator>
  <separator name="grids" >
   <i type="int" name="NGX">    24</i>
   <i type="int" name="NGY">    24</i>
   <i type="int" name="NGZ">   192</i>
   <i type="int" name="NGXF">    48</i>
   <i type="int" name="NGYF">    48</i>
   <i type="int" name="NGZF">   384</i>
   <i type="logical" name="ADDGRID"> T  </i>
  </separator>
  <separator name="ionic" >
   <i type="int" name="NSW">    40</i>
   <i type="int" name="IBRION">     2</i>
   <i type="int" name="MDALGO">     0</i>
   <i type="int" name="ISIF">     2</i>
   <i name="PSTRESS">      0.00000000</i>
   <i name="EDIFFG">     -0.00010000</i>
   <i type="int" name="NFREE">     1</i>
   <i name="POTIM">      0.50000000</i>
   <i name="SMASS">     -3.00000000</i>
   <i name="SCALEE">      1.00000000</i>
  </separator>
  <separator name="ionic md" >
   <i name="TEBEG">      0.00010000</i>
   <i name="TEEND">      0.00010000</i>
   <i type="int" name="NBLOCK">     1</i>
   <i type="int" name="KBLOCK">    40</i>
   <i type="int" name="NPACO">   256</i>
   <i name="APACO">     16.00000000</i>
  </separator>
  <separator name="symmetry" >
   <i type="int" name="ISYM">     2</i>
   <i name="SYMPREC">      0.00010000</i>
  </separator>
  <separator name="dos" >
   <i type="int" name="LORBIT">     0</i>
   <v name="RWIGS">     -1.00000000</v>
   <i type="int" name="NEDOS">  3001</i>
   <i name="EMIN">     10.00000000</i>
   <i name="EMAX">    -10.00000000</i>
   <i name="EFERMI">      0.00000000</i>
  </separator>
  <separator name="writing" >
   <i type="int" name="NWRITE">     2</i>
   <i type="logical" name="LWAVE"> F  </i>
   <i type="logical" name="LDOWNSAMPLE"> F  </i>
   <i type="logical" name="LCHARG"> T  </i>
   <i type="logical" name="LPARD"> F  </i>
   <i type="logical" name="LVTOT"> F  </i>
   <i type="logical" name="LVHAR"> F  </i>
   <i type="logical" name="LELF"> F  </i>
   <i type="logical" name="LOPTICS"> F  </i>
   <v name="STM">      0.00000000      0.00000000      0.00000000      0.00000000      0.00000000      0.00000000      0.00000000</v>
  </separator>
  <separator name="performance" >
   <i type="int" name="NPAR">     4</i>
   <i type="int" name="NSIM">     4</i>
   <i type="int" name="NBLK">    -1</i>
   <i type="logical" name="LPLANE"> T  </i>
   <i type="logical" name="LSCALAPACK"> T  </i>
   <i type="logical" name="LSCAAWARE"> F  </i>
   <i type="logical" name="LSCALU"> F  </i>
   <i type="logical" name="LASYNC"> F  </i>
   <i type="logical" name="LORBITALREAL"> F  </i>
  </separator>
  <separator name="miscellaneous" >
   <i type="int" name="IDIOT">     3</i>
   <i type="int" name="ISPECIAL">     0</i>
   <i type="logical" name="LMUSIC"> F  </i>
   <v name="POMASS">     12.01100000</v>
   <v name="DARWINR">      0.00000000</v>
   <v name="DARWINV">      1.00000000</v>
   <i type="logical" name="LCORR"> T  </i>
  </separator>
  <i type="logical" name="GGA_COMPAT"> T  </i>
  <i type="logical" name="LBERRY"> F  </i>
  <i type="int" name="ICORELEVEL">     0</i>
  <i type="logical" name="LDAU"> F  </i>
  <i type="int" name="I_CONSTRAINED_M">     0</i>
  <separator name="electronic exchange-correlation" >
   <i type="string" name="GGA">--</i>
   <i type="int" name="VOSKOWN">     0</i>
   <i type="logical" name="LHFCALC"> F  </i>
   <i type="string" name="PRECFOCK"></i>
   <i type="logical" name="LSYMGRAD"> F  </i>
   <i type="logical" name="LHFONE"> F  </i>
   <i type="logical" name="LRHFCALC"> F  </i>
   <i type="logical" name="LTHOMAS"> F  </i>
   <i type="logical" name="LMODELHF"> F  </i>
   <i name="ENCUT4O">     -1.00000000</i>
   <i type="int" name="EXXOEP">     0</i>
   <i type="int" name="FOURORBIT">     0</i>
   <i name="AEXX">      0.00000000</i>
   <i name="HFALPHA">      0.00000000</i>
   <i name="MCALPHA">      0.00000000</i>
   <i name="ALDAX">      1.00000000</i>
   <i name="AGGAX">      1.00000000</i>
   <i name="ALDAC">      1.00000000</i>
   <i name="AGGAC">      1.00000000</i>
   <i type="int" name="NKREDX">     1</i>
   <i type="int" name="NKREDY">     1</i>
   <i type="int" name="NKREDZ">     1</i>
   <i type="logical" name="SHIFTRED"> F  </i>
   <i type="logical" name="ODDONLY"> F  </i>
   <i type="logical" name="EVENONLY"> F  </i>
   <i type="int" name="LMAXFOCK">     0</i>
   <i type="int" name="NMAXFOCKAE">     0</i>
   <i type="logical" name="LFOCKAEDFT"> F  </i>
   <i name="HFSCREEN">      0.00000000</i>
   <i name="HFSCREENC">      0.00000000</i>
   <i type="int" name="NBANDSGWLOW">     0</i>
  </separator>
  <separator name="vdW DFT" >
   <i type="logical" name="LUSE_VDW"> F  </i>
   <i name="Zab_VDW">     -0.84910000</i>
   <i name="PARAM1">      0.12340000</i>
   <i name="PARAM2">      1.00000000</i>
   <i name="PARAM3">      0.00000000</i>
  </separator>
  <separator name="model GW" >
   <i type="int" name="MODEL_GW">     0</i>
   <i name="MODEL_EPS0">     15.71628168</i>
   <i name="MODEL_ALPHA">      1.00000000</i>
  </separator>
  <separator name="linear response parameters" >
   <i type="logical" name="LEPSILON"> F  </i>
   <i type="logical" name="LRPA"> F  </i>
   <i type="logical" name="LNABLA"> F  </i>
   <i type="logical" name="LVEL"> F  </i>
   <i type="int" name="KINTER">     0</i>
   <i name="CSHIFT">      0.10000000</i>
   <i name="OMEGAMAX">     -1.00000000</i>
   <i name="DEG_THRESHOLD">      0.00200000</i>
   <i name="RTIME">     -0.10000000</i>
   <i name="WPLASMAI">      0.00000000</i>
   <v name="DFIELD">      0.00000000      0.00000000      0.00000000</v>
   <v name="WPLASMA">      0.00000000      0.00000000      0.00000000      0.00000000      0.00000000      0.00000000      0.00000000      0.00000000      0.00000000</v>
  </separator>
  <separator name="orbital magnetization" >
   <i type="logical" name="NUCIND"> F  </i>
   <v name="MAGPOS">      0.00000000      0.00000000      0.00000000</v>
   <i type="logical" name="LNICSALL"> T  </i>
   <i type="logical" name="ORBITALMAG"> F  </i>
   <i type="logical" name="LMAGBLOCH"> F  </i>
   <i type="logical" name="LCHIMAG"> F  </i>
   <i type="logical" name="LGAUGE"> T  </i>
   <i type="int" name="MAGATOM">     0</i>
   <v name="MAGDIPOL">      0.00000000      0.00000000      0.00000000</v>
   <v name="AVECCONST">      0.00000000      0.00000000      0.00000000</v>
  </separator>
  <separator name="response functions" >
   <i type="logical" name="LADDER"> F  </i>
   <i type="logical" name="LRPAFORCE"> F  </i>
   <i type="logical" name="LFXC"> F  </i>
   <i type="logical" name="LHARTREE"> T  </i>
   <i type="int" name="IBSE">     0</i>
   <v type="int" name="KPOINT">    -1     0     0     0</v>
   <i type="logical" name="LTCTE"> F  </i>
   <i type="logical" name="LTETE"> F  </i>
   <i type="logical" name="LTRIPLET"> F  </i>
   <i type="logical" name="LFXCEPS"> F  </i>
   <i type="logical" name="LFXHEG"> F  </i>
   <i type="int" name="NATURALO">     2</i>
   <i type="logical" name="L2ORDER"> F  </i>
   <i type="logical" name="LMP2LT"> F  </i>
   <i type="logical" name="LUSEW"> F  </i>
   <i name="ENCUTGW">     -2.00000000</i>
   <i name="ENCUTGWSOFT">     -2.00000000</i>
   <i name="ENCUTLF">     -1.00000000</i>
   <i type="int" name="LMAXMP2">    -1</i>
   <i name="SCISSOR">      0.00000000</i>
   <i type="int" name="NOMEGA">     0</i>
   <i type="int" name="NOMEGAR">     0</i>
   <i type="int" name="NBANDSGW">    -1</i>
   <i type="int" name="NBANDSO">    -1</i>
   <i type="int" name="NBANDSV">    -1</i>
   <i type="int" name="NELM">     1</i>
   <i type="int" name="NELMHF">     1</i>
   <i type="int" name="DIM">     3</i>
   <i type="int" name="ANTIRES">     0</i>
   <i name="OMEGAMAX">    -30.00000000</i>
   <i name="OMEGAMIN">    -30.00000000</i>
   <i name="OMEGATL">   -200.00000000</i>
   <i type="int" name="OMEGAGRID">   140</i>
   <i name="CSHIFT">     -0.10000000</i>
   <i type="logical" name="SELFENERGY"> F  </i>
   <i type="logical" name="LSPECTRAL"> F  </i>
   <i type="logical" name="LSPECTRALGW"> F  </i>
   <i type="logical" name="LSINGLES"> F  </i>
   <i type="logical" name="LFERMIGW"> F  </i>
   <i type="logical" name="ODDONLYGW"> F  </i>
   <i type="logical" name="EVENONLYGW"> F  </i>
   <i type="int" name="NKREDLFX">     1</i>
   <i type="int" name="NKREDLFY">     1</i>
   <i type="int" name="NKREDLFZ">     1</i>
   <i type="int" name="MAXMEM">  2800</i>
   <i type="int" name="TELESCOPE">     0</i>
   <i type="int" name="TAUPAR">     1</i>
   <i type="int" name="OMEGAPAR">    -1</i>
   <i name="LAMBDA">      1.00000000</i>
  </separator>
  <separator name="External order field" >
   <i name="OFIELD_KAPPA">      0.00000000</i>
   <v name="OFIELD_K">      0.00000000      0.00000000      0.00000000</v>
   <i name="OFIELD_Q6_NEAR">      0.00000000</i>
   <i name="OFIELD_Q6_FAR">      0.00000000</i>
   <i name="OFIELD_A">      0.00000000</i>
  </separator>
 </parameters>
 <atominfo>
  <atoms>       4 </atoms>
  <types>       1 </types>
  <array name="atoms" >
   <dimension dim="1">ion</dimension>
   <field type="string">element</field>
   <field type="int">atomtype</field>
   <set>
    <rc><c>C </c><c>   1</c></rc>
    <rc><c>C </c><c>   1</c></rc>
    <rc><c>C </c><c>   1</c></rc>
    <rc><c>C </c><c>   1</c></rc>
   </set>
  </array>
  <array name="atomtypes" >
   <dimension dim="1">type</dimension>
   <field type="int">atomspertype</field>
   <field type="string">element</field>
   <field>mass</field>
   <field>valence</field>
   <field type="string">pseudopotential</field>
   <set>
    <rc><c>   4</c><c>C </c><c>     12.01100000</c><c>      4.00000000</c><c>  PAW_PBE C 08Apr2002                   </c></rc>
   </set>
  </array>
 </atominfo>
 <structure name="initialpos" >
  <crystal>
   <varray name="basis" >
    <v>       2.13000000      -1.22975600       0.00000000 </v>
    <v>       2.13000000       1.22975600       0.00000000 </v>
    <v>       0.00000000       0.00000000      20.00000000 </v>
   </varray>
   <i name="volume">    104.77521120 </i>
   <varray name="rec_basis" >
    <v>       0.23474178      -0.40658472       0.00000000 </v>
    <v>       0.23474178       0.40658472       0.00000000 </v>
    <v>       0.00000000       0.00000000       0.05000000 </v>
   </varray>
  </crystal>
  <varray name="positions" >
   <v>       0.00000000       0.00000000       0.00000000 </v>
   <v>       0.33333300       0.33333300       0.00000000 </v>
   <v>       0.00000000       0.00000000       0.25000000 </v>
   <v>       0.33333300       0.33333300       0.25000000 </v>
  </varray>
  <varray name="selective"  type="logical" >
   <v type="logical" >  F  F  F </v>
   <v type="logical" >  F  F  F </v>
   <v type="logical" >  F  F  T </v>
   <v type="logical" >  F  F  T </v>
  </varray>
  <nose>
   <v>      -3.00000000       0.00000000       0.00010000       0.00010000 </v>
  </nose>
 </structure>
 <calculation>
  <scstep>
   <time name="dav">    1.44    1.46</time>
   <time name="total">    1.57    1.61</time>
   <energy>
    <i name="alphaZ">     12.54445055 </i>
    <i name="ewald">   2145.51726299 </i>
    <i name="hartreedc">  -2607.28434386 </i>
    <i name="XCdc">     52.79485799 </i>
    <i name="pawpsdc">    434.08818552 </i>
    <i name="pawaedc">   -436.36580876 </i>
    <i name="eentropy">     -0.00000000 </i>
    <i name="bandstr">    -62.18033464 </i>
    <i name="atom">    588.61769381 </i>
    <i name="e_fr_energy">    127.73196360 </i>
    <i name="e_wo_entrp">    127.73196360 </i>
    <i name="e_0_energy">    127.73196360 </i>
   </energy>
  </scstep>
  <scstep>
   <time name="dav">    2.03    2.04</time>
   <time name="total">    2.03    2.04</time>
   <energy>
    <i name="e_fr_energy">    -25.16097599 </i>
    <i name="e_wo_entrp">    -25.16085370 </i>
    <i name="e_0_energy">    -25.16091485 </i>
   </energy>
  </scstep>
  <scstep>
   <time name="dav">    1.65    1.66</time>
   <time name="total">    1.65    1.66</time>
   <energy>
    <i name="e_fr_energy">    -39.21587380 </i>
    <i name="e_wo_entrp">    -39.21584581 </i>
    <i name="e_0_energy">    -39.21585981 </i>
   </energy>
  </scstep>
  <scstep>
   <time name="dav">    1.67    1.68</time>
   <time name="total">    1.67    1.68</time>
   <energy>
    <i name="e_fr_energy">    -39.52353446 </i>
    <i name="e_wo_entrp">    -39.52348274 </i>
    <i name="e_0_energy">    -39.52350860 </i>
   </energy>
  </scstep>
  <scstep>
   <time name="dav">    1.67    1.67</time>
   <time name="total">    1.85    1.85</time>
   <energy>
    <i name="e_fr_energy">    -39.53252008 </i>
    <i name="e_wo_entrp">    -39.53246996 </i>
    <i name="e_0_energy">    -39.53249502 </i>
   </energy>
  </scstep>
  <scstep>
   <time name="dav">    1.58    1.59</time>
   <time name="total">    1.88    1.88</time>
   <energy>
    <i name="e_fr_energy">    -37.65243141 </i>
    <i name="e_wo_entrp">    -37.65240567 </i>
    <i name="e_0_energy">    -37.65241854 </i>
   </energy>
  </scstep>
  <scstep>
   <time name="dav">    1.61    1.62</time>
   <time name="total">    1.90    1.90</time>
   <energy>
    <i name="e_fr_energy">    -36.93838765 </i>
    <i name="e_wo_entrp">    -36.93838238 </i>
    <i name="e_0_energy">    -36.93838501 </i>
   </energy>
  </scstep>
  <scstep>
   <time name="dav">    1.63    1.64</time>
   <time name="total">    1.92    1.92</time>
   <energy>
    <i name="e_fr_energy">    -36.93855962 </i>
    <i name="e_wo_entrp">    -36.93855375 </i>
    <i name="e_0_energy">    -36.93855669 </i>
   </energy>
  </scstep>
  <scstep>
   <time name="dav">    1.66    1.66</time>
   <time name="total">    1.94    1.95</time>
   <energy>
    <i name="e_fr_energy">    -36.93738573 </i>
    <i name="e_wo_entrp">    -36.93737995 </i>
    <i name="e_0_energy">    -36.93738284 </i>
   </energy>
  </scstep>
  <scstep>
   <time name="dav">    1.58    1.58</time>
   <time name="total">    1.86    1.87</time>
   <energy>
    <i name="e_fr_energy">    -36.93341569 </i>
    <i name="e_wo_entrp">    -36.93341407 </i>
    <i name="e_0_energy">    -36.93341488 </i>
   </energy>
  </scstep>
  <scstep>
   <time name="dav">    1.53    1.54</time>
   <time name="total">    1.82    1.83</time>
   <energy>
    <i name="e_fr_energy">    -36.93242865 </i>
    <i name="e_wo_entrp">    -36.93242359 </i>
    <i name="e_0_energy">    -36.93242612 </i>
   </energy>
  </scstep>
  <scstep>
   <time name="dav">    1.46    1.47</time>
   <time name="total">    1.75    1.75</time>
   <energy>
    <i name="e_fr_energy">    -36.92947462 </i>
    <i name="e_wo_entrp">    -36.92946982 </i>
    <i name="e_0_energy">    -36.92947222 </i>
   </energy>
  </scstep>
  <scstep>
   <time name="dav">    1.54    1.54</time>
   <time name="total">    1.82    1.83</time>
   <energy>
    <i name="e_fr_energy">    -36.92759119 </i>
    <i name="e_wo_entrp">    -36.92758532 </i>
    <i name="e_0_energy">    -36.92758826 </i>
   </energy>
  </scstep>
  <scstep>
   <time name="dav">    1.54    1.54</time>
   <time name="total">    1.82    1.82</time>
   <energy>
    <i name="e_fr_energy">    -36.92864187 </i>
    <i name="e_wo_entrp">    -36.92863650 </i>
    <i name="e_0_energy">    -36.92863918 </i>
   </energy>
  </scstep>
  <scstep>
   <time name="dav">    1.57    1.58</time>
   <time name="total">    1.85    1.86</time>
   <energy>
    <i name="e_fr_energy">    -36.92904725 </i>
    <i name="e_wo_entrp">    -36.92904115 </i>
    <i name="e_0_energy">    -36.92904420 </i>
   </energy>
  </scstep>
  <scstep>
   <time name="dav">    1.50    1.50</time>
   <time name="total">    1.78    1.78</time>
   <energy>
    <i name="e_fr_energy">    -36.92985560 </i>
    <i name="e_wo_entrp">    -36.92984985 </i>
    <i name="e_0_energy">    -36.92985272 </i>
   </energy>
  </scstep>
  <scstep>
   <time name="dav">    1.55    1.55</time>
   <time name="total">    1.83    1.84</time>
   <energy>
    <i name="e_fr_energy">    -36.92994741 </i>
    <i name="e_wo_entrp">    -36.92994143 </i>
    <i name="e_0_energy">    -36.92994442 </i>
   </energy>
  </scstep>
  <scstep>
   <time name="dav">    1.54    1.54</time>
   <time name="total">    1.82    1.82</time>
   <energy>
    <i name="e_fr_energy">    -36.92996331 </i>
    <i name="e_wo_entrp">    -36.92995727 </i>
    <i name="e_0_energy">    -36.92996029 </i>
   </energy>
  </scstep>
  <scstep>
   <time name="dav">    1.56    1.57</time>
   <time name="total">    1.84    1.85</time>
   <energy>
    <i name="e_fr_energy">    -36.92996724 </i>
    <i name="e_wo_entrp">    -36.92996121 </i>
    <i name="e_0_energy">    -36.92996423 </i>
   </energy>
  </scstep>
  <scstep>
   <time name="dav">    1.56    1.57</time>
   <time name="total">    1.84    1.85</time>
   <energy>
    <i name="e_fr_energy">    -36.92996822 </i>
    <i name="e_wo_entrp">    -36.92996218 </i>
    <i name="e_0_energy">    -36.92996520 </i>
   </energy>
  </scstep>
  <scstep>
   <time name="dav">    1.36    1.36</time>
   <time name="total">    1.64    1.65</time>
   <energy>
    <i name="e_fr_energy">    -36.92996844 </i>
    <i name="e_wo_entrp">    -36.92996240 </i>
    <i name="e_0_energy">    -36.92996542 </i>
   </energy>
  </scstep>
  <scstep>
   <time name="dav">    1.27    1.27</time>
   <time name="total">    1.55    1.55</time>
   <energy>
    <i name="e_fr_energy">    -36.92996850 </i>
    <i name="e_wo_entrp">    -36.92996246 </i>
    <i name="e_0_energy">    -36.92996548 </i>
   </energy>
  </scstep>
  <scstep>
   <time name="dav">    1.24    1.24</time>
   <time name="total">    1.52    1.52</time>
   <energy>
    <i name="e_fr_energy">    -36.92996856 </i>
    <i name="e_wo_entrp">    -36.92996252 </i>
    <i name="e_0_energy">    -36.92996554 </i>
   </energy>
  </scstep>
  <scstep>
   <time name="dav">    1.20    1.20</time>
   <time name="total">    1.48    1.49</time>
   <energy>
    <i name="e_fr_energy">    -36.92996857 </i>
    <i name="e_wo_entrp">    -36.92996254 </i>
    <i name="e_0_energy">    -36.92996556 </i>
   </energy>
  </scstep>
  <scstep>
   <time name="dav">    1.22    1.22</time>
   <time name="total">    1.32    1.33</time>
   <energy>
    <i name="alphaZ">     12.54445055 </i>
    <i name="ewald">   2145.51726299 </i>
    <i name="hartreedc">  -2669.89767838 </i>
    <i name="XCdc">     55.18497831 </i>
    <i name="pawpsdc">   1695.61262583 </i>
    <i name="pawaedc">  -1698.33526577 </i>
    <i name="eentropy">     -0.00000603 </i>
    <i name="bandstr">   -166.17402989 </i>
    <i name="atom">    588.61769381 </i>
    <i name="e_fr_energy">    -36.92996858 </i>
    <i name="e_wo_entrp">    -36.92996255 </i>
    <i name="e_0_energy">    -36.92996556 </i>
   </energy>
  </scstep>
  <structure>
   <crystal>
    <varray name="basis" >
     <v>       2.13000000      -1.22975600       0.00000000 </v>
     <v>       2.13000000       1.22975600       0.00000000 </v>
     <v>       0.00000000       0.00000000      20.00000000 </v>
    </varray>
    <i name="volume">    104.77521120 </i>
    <varray name="rec_basis" >
     <v>       0.23474178      -0.40658472       0.00000000 </v>
     <v>       0.23474178       0.40658472       0.00000000 </v>
     <v>       0.00000000       0.00000000       0.05000000 </v>
    </varray>
   </crystal>
   <varray name="positions" >
    <v>       0.00000000       0.00000000       0.00000000 </v>
    <v>       0.33333300       0.33333300       0.00000000 </v>
    <v>       0.00000000       0.00000000       0.25000000 </v>
    <v>       0.33333300       0.33333300       0.25000000 </v>
   </varray>
  </structure>
  <varray name="forces" >
   <v>       0.00000000       0.00000000       0.00120785 </v>
   <v>      -0.00000000       0.00000000       0.00120785 </v>
   <v>       0.00000000      -0.00000000      -0.00120785 </v>
   <v>      -0.00000000      -0.00000000      -0.00120785 </v>
  </varray>
  <varray name="stress" >
   <v>      12.73907189       0.00000000      -0.00000000 </v>
   <v>       0.00000000      12.73907036       0.00000000 </v>
   <v>      -0.00000000      -0.00000000      -0.86191955 </v>
  </varray>
  <energy>
   <i name="e_fr_energy">    -36.92996858 </i>
   <i name="e_wo_entrp">    -36.92996556 </i>
   <i name="e_0_energy">     -0.00000603 </i>
  </energy>
  <time name="totalsc">   46.73   47.21</time>
 </calculation>
 <calculation>
  <scstep>
   <time name="dav">    1.51    1.52</time>
   <time name="total">    1.81    1.83</time>
   <energy>
    <i name="alphaZ">     12.54445055 </i>
    <i name="ewald">   2145.54946658 </i>
    <i name="hartreedc">  -2669.92990810 </i>
    <i name="XCdc">     55.18497963 </i>
    <i name="pawpsdc">   1695.61213368 </i>
    <i name="pawaedc">  -1698.33477419 </i>
    <i name="eentropy">     -0.00000603 </i>
    <i name="bandstr">   -166.17400465 </i>
    <i name="atom">    588.61769381 </i>
    <i name="e_fr_energy">    -36.92996872 </i>
    <i name="e_wo_entrp">    -36.92996269 </i>
    <i name="e_0_energy">    -36.92996571 </i>
   </energy>
  </scstep>
  <scstep>
   <time name="dav">    1.54    1.55</time>
   <time name="total">    1.82    1.84</time>
   <energy>
    <i name="e_fr_energy">    -36.92996873 </i>
    <i name="e_wo_entrp">    -36.92996270 </i>
    <i name="e_0_energy">    -36.92996571 </i>
   </energy>
  </scstep>
  <scstep>
   <time name="dav">    1.31    1.31</time>
   <time name="total">    1.59    1.60</time>
   <energy>
    <i name="e_fr_energy">    -36.92996873 </i>
    <i name="e_wo_entrp">    -36.92996270 </i>
    <i name="e_0_energy">    -36.92996571 </i>
   </energy>
  </scstep>
  <scstep>
   <time name="dav">    1.22    1.22</time>
   <time name="total">    1.50    1.51</time>
   <energy>
    <i name="e_fr_energy">    -36.92996873 </i>
    <i name="e_wo_entrp">    -36.92996270 </i>
    <i name="e_0_energy">    -36.92996571 </i>
   </energy>
  </scstep>
  <scstep>
   <time name="dav">    1.25    1.25</time>
   <time name="total">    1.35    1.36</time>
   <energy>
    <i name="alphaZ">     12.54445055 </i>
    <i name="ewald">   2145.54946658 </i>
    <i name="hartreedc">  -2669.92993888 </i>
    <i name="XCdc">     55.18497905 </i>
    <i name="pawpsdc">   1695.61273615 </i>
    <i name="pawaedc">  -1698.33537646 </i>
    <i name="eentropy">     -0.00000603 </i>
    <i name="bandstr">   -166.17397350 </i>
    <i name="atom">    588.61769381 </i>
    <i name="e_fr_energy">    -36.92996873 </i>
    <i name="e_wo_entrp">    -36.92996270 </i>
    <i name="e_0_energy">    -36.92996571 </i>
   </energy>
  </scstep>
  <structure>
   <crystal>
    <varray name="basis" >
     <v>       2.13000000      -1.22975600       0.00000000 </v>
     <v>       2.13000000       1.22975600       0.00000000 </v>
     <v>       0.00000000       0.00000000      20.00000000 </v>
    </varray>
    <i name="volume">    104.77521120 </i>
    <varray name="rec_basis" >
     <v>       0.23474178      -0.40658472       0.00000000 </v>
     <v>       0.23474178       0.40658472       0.00000000 </v>
     <v>       0.00000000       0.00000000       0.05000000 </v>
    </varray>
   </crystal>
   <varray name="positions" >
    <v>       0.00000000       0.00000000       0.00000000 </v>
    <v>       0.33333300       0.33333300       0.00000000 </v>
    <v>       0.00000000       0.00000000       0.24999709 </v>
    <v>       0.33333300       0.33333300       0.24999709 </v>
   </varray>
  </structure>
  <varray name="forces" >
   <v>      -0.00000000       0.00000000       0.00119141 </v>
   <v>       0.00000000      -0.00000000       0.00119141 </v>
   <v>      -0.00000000       0.00000000      -0.00119141 </v>
   <v>       0.00000000      -0.00000000      -0.00119141 </v>
  </varray>
  <varray name="stress" >
   <v>      12.73896943       0.00000000       0.00000000 </v>
   <v>       0.00000000      12.73896791       0.00000000 </v>
   <v>       0.00000000      -0.00000000      -0.86235318 </v>
  </varray>
  <energy>
   <i name="e_fr_energy">    -36.92996873 </i>
   <i name="e_wo_entrp">    -36.92996571 </i>
   <i name="e_0_energy">     -0.00000603 </i>
  </energy>
  <time name="totalsc">   10.31   10.43</time>
 </calculation>
 <calculation>
  <scstep>
   <time name="dav">    1.43    1.43</time>
   <time name="total">    1.72    1.74</time>
   <energy>
    <i name="alphaZ">     12.54445055 </i>
    <i name="ewald">   2145.64607962 </i>
    <i name="hartreedc">  -2670.02654945 </i>
    <i name="XCdc">     55.18497946 </i>
    <i name="pawpsdc">   1695.61260498 </i>
    <i name="pawaedc">  -1698.33524527 </i>
    <i name="eentropy">     -0.00000602 </i>
    <i name="bandstr">   -166.17397682 </i>
    <i name="atom">    588.61769381 </i>
    <i name="e_fr_energy">    -36.92996913 </i>
    <i name="e_wo_entrp">    -36.92996311 </i>
    <i name="e_0_energy">    -36.92996612 </i>
   </energy>
  </scstep>
  <scstep>
   <time name="dav">    1.54    1.55</time>
   <time name="total">    1.83    1.83</time>
   <energy>
    <i name="e_fr_energy">    -36.92996918 </i>
    <i name="e_wo_entrp">    -36.92996316 </i>
    <i name="e_0_energy">    -36.92996617 </i>
   </energy>
  </scstep>
  <scstep>
   <time name="dav">    1.61    1.62</time>
   <time name="total">    1.90    1.90</time>
   <energy>
    <i name="e_fr_energy">    -36.92996914 </i>
    <i name="e_wo_entrp">    -36.92996312 </i>
    <i name="e_0_energy">    -36.92996613 </i>
   </energy>
  </scstep>
  <scstep>
   <time name="dav">    1.54    1.55</time>
   <time name="total">    1.83    1.84</time>
   <energy>
    <i name="e_fr_energy">    -36.92996915 </i>
    <i name="e_wo_entrp">    -36.92996313 </i>
    <i name="e_0_energy">    -36.92996614 </i>
   </energy>
  </scstep>
  <scstep>
   <time name="dav">    1.24    1.25</time>
   <time name="total">    1.35    1.35</time>
   <energy>
    <i name="alphaZ">     12.54445055 </i>
    <i name="ewald">   2145.64607962 </i>
    <i name="hartreedc">  -2670.02666748 </i>
    <i name="XCdc">     55.18497908 </i>
    <i name="pawpsdc">   1695.61413642 </i>
    <i name="pawaedc">  -1698.33677708 </i>
    <i name="eentropy">     -0.00000602 </i>
    <i name="bandstr">   -166.17385805 </i>
    <i name="atom">    588.61769381 </i>
    <i name="e_fr_energy">    -36.92996915 </i>
    <i name="e_wo_entrp">    -36.92996313 </i>
    <i name="e_0_energy">    -36.92996614 </i>
   </energy>
  </scstep>
  <structure>
   <crystal>
    <varray name="basis" >
     <v>       2.13000000      -1.22975600       0.00000000 </v>
     <v>       2.13000000       1.22975600       0.00000000 </v>
     <v>       0.00000000       0.00000000      20.00000000 </v>
    </varray>
    <i name="volume">    104.77521120 </i>
    <varray name="rec_basis" >
     <v>       0.23474178      -0.40658472       0.00000000 </v>
     <v>       0.23474178       0.40658472       0.00000000 </v>
     <v>       0.00000000       0.00000000       0.05000000 </v>
    </varray>
   </crystal>
   <varray name="positions" >
    <v>       0.00000000       0.00000000       0.00000000 </v>
    <v>       0.33333300       0.33333300       0.00000000 </v>
    <v>       0.00000000       0.00000000       0.24998835 </v>
    <v>       0.33333300       0.33333300       0.24998835 </v>
   </varray>
  </structure>
  <varray name="forces" >
   <v>       0.00000000      -0.00000000       0.00117665 </v>
   <v>      -0.00000000       0.00000000       0.00117665 </v>
   <v>       0.00000000      -0.00000000      -0.00117665 </v>
   <v>      -0.00000000       0.00000000      -0.00117665 </v>
  </varray>
  <varray name="stress" >
   <v>      12.73887038       0.00000000       0.00000000 </v>
   <v>       0.00000000      12.73886886       0.00000000 </v>
   <v>       0.00000000       0.00000000      -0.86270165 </v>
  </varray>
  <energy>
   <i name="e_fr_energy">    -36.92996915 </i>
   <i name="e_wo_entrp">    -36.92996614 </i>
   <i name="e_0_energy">     -0.00000602 </i>
  </energy>
  <time name="totalsc">   10.89   11.00</time>
 </calculation>
 <calculation>
  <scstep>
   <time name="dav">    1.45    1.45</time>
   <time name="total">    1.75    1.77</time>
   <energy>
    <i name="alphaZ">     12.54445055 </i>
    <i name="ewald">   2145.83931584 </i>
    <i name="hartreedc">  -2670.21989228 </i>
    <i name="XCdc">     55.18497997 </i>
    <i name="pawpsdc">   1695.61315422 </i>
    <i name="pawaedc">  -1698.33579479 </i>
    <i name="eentropy">     -0.00000599 </i>
    <i name="bandstr">   -166.17387120 </i>
    <i name="atom">    588.61769381 </i>
    <i name="e_fr_energy">    -36.92996987 </i>
    <i name="e_wo_entrp">    -36.92996388 </i>
    <i name="e_0_energy">    -36.92996688 </i>
   </energy>
  </scstep>
  <scstep>
   <time name="dav">    1.54    1.54</time>
   <time name="total">    1.82    1.83</time>
   <energy>
    <i name="e_fr_energy">    -36.92997010 </i>
    <i name="e_wo_entrp">    -36.92996411 </i>
    <i name="e_0_energy">    -36.92996711 </i>
   </energy>
  </scstep>
  <scstep>
   <time name="dav">    1.59    1.60</time>
   <time name="total">    1.88    1.88</time>
   <energy>
    <i name="e_fr_energy">    -36.92996996 </i>
    <i name="e_wo_entrp">    -36.92996397 </i>
    <i name="e_0_energy">    -36.92996697 </i>
   </energy>
  </scstep>
  <scstep>
   <time name="dav">    1.55    1.56</time>
   <time name="total">    1.84    1.84</time>
   <energy>
    <i name="e_fr_energy">    -36.92996998 </i>
    <i name="e_wo_entrp">    -36.92996399 </i>
    <i name="e_0_energy">    -36.92996699 </i>
   </energy>
  </scstep>
  <scstep>
   <time name="dav">    1.27    1.28</time>
   <time name="total">    1.38    1.38</time>
   <energy>
    <i name="alphaZ">     12.54445055 </i>
    <i name="ewald">   2145.83931584 </i>
    <i name="hartreedc">  -2670.22011574 </i>
    <i name="XCdc">     55.18497896 </i>
    <i name="pawpsdc">   1695.61924783 </i>
    <i name="pawaedc">  -1698.34188878 </i>
    <i name="eentropy">     -0.00000600 </i>
    <i name="bandstr">   -166.17364646 </i>
    <i name="atom">    588.61769381 </i>
    <i name="e_fr_energy">    -36.92996999 </i>
    <i name="e_wo_entrp">    -36.92996399 </i>
    <i name="e_0_energy">    -36.92996699 </i>
   </energy>
  </scstep>
  <structure>
   <crystal>
    <varray name="basis" >
     <v>       2.13000000      -1.22975600       0.00000000 </v>
     <v>       2.13000000       1.22975600       0.00000000 </v>
     <v>       0.00000000       0.00000000      20.00000000 </v>
    </varray>
    <i name="volume">    104.77521120 </i>
    <varray name="rec_basis" >
     <v>       0.23474178      -0.40658472       0.00000000 </v>
     <v>       0.23474178       0.40658472       0.00000000 </v>
     <v>       0.00000000       0.00000000       0.05000000 </v>
    </varray>
   </crystal>
   <varray name="positions" >
    <v>       0.00000000       0.00000000       0.00000000 </v>
    <v>       0.33333300       0.33333300       0.00000000 </v>
    <v>       0.00000000       0.00000000       0.24997087 </v>
    <v>       0.33333300       0.33333300       0.24997087 </v>
   </varray>
  </structure>
  <varray name="forces" >
   <v>      -0.00000000       0.00000000       0.00114973 </v>
   <v>       0.00000000      -0.00000000       0.00114973 </v>
   <v>       0.00000000       0.00000000      -0.00114973 </v>
   <v>      -0.00000000      -0.00000000      -0.00114973 </v>
  </varray>
  <varray name="stress" >
   <v>      12.73867473       0.00000000       0.00000000 </v>
   <v>       0.00000000      12.73867321       0.00000000 </v>
   <v>       0.00000000       0.00000000      -0.86348117 </v>
  </varray>
  <energy>
   <i name="e_fr_energy">    -36.92996999 </i>
   <i name="e_wo_entrp">    -36.92996699 </i>
   <i name="e_0_energy">     -0.00000600 </i>
  </energy>
  <time name="totalsc">   10.91   11.02</time>
 </calculation>
 <calculation>
  <scstep>
   <time name="dav">    1.41    1.41</time>
   <time name="total">    1.71    1.73</time>
   <energy>
    <i name="alphaZ">     12.54445055 </i>
    <i name="ewald">   2146.22582880 </i>
    <i name="hartreedc">  -2670.60658971 </i>
    <i name="XCdc">     55.18498046 </i>
    <i name="pawpsdc">   1695.61525046 </i>
    <i name="pawaedc">  -1698.33789122 </i>
    <i name="eentropy">     -0.00000595 </i>
    <i name="bandstr">   -166.17368840 </i>
    <i name="atom">    588.61769381 </i>
    <i name="e_fr_energy">    -36.92997120 </i>
    <i name="e_wo_entrp">    -36.92996525 </i>
    <i name="e_0_energy">    -36.92996822 </i>
   </energy>
  </scstep>
  <scstep>
   <time name="dav">    1.51    1.52</time>
   <time name="total">    1.80    1.80</time>
   <energy>
    <i name="e_fr_energy">    -36.92997214 </i>
    <i name="e_wo_entrp">    -36.92996619 </i>
    <i name="e_0_energy">    -36.92996917 </i>
   </energy>
  </scstep>
  <scstep>
   <time name="dav">    1.60    1.60</time>
   <time name="total">    1.88    1.89</time>
   <energy>
    <i name="e_fr_energy">    -36.92997158 </i>
    <i name="e_wo_entrp">    -36.92996563 </i>
    <i name="e_0_energy">    -36.92996861 </i>
   </energy>
  </scstep>
  <scstep>
   <time name="dav">    1.55    1.55</time>
   <time name="total">    1.83    1.84</time>
   <energy>
    <i name="e_fr_energy">    -36.92997166 </i>
    <i name="e_wo_entrp">    -36.92996571 </i>
    <i name="e_0_energy">    -36.92996868 </i>
   </energy>
  </scstep>
  <scstep>
   <time name="dav">    1.48    1.49</time>
   <time name="total">    1.59    1.59</time>
   <energy>
    <i name="alphaZ">     12.54445055 </i>
    <i name="ewald">   2146.22582880 </i>
    <i name="hartreedc">  -2670.60704051 </i>
    <i name="XCdc">     55.18497911 </i>
    <i name="pawpsdc">   1695.62787177 </i>
    <i name="pawaedc">  -1698.35051325 </i>
    <i name="eentropy">     -0.00000595 </i>
    <i name="bandstr">   -166.17323599 </i>
    <i name="atom">    588.61769381 </i>
    <i name="e_fr_energy">    -36.92997166 </i>
    <i name="e_wo_entrp">    -36.92996571 </i>
    <i name="e_0_energy">    -36.92996869 </i>
   </energy>
  </scstep>
  <structure>
   <crystal>
    <varray name="basis" >
     <v>       2.13000000      -1.22975600       0.00000000 </v>
     <v>       2.13000000       1.22975600       0.00000000 </v>
     <v>       0.00000000       0.00000000      20.00000000 </v>
    </varray>
    <i name="volume">    104.77521120 </i>
    <varray name="rec_basis" >
     <v>       0.23474178      -0.40658472       0.00000000 </v>
     <v>       0.23474178       0.40658472       0.00000000 </v>
     <v>       0.00000000       0.00000000       0.05000000 </v>
    </varray>
   </crystal>
   <varray name="positions" >
    <v>       0.00000000       0.00000000       0.00000000 </v>
    <v>       0.33333300       0.33333300       0.00000000 </v>
    <v>       0.00000000       0.00000000       0.24993590 </v>
    <v>       0.33333300       0.33333300       0.24993590 </v>
   </varray>
  </structure>
  <varray name="forces" >
   <v>       0.00000000       0.00000000       0.00110613 </v>
   <v>      -0.00000000      -0.00000000       0.00110613 </v>
   <v>       0.00000000       0.00000000      -0.00110613 </v>
   <v>      -0.00000000      -0.00000000      -0.00110613 </v>
  </varray>
  <varray name="stress" >
   <v>      12.73809637      -0.00000000       0.00000000 </v>
   <v>       0.00000000      12.73809485      -0.00000000 </v>
   <v>       0.00000000       0.00000000      -0.86508045 </v>
  </varray>
  <energy>
   <i name="e_fr_energy">    -36.92997166 </i>
   <i name="e_wo_entrp">    -36.92996869 </i>
   <i name="e_0_energy">     -0.00000595 </i>
  </energy>
  <time name="totalsc">   11.04   11.15</time>
 </calculation>
 <calculation>
  <scstep>
   <time name="dav">    1.42    1.42</time>
   <time name="total">    1.72    1.74</time>
   <energy>
    <i name="alphaZ">     12.54445055 </i>
    <i name="ewald">   2146.99901685 </i>
    <i name="hartreedc">  -2671.38011233 </i>
    <i name="XCdc">     55.18498094 </i>
    <i name="pawpsdc">   1695.61938677 </i>
    <i name="pawaedc">  -1698.34202765 </i>
    <i name="eentropy">     -0.00000586 </i>
    <i name="bandstr">   -166.17335612 </i>
    <i name="atom">    588.61769381 </i>
    <i name="e_fr_energy">    -36.92997305 </i>
    <i name="e_wo_entrp">    -36.92996719 </i>
    <i name="e_0_energy">    -36.92997012 </i>
   </energy>
  </scstep>
  <scstep>
   <time name="dav">    1.53    1.53</time>
   <time name="total">    1.81    1.82</time>
   <energy>
    <i name="e_fr_energy">    -36.92997695 </i>
    <i name="e_wo_entrp">    -36.92997109 </i>
    <i name="e_0_energy">    -36.92997402 </i>
   </energy>
  </scstep>
  <scstep>
   <time name="dav">    1.60    1.60</time>
   <time name="total">    1.88    1.89</time>
   <energy>
    <i name="e_fr_energy">    -36.92997471 </i>
    <i name="e_wo_entrp">    -36.92996884 </i>
    <i name="e_0_energy">    -36.92997177 </i>
   </energy>
  </scstep>
  <scstep>
   <time name="dav">    1.57    1.57</time>
   <time name="total">    1.85    1.86</time>
   <energy>
    <i name="e_fr_energy">    -36.92997500 </i>
    <i name="e_wo_entrp">    -36.92996913 </i>
    <i name="e_0_energy">    -36.92997206 </i>
   </energy>
  </scstep>
  <scstep>
   <time name="dav">    1.68    1.68</time>
   <time name="total">    1.96    1.97</time>
   <energy>
    <i name="e_fr_energy">    -36.92997502 </i>
    <i name="e_wo_entrp">    -36.92996916 </i>
    <i name="e_0_energy">    -36.92997209 </i>
   </energy>
  </scstep>
  <scstep>
   <time name="dav">    1.57    1.58</time>
   <time name="total">    1.68    1.68</time>
   <energy>
    <i name="alphaZ">     12.54445055 </i>
    <i name="ewald">   2146.99901685 </i>
    <i name="hartreedc">  -2671.38093170 </i>
    <i name="XCdc">     55.18497968 </i>
    <i name="pawpsdc">   1695.62733471 </i>
    <i name="pawaedc">  -1698.34997559 </i>
    <i name="eentropy">     -0.00000587 </i>
    <i name="bandstr">   -166.17253748 </i>
    <i name="atom">    588.61769381 </i>
    <i name="e_fr_energy">    -36.92997503 </i>
    <i name="e_wo_entrp">    -36.92996916 </i>
    <i name="e_0_energy">    -36.92997210 </i>
   </energy>
  </scstep>
  <structure>
   <crystal>
    <varray name="basis" >
     <v>       2.13000000      -1.22975600       0.00000000 </v>
     <v>       2.13000000       1.22975600       0.00000000 </v>
     <v>       0.00000000       0.00000000      20.00000000 </v>
    </varray>
    <i name="volume">    104.77521120 </i>
    <varray name="rec_basis" >
     <v>       0.23474178      -0.40658472       0.00000000 </v>
     <v>       0.23474178       0.40658472       0.00000000 </v>
     <v>       0.00000000       0.00000000       0.05000000 </v>
    </varray>
   </crystal>
   <varray name="positions" >
    <v>       0.00000000       0.00000000       0.00000000 </v>
    <v>       0.33333300       0.33333300       0.00000000 </v>
    <v>       0.00000000       0.00000000       0.24986598 </v>
    <v>       0.33333300       0.33333300       0.24986598 </v>
   </varray>
  </structure>
  <varray name="forces" >
   <v>       0.00000000       0.00000000       0.00108221 </v>
   <v>      -0.00000000      -0.00000000       0.00108221 </v>
   <v>       0.00000000       0.00000000      -0.00108221 </v>
   <v>      -0.00000000      -0.00000000      -0.00108221 </v>
  </varray>
  <varray name="stress" >
   <v>      12.73968738       0.00000000       0.00000000 </v>
   <v>       0.00000000      12.73968586      -0.00000000 </v>
   <v>       0.00000000       0.00000000      -0.86009069 </v>
  </varray>
  <energy>
   <i name="e_fr_energy">    -36.92997503 </i>
   <i name="e_wo_entrp">    -36.92997210 </i>
   <i name="e_0_energy">     -0.00000587 </i>
  </energy>
  <time name="totalsc">   13.14   13.26</time>
 </calculation>
 <calculation>
  <scstep>
   <time name="dav">    1.42    1.42</time>
   <time name="total">    1.72    1.74</time>
   <energy>
    <i name="alphaZ">     12.54445055 </i>
    <i name="ewald">   2148.54604148 </i>
    <i name="hartreedc">  -2672.92767885 </i>
    <i name="XCdc">     55.18498550 </i>
    <i name="pawpsdc">   1695.61663547 </i>
    <i name="pawaedc">  -1698.33927701 </i>
    <i name="eentropy">     -0.00000568 </i>
    <i name="bandstr">   -166.17282064 </i>
    <i name="atom">    588.61769381 </i>
    <i name="e_fr_energy">    -36.92997537 </i>
    <i name="e_wo_entrp">    -36.92996970 </i>
    <i name="e_0_energy">    -36.92997253 </i>
   </energy>
  </scstep>
  <scstep>
   <time name="dav">    1.54    1.54</time>
   <time name="total">    1.82    1.83</time>
   <energy>
    <i name="e_fr_energy">    -36.92998952 </i>
    <i name="e_wo_entrp">    -36.92998382 </i>
    <i name="e_0_energy">    -36.92998667 </i>
   </energy>
  </scstep>
  <scstep>
   <time name="dav">    1.59    1.60</time>
   <time name="total">    1.88    1.88</time>
   <energy>
    <i name="e_fr_energy">    -36.92998060 </i>
    <i name="e_wo_entrp">    -36.92997490 </i>
    <i name="e_0_energy">    -36.92997775 </i>
   </energy>
  </scstep>
  <scstep>
   <time name="dav">    1.56    1.57</time>
   <time name="total">    1.85    1.86</time>
   <energy>
    <i name="e_fr_energy">    -36.92998166 </i>
    <i name="e_wo_entrp">    -36.92997597 </i>
    <i name="e_0_energy">    -36.92997881 </i>
   </energy>
  </scstep>
  <scstep>
   <time name="dav">    1.71    1.72</time>
   <time name="total">    2.00    2.00</time>
   <energy>
    <i name="e_fr_energy">    -36.92998177 </i>
    <i name="e_wo_entrp">    -36.92997608 </i>
    <i name="e_0_energy">    -36.92997892 </i>
   </energy>
  </scstep>
  <scstep>
   <time name="dav">    1.59    1.59</time>
   <time name="total">    1.69    1.70</time>
   <energy>
    <i name="alphaZ">     12.54445055 </i>
    <i name="ewald">   2148.54604148 </i>
    <i name="hartreedc">  -2672.92937983 </i>
    <i name="XCdc">     55.18498333 </i>
    <i name="pawpsdc">   1695.64093051 </i>
    <i name="pawaedc">  -1698.36357189 </i>
    <i name="eentropy">     -0.00000569 </i>
    <i name="bandstr">   -166.17112404 </i>
    <i name="atom">    588.61769381 </i>
    <i name="e_fr_energy">    -36.92998177 </i>
    <i name="e_wo_entrp">    -36.92997608 </i>
    <i name="e_0_energy">    -36.92997892 </i>
   </energy>
  </scstep>
  <structure>
   <crystal>
    <varray name="basis" >
     <v>       2.13000000      -1.22975600       0.00000000 </v>
     <v>       2.13000000       1.22975600       0.00000000 </v>
     <v>       0.00000000       0.00000000      20.00000000 </v>
    </varray>
    <i name="volume">    104.77521120 </i>
    <varray name="rec_basis" >
     <v>       0.23474178      -0.40658472       0.00000000 </v>
     <v>       0.23474178       0.40658472       0.00000000 </v>
     <v>       0.00000000       0.00000000       0.05000000 </v>
    </varray>
   </crystal>
   <varray name="positions" >
    <v>       0.00000000       0.00000000       0.00000000 </v>
    <v>       0.33333300       0.33333300       0.00000000 </v>
    <v>       0.00000000       0.00000000       0.24972613 </v>
    <v>       0.33333300       0.33333300       0.24972613 </v>
   </varray>
  </structure>
  <varray name="forces" >
   <v>      -0.00000000       0.00000000       0.00098622 </v>
   <v>       0.00000000       0.00000000       0.00098622 </v>
   <v>      -0.00000000      -0.00000000      -0.00098622 </v>
   <v>       0.00000000      -0.00000000      -0.00098622 </v>
  </varray>
  <varray name="stress" >
   <v>      12.73991075       0.00000000      -0.00000000 </v>
   <v>       0.00000000      12.73990923       0.00000000 </v>
   <v>       0.00000000       0.00000000      -0.85925236 </v>
  </varray>
  <energy>
   <i name="e_fr_energy">    -36.92998177 </i>
   <i name="e_wo_entrp">    -36.92997892 </i>
   <i name="e_0_energy">     -0.00000569 </i>
  </energy>
  <time name="totalsc">   13.22   13.34</time>
 </calculation>
 <calculation>
  <scstep>
   <time name="dav">    1.41    1.42</time>
   <time name="total">    1.71    1.73</time>
   <energy>
    <i name="alphaZ">     12.54445055 </i>
    <i name="ewald">   2151.64268484 </i>
    <i name="hartreedc">  -2676.02494254 </i>
    <i name="XCdc">     55.18497917 </i>
    <i name="pawpsdc">   1695.62188258 </i>
    <i name="pawaedc">  -1698.34452415 </i>
    <i name="eentropy">     -0.00000532 </i>
    <i name="bandstr">   -166.17218058 </i>
    <i name="atom">    588.61769381 </i>
    <i name="e_fr_energy">    -36.92996166 </i>
    <i name="e_wo_entrp">    -36.92995633 </i>
    <i name="e_0_energy">    -36.92995899 </i>
   </energy>
  </scstep>
  <scstep>
   <time name="dav">    1.51    1.52</time>
   <time name="total">    1.79    1.80</time>
   <energy>
    <i name="e_fr_energy">    -36.93002694 </i>
    <i name="e_wo_entrp">    -36.93002158 </i>
    <i name="e_0_energy">    -36.93002426 </i>
   </energy>
  </scstep>
  <scstep>
   <time name="dav">    1.58    1.58</time>
   <time name="total">    1.86    1.86</time>
   <energy>
    <i name="e_fr_energy">    -36.92999065 </i>
    <i name="e_wo_entrp">    -36.92998528 </i>
    <i name="e_0_energy">    -36.92998797 </i>
   </energy>
  </scstep>
  <scstep>
   <time name="dav">    1.54    1.55</time>
   <time name="total">    1.82    1.83</time>
   <energy>
    <i name="e_fr_energy">    -36.92999489 </i>
    <i name="e_wo_entrp">    -36.92998952 </i>
    <i name="e_0_energy">    -36.92999220 </i>
   </energy>
  </scstep>
  <scstep>
   <time name="dav">    1.71    1.71</time>
   <time name="total">    1.99    2.00</time>
   <energy>
    <i name="e_fr_energy">    -36.92999522 </i>
    <i name="e_wo_entrp">    -36.92998986 </i>
    <i name="e_0_energy">    -36.92999254 </i>
   </energy>
  </scstep>
  <scstep>
   <time name="dav">    1.58    1.59</time>
   <time name="total">    1.86    1.87</time>
   <energy>
    <i name="e_fr_energy">    -36.92999526 </i>
    <i name="e_wo_entrp">    -36.92998990 </i>
    <i name="e_0_energy">    -36.92999258 </i>
   </energy>
  </scstep>
  <scstep>
   <time name="dav">    1.59    1.60</time>
   <time name="total">    1.70    1.70</time>
   <energy>
    <i name="alphaZ">     12.54445055 </i>
    <i name="ewald">   2151.64268484 </i>
    <i name="hartreedc">  -2676.02865267 </i>
    <i name="XCdc">     55.18499826 </i>
    <i name="pawpsdc">   1695.63509273 </i>
    <i name="pawaedc">  -1698.35773330 </i>
    <i name="eentropy">     -0.00000536 </i>
    <i name="bandstr">   -166.16852411 </i>
    <i name="atom">    588.61769381 </i>
    <i name="e_fr_energy">    -36.92999526 </i>
    <i name="e_wo_entrp">    -36.92998990 </i>
    <i name="e_0_energy">    -36.92999258 </i>
   </energy>
  </scstep>
  <structure>
   <crystal>
    <varray name="basis" >
     <v>       2.13000000      -1.22975600       0.00000000 </v>
     <v>       2.13000000       1.22975600       0.00000000 </v>
     <v>       0.00000000       0.00000000      20.00000000 </v>
    </varray>
    <i name="volume">    104.77521120 </i>
    <varray name="rec_basis" >
     <v>       0.23474178      -0.40658472       0.00000000 </v>
     <v>       0.23474178       0.40658472       0.00000000 </v>
     <v>       0.00000000       0.00000000       0.05000000 </v>
    </varray>
   </crystal>
   <varray name="positions" >
    <v>       0.00000000       0.00000000       0.00000000 </v>
    <v>       0.33333300       0.33333300       0.00000000 </v>
    <v>       0.00000000       0.00000000       0.24944644 </v>
    <v>       0.33333300       0.33333300       0.24944644 </v>
   </varray>
  </structure>
  <varray name="forces" >
   <v>       0.00000000       0.00000000       0.00106233 </v>
   <v>      -0.00000000       0.00000000       0.00106233 </v>
   <v>       0.00000000      -0.00000000      -0.00106233 </v>
   <v>       0.00000000      -0.00000000      -0.00106233 </v>
  </varray>
  <varray name="stress" >
   <v>      12.73805102       0.00000000       0.00000000 </v>
   <v>       0.00000000      12.73804950       0.00000000 </v>
   <v>       0.00000000       0.00000000      -0.86495719 </v>
  </varray>
  <energy>
   <i name="e_fr_energy">    -36.92999526 </i>
   <i name="e_wo_entrp">    -36.92999258 </i>
   <i name="e_0_energy">     -0.00000536 </i>
  </energy>
  <time name="totalsc">   14.97   15.10</time>
 </calculation>
 <calculation>
  <scstep>
   <time name="dav">    1.41    1.42</time>
   <time name="total">    1.70    1.72</time>
   <energy>
    <i name="alphaZ">     12.54445055 </i>
    <i name="ewald">   2157.84634796 </i>
    <i name="hartreedc">  -2682.22781086 </i>
    <i name="XCdc">     55.18492899 </i>
    <i name="pawpsdc">   1695.61580856 </i>
    <i name="pawaedc">  -1698.33844727 </i>
    <i name="eentropy">     -0.00000467 </i>
    <i name="bandstr">   -166.17280728 </i>
    <i name="atom">    588.61769381 </i>
    <i name="e_fr_energy">    -36.92984020 </i>
    <i name="e_wo_entrp">    -36.92983554 </i>
    <i name="e_0_energy">    -36.92983787 </i>
   </energy>
  </scstep>
  <scstep>
   <time name="dav">    1.53    1.53</time>
   <time name="total">    1.81    1.82</time>
   <energy>
    <i name="e_fr_energy">    -36.93015556 </i>
    <i name="e_wo_entrp">    -36.93015084 </i>
    <i name="e_0_energy">    -36.93015320 </i>
   </energy>
  </scstep>
  <scstep>
   <time name="dav">    1.62    1.63</time>
   <time name="total">    1.91    1.91</time>
   <energy>
    <i name="e_fr_energy">    -36.93000499 </i>
    <i name="e_wo_entrp">    -36.93000025 </i>
    <i name="e_0_energy">    -36.93000262 </i>
   </energy>
  </scstep>
  <scstep>
   <time name="dav">    1.51    1.51</time>
   <time name="total">    1.79    1.79</time>
   <energy>
    <i name="e_fr_energy">    -36.93002137 </i>
    <i name="e_wo_entrp">    -36.93001667 </i>
    <i name="e_0_energy">    -36.93001902 </i>
   </energy>
  </scstep>
  <scstep>
   <time name="dav">    1.68    1.69</time>
   <time name="total">    1.96    1.97</time>
   <energy>
    <i name="e_fr_energy">    -36.93002254 </i>
    <i name="e_wo_entrp">    -36.93001784 </i>
    <i name="e_0_energy">    -36.93002019 </i>
   </energy>
  </scstep>
  <scstep>
   <time name="dav">    1.58    1.59</time>
   <time name="total">    1.87    1.87</time>
   <energy>
    <i name="e_fr_energy">    -36.93002234 </i>
    <i name="e_wo_entrp">    -36.93001761 </i>
    <i name="e_0_energy">    -36.93001997 </i>
   </energy>
  </scstep>
  <scstep>
   <time name="dav">    1.59    1.59</time>
   <time name="total">    1.87    1.87</time>
   <energy>
    <i name="e_fr_energy">    -36.93002229 </i>
    <i name="e_wo_entrp">    -36.93001757 </i>
    <i name="e_0_energy">    -36.93001993 </i>
   </energy>
  </scstep>
  <scstep>
   <time name="dav">    1.64    1.64</time>
   <time name="total">    1.92    1.93</time>
   <energy>
    <i name="e_fr_energy">    -36.93002218 </i>
    <i name="e_wo_entrp">    -36.93001746 </i>
    <i name="e_0_energy">    -36.93001982 </i>
   </energy>
  </scstep>
  <scstep>
   <time name="dav">    1.28    1.29</time>
   <time name="total">    1.57    1.57</time>
   <energy>
    <i name="e_fr_energy">    -36.93002220 </i>
    <i name="e_wo_entrp">    -36.93001748 </i>
    <i name="e_0_energy">    -36.93001984 </i>
   </energy>
  </scstep>
  <scstep>
   <time name="dav">    1.49    1.50</time>
   <time name="total">    1.77    1.78</time>
   <energy>
    <i name="e_fr_energy">    -36.93002241 </i>
    <i name="e_wo_entrp">    -36.93001769 </i>
    <i name="e_0_energy">    -36.93002005 </i>
   </energy>
  </scstep>
  <scstep>
   <time name="dav">    1.41    1.41</time>
   <time name="total">    1.69    1.69</time>
   <energy>
    <i name="e_fr_energy">    -36.93002257 </i>
    <i name="e_wo_entrp">    -36.93001785 </i>
    <i name="e_0_energy">    -36.93002021 </i>
   </energy>
  </scstep>
  <scstep>
   <time name="dav">    1.50    1.50</time>
   <time name="total">    1.78    1.78</time>
   <energy>
    <i name="e_fr_energy">    -36.93002270 </i>
    <i name="e_wo_entrp">    -36.93001798 </i>
    <i name="e_0_energy">    -36.93002034 </i>
   </energy>
  </scstep>
  <scstep>
   <time name="dav">    1.28    1.28</time>
   <time name="total">    1.56    1.57</time>
   <energy>
    <i name="e_fr_energy">    -36.93002274 </i>
    <i name="e_wo_entrp">    -36.93001801 </i>
    <i name="e_0_energy">    -36.93002037 </i>
   </energy>
  </scstep>
  <scstep>
   <time name="dav">    1.29    1.29</time>
   <time name="total">    1.57    1.58</time>
   <energy>
    <i name="e_fr_energy">    -36.93002272 </i>
    <i name="e_wo_entrp">    -36.93001800 </i>
    <i name="e_0_energy">    -36.93002036 </i>
   </energy>
  </scstep>
  <scstep>
   <time name="dav">    1.32    1.32</time>
   <time name="total">    1.42    1.42</time>
   <energy>
    <i name="alphaZ">     12.54445055 </i>
    <i name="ewald">   2157.84634796 </i>
    <i name="hartreedc">  -2682.22798624 </i>
    <i name="XCdc">     55.18498536 </i>
    <i name="pawpsdc">   1695.61116367 </i>
    <i name="pawaedc">  -1698.33380395 </i>
    <i name="eentropy">     -0.00000472 </i>
    <i name="bandstr">   -166.17286916 </i>
    <i name="atom">    588.61769381 </i>
    <i name="e_fr_energy">    -36.93002271 </i>
    <i name="e_wo_entrp">    -36.93001799 </i>
    <i name="e_0_energy">    -36.93002035 </i>
   </energy>
  </scstep>
  <structure>
   <crystal>
    <varray name="basis" >
     <v>       2.13000000      -1.22975600       0.00000000 </v>
     <v>       2.13000000       1.22975600       0.00000000 </v>
     <v>       0.00000000       0.00000000      20.00000000 </v>
    </varray>
    <i name="volume">    104.77521120 </i>
    <varray name="rec_basis" >
     <v>       0.23474178      -0.40658472       0.00000000 </v>
     <v>       0.23474178       0.40658472       0.00000000 </v>
     <v>       0.00000000       0.00000000       0.05000000 </v>
    </varray>
   </crystal>
   <varray name="positions" >
    <v>       0.00000000       0.00000000       0.00000000 </v>
    <v>       0.33333300       0.33333300       0.00000000 </v>
    <v>       0.00000000       0.00000000       0.24888705 </v>
    <v>       0.33333300       0.33333300       0.24888705 </v>
   </varray>
  </structure>
  <varray name="forces" >
   <v>      -0.00000000      -0.00000000       0.00121730 </v>
   <v>       0.00000000       0.00000000       0.00121730 </v>
   <v>       0.00000000      -0.00000000      -0.00121730 </v>
   <v>      -0.00000000      -0.00000000      -0.00121730 </v>
  </varray>
  <varray name="stress" >
   <v>      12.73917725       0.00000000      -0.00000000 </v>
   <v>       0.00000000      12.73917573       0.00000000 </v>
   <v>       0.00000000      -0.00000000      -0.86293662 </v>
  </varray>
  <energy>
   <i name="e_fr_energy">    -36.93002271 </i>
   <i name="e_wo_entrp">    -36.93002035 </i>
   <i name="e_0_energy">     -0.00000472 </i>
  </energy>
  <time name="totalsc">   28.44   28.61</time>
 </calculation>
 <calculation>
  <scstep>
   <time name="dav">    1.43    1.44</time>
   <time name="total">    1.72    1.75</time>
   <energy>
    <i name="alphaZ">     12.54445055 </i>
    <i name="ewald">   2170.29517984 </i>
    <i name="hartreedc">  -2694.66104929 </i>
    <i name="XCdc">     55.18464561 </i>
    <i name="pawpsdc">   1695.61128134 </i>
    <i name="pawaedc">  -1698.33392141 </i>
    <i name="eentropy">     -0.00000351 </i>
    <i name="bandstr">   -166.18747725 </i>
    <i name="atom">    588.61769381 </i>
    <i name="e_fr_energy">    -36.92920031 </i>
    <i name="e_wo_entrp">    -36.92919680 </i>
    <i name="e_0_energy">    -36.92919855 </i>
   </energy>
  </scstep>
  <scstep>
   <time name="dav">    1.54    1.54</time>
   <time name="total">    1.82    1.82</time>
   <energy>
    <i name="e_fr_energy">    -36.93061548 </i>
    <i name="e_wo_entrp">    -36.93061192 </i>
    <i name="e_0_energy">    -36.93061370 </i>
   </energy>
  </scstep>
  <scstep>
   <time name="dav">    1.60    1.60</time>
   <time name="total">    1.88    1.89</time>
   <energy>
    <i name="e_fr_energy">    -36.93000656 </i>
    <i name="e_wo_entrp">    -36.93000320 </i>
    <i name="e_0_energy">    -36.93000488 </i>
   </energy>
  </scstep>
  <scstep>
   <time name="dav">    1.50    1.51</time>
   <time name="total">    1.79    1.79</time>
   <energy>
    <i name="e_fr_energy">    -36.93007982 </i>
    <i name="e_wo_entrp">    -36.93007666 </i>
    <i name="e_0_energy">    -36.93007824 </i>
   </energy>
  </scstep>
  <scstep>
   <time name="dav">    1.76    1.77</time>
   <time name="total">    2.05    2.05</time>
   <energy>
    <i name="e_fr_energy">    -36.93007562 </i>
    <i name="e_wo_entrp">    -36.93007203 </i>
    <i name="e_0_energy">    -36.93007382 </i>
   </energy>
  </scstep>
  <scstep>
   <time name="dav">    1.57    1.58</time>
   <time name="total">    1.86    1.88</time>
   <energy>
    <i name="e_fr_energy">    -36.93007603 </i>
    <i name="e_wo_entrp">    -36.93007241 </i>
    <i name="e_0_energy">    -36.93007422 </i>
   </energy>
  </scstep>
  <scstep>
   <time name="dav">    1.60    1.60</time>
   <time name="total">    1.88    1.89</time>
   <energy>
    <i name="e_fr_energy">    -36.93007625 </i>
    <i name="e_wo_entrp">    -36.93007263 </i>
    <i name="e_0_energy">    -36.93007444 </i>
   </energy>
  </scstep>
  <scstep>
   <time name="dav">    1.59    1.59</time>
   <time name="total">    1.87    1.87</time>
   <energy>
    <i name="e_fr_energy">    -36.93007606 </i>
    <i name="e_wo_entrp">    -36.93007245 </i>
    <i name="e_0_energy">    -36.93007425 </i>
   </energy>
  </scstep>
  <scstep>
   <time name="dav">    1.56    1.57</time>
   <time name="total">    1.84    1.85</time>
   <energy>
    <i name="e_fr_energy">    -36.93007627 </i>
    <i name="e_wo_entrp">    -36.93007266 </i>
    <i name="e_0_energy">    -36.93007446 </i>
   </energy>
  </scstep>
  <scstep>
   <time name="dav">    1.49    1.49</time>
   <time name="total">    1.77    1.77</time>
   <energy>
    <i name="e_fr_energy">    -36.93007678 </i>
    <i name="e_wo_entrp">    -36.93007317 </i>
    <i name="e_0_energy">    -36.93007498 </i>
   </energy>
  </scstep>
  <scstep>
   <time name="dav">    1.57    1.57</time>
   <time name="total">    1.85    1.85</time>
   <energy>
    <i name="e_fr_energy">    -36.93007727 </i>
    <i name="e_wo_entrp">    -36.93007366 </i>
    <i name="e_0_energy">    -36.93007547 </i>
   </energy>
  </scstep>
  <scstep>
   <time name="dav">    1.56    1.56</time>
   <time name="total">    1.84    1.84</time>
   <energy>
    <i name="e_fr_energy">    -36.93007750 </i>
    <i name="e_wo_entrp">    -36.93007390 </i>
    <i name="e_0_energy">    -36.93007570 </i>
   </energy>
  </scstep>
  <scstep>
   <time name="dav">    1.33    1.33</time>
   <time name="total">    1.60    1.61</time>
   <energy>
    <i name="e_fr_energy">    -36.93007756 </i>
    <i name="e_wo_entrp">    -36.93007395 </i>
    <i name="e_0_energy">    -36.93007575 </i>
   </energy>
  </scstep>
  <scstep>
   <time name="dav">    1.27    1.28</time>
   <time name="total">    1.55    1.55</time>
   <energy>
    <i name="e_fr_energy">    -36.93007754 </i>
    <i name="e_wo_entrp">    -36.93007393 </i>
    <i name="e_0_energy">    -36.93007574 </i>
   </energy>
  </scstep>
  <scstep>
   <time name="dav">    1.29    1.29</time>
   <time name="total">    1.57    1.57</time>
   <energy>
    <i name="e_fr_energy">    -36.93007751 </i>
    <i name="e_wo_entrp">    -36.93007390 </i>
    <i name="e_0_energy">    -36.93007570 </i>
   </energy>
  </scstep>
  <scstep>
   <time name="dav">    1.27    1.27</time>
   <time name="total">    1.55    1.56</time>
   <energy>
    <i name="e_fr_energy">    -36.93007748 </i>
    <i name="e_wo_entrp">    -36.93007387 </i>
    <i name="e_0_energy">    -36.93007567 </i>
   </energy>
  </scstep>
  <scstep>
   <time name="dav">    1.18    1.18</time>
   <time name="total">    1.28    1.28</time>
   <energy>
    <i name="alphaZ">     12.54445055 </i>
    <i name="ewald">   2170.29517984 </i>
    <i name="hartreedc">  -2694.67653938 </i>
    <i name="XCdc">     55.18499381 </i>
    <i name="pawpsdc">   1695.61208773 </i>
    <i name="pawaedc">  -1698.33472676 </i>
    <i name="eentropy">     -0.00000361 </i>
    <i name="bandstr">   -166.17321347 </i>
    <i name="atom">    588.61769381 </i>
    <i name="e_fr_energy">    -36.93007747 </i>
    <i name="e_wo_entrp">    -36.93007386 </i>
    <i name="e_0_energy">    -36.93007567 </i>
   </energy>
  </scstep>
  <structure>
   <crystal>
    <varray name="basis" >
     <v>       2.13000000      -1.22975600       0.00000000 </v>
     <v>       2.13000000       1.22975600       0.00000000 </v>
     <v>       0.00000000       0.00000000      20.00000000 </v>
    </varray>
    <i name="volume">    104.77521120 </i>
    <varray name="rec_basis" >
     <v>       0.23474178      -0.40658472       0.00000000 </v>
     <v>       0.23474178       0.40658472       0.00000000 </v>
     <v>       0.00000000       0.00000000       0.05000000 </v>
    </varray>
   </crystal>
   <varray name="positions" >
    <v>       0.00000000       0.00000000       0.00000000 </v>
    <v>       0.33333300       0.33333300       0.00000000 </v>
    <v>       0.00000000       0.00000000       0.24776826 </v>
    <v>       0.33333300       0.33333300       0.24776826 </v>
   </varray>
  </structure>
  <varray name="forces" >
   <v>       0.00000000       0.00000000       0.00122352 </v>
   <v>      -0.00000000       0.00000000       0.00122352 </v>
   <v>       0.00000000      -0.00000000      -0.00122352 </v>
   <v>      -0.00000000      -0.00000000      -0.00122352 </v>
  </varray>
  <varray name="stress" >
   <v>      12.73929080       0.00000000       0.00000000 </v>
   <v>       0.00000000      12.73928928       0.00000000 </v>
   <v>       0.00000000       0.00000000      -0.86304660 </v>
  </varray>
  <energy>
   <i name="e_fr_energy">    -36.93007747 </i>
   <i name="e_wo_entrp">    -36.93007567 </i>
   <i name="e_0_energy">     -0.00000361 </i>
  </energy>
  <time name="totalsc">   31.94   32.14</time>
 </calculation>
 <calculation>
  <scstep>
   <time name="dav">    1.42    1.42</time>
   <time name="total">    1.71    1.73</time>
   <energy>
    <i name="alphaZ">     12.54445055 </i>
    <i name="ewald">   2195.35886641 </i>
    <i name="hartreedc">  -2719.67834648 </i>
    <i name="XCdc">     55.18353072 </i>
    <i name="pawpsdc">   1695.61240072 </i>
    <i name="pawaedc">  -1698.33503984 </i>
    <i name="eentropy">     -0.00000183 </i>
    <i name="bandstr">   -166.22946393 </i>
    <i name="atom">    588.61769381 </i>
    <i name="e_fr_energy">    -36.92590986 </i>
    <i name="e_wo_entrp">    -36.92590804 </i>
    <i name="e_0_energy">    -36.92590895 </i>
   </energy>
  </scstep>
  <scstep>
   <time name="dav">    1.46    1.47</time>
   <time name="total">    1.74    1.75</time>
   <energy>
    <i name="e_fr_energy">    -36.93236884 </i>
    <i name="e_wo_entrp">    -36.93236725 </i>
    <i name="e_0_energy">    -36.93236805 </i>
   </energy>
  </scstep>
  <scstep>
   <time name="dav">    1.62    1.62</time>
   <time name="total">    1.90    1.90</time>
   <energy>
    <i name="e_fr_energy">    -36.93005233 </i>
    <i name="e_wo_entrp">    -36.93005112 </i>
    <i name="e_0_energy">    -36.93005173 </i>
   </energy>
  </scstep>
  <scstep>
   <time name="dav">    1.58    1.58</time>
   <time name="total">    1.86    1.87</time>
   <energy>
    <i name="e_fr_energy">    -36.93022135 </i>
    <i name="e_wo_entrp">    -36.93022051 </i>
    <i name="e_0_energy">    -36.93022093 </i>
   </energy>
  </scstep>
  <scstep>
   <time name="dav">    1.64    1.65</time>
   <time name="total">    1.93    1.94</time>
   <energy>
    <i name="e_fr_energy">    -36.93018076 </i>
    <i name="e_wo_entrp">    -36.93017879 </i>
    <i name="e_0_energy">    -36.93017978 </i>
   </energy>
  </scstep>
  <scstep>
   <time name="dav">    1.58    1.58</time>
   <time name="total">    1.86    1.87</time>
   <energy>
    <i name="e_fr_energy">    -36.93018227 </i>
    <i name="e_wo_entrp">    -36.93018030 </i>
    <i name="e_0_energy">    -36.93018128 </i>
   </energy>
  </scstep>
  <scstep>
   <time name="dav">    1.60    1.61</time>
   <time name="total">    1.89    1.89</time>
   <energy>
    <i name="e_fr_energy">    -36.93018279 </i>
    <i name="e_wo_entrp">    -36.93018083 </i>
    <i name="e_0_energy">    -36.93018181 </i>
   </energy>
  </scstep>
  <scstep>
   <time name="dav">    1.59    1.59</time>
   <time name="total">    1.87    1.87</time>
   <energy>
    <i name="e_fr_energy">    -36.93018236 </i>
    <i name="e_wo_entrp">    -36.93018039 </i>
    <i name="e_0_energy">    -36.93018137 </i>
   </energy>
  </scstep>
  <scstep>
   <time name="dav">    1.67    1.68</time>
   <time name="total">    1.95    1.96</time>
   <energy>
    <i name="e_fr_energy">    -36.93018304 </i>
    <i name="e_wo_entrp">    -36.93018108 </i>
    <i name="e_0_energy">    -36.93018206 </i>
   </energy>
  </scstep>
  <scstep>
   <time name="dav">    1.49    1.49</time>
   <time name="total">    1.77    1.77</time>
   <energy>
    <i name="e_fr_energy">    -36.93018520 </i>
    <i name="e_wo_entrp">    -36.93018324 </i>
    <i name="e_0_energy">    -36.93018422 </i>
   </energy>
  </scstep>
  <scstep>
   <time name="dav">    1.59    1.60</time>
   <time name="total">    1.87    1.88</time>
   <energy>
    <i name="e_fr_energy">    -36.93018581 </i>
    <i name="e_wo_entrp">    -36.93018385 </i>
    <i name="e_0_energy">    -36.93018483 </i>
   </energy>
  </scstep>
  <scstep>
   <time name="dav">    1.57    1.58</time>
   <time name="total">    1.85    1.86</time>
   <energy>
    <i name="e_fr_energy">    -36.93018668 </i>
    <i name="e_wo_entrp">    -36.93018472 </i>
    <i name="e_0_energy">    -36.93018570 </i>
   </energy>
  </scstep>
  <scstep>
   <time name="dav">    1.33    1.33</time>
   <time name="total">    1.60    1.61</time>
   <energy>
    <i name="e_fr_energy">    -36.93018675 </i>
    <i name="e_wo_entrp">    -36.93018479 </i>
    <i name="e_0_energy">    -36.93018577 </i>
   </energy>
  </scstep>
  <scstep>
   <time name="dav">    1.54    1.54</time>
   <time name="total">    1.81    1.82</time>
   <energy>
    <i name="e_fr_energy">    -36.93018677 </i>
    <i name="e_wo_entrp">    -36.93018481 </i>
    <i name="e_0_energy">    -36.93018579 </i>
   </energy>
  </scstep>
  <scstep>
   <time name="dav">    1.29    1.29</time>
   <time name="total">    1.57    1.58</time>
   <energy>
    <i name="e_fr_energy">    -36.93018668 </i>
    <i name="e_wo_entrp">    -36.93018472 </i>
    <i name="e_0_energy">    -36.93018570 </i>
   </energy>
  </scstep>
  <scstep>
   <time name="dav">    1.27    1.27</time>
   <time name="total">    1.55    1.55</time>
   <energy>
    <i name="e_fr_energy">    -36.93018663 </i>
    <i name="e_wo_entrp">    -36.93018467 </i>
    <i name="e_0_energy">    -36.93018565 </i>
   </energy>
  </scstep>
  <scstep>
   <time name="dav">    1.18    1.19</time>
   <time name="total">    1.46    1.47</time>
   <energy>
    <i name="e_fr_energy">    -36.93018662 </i>
    <i name="e_wo_entrp">    -36.93018466 </i>
    <i name="e_0_energy">    -36.93018564 </i>
   </energy>
  </scstep>
  <scstep>
   <time name="dav">    1.22    1.22</time>
   <time name="total">    1.50    1.50</time>
   <energy>
    <i name="e_fr_energy">    -36.93018661 </i>
    <i name="e_wo_entrp">    -36.93018465 </i>
    <i name="e_0_energy">    -36.93018563 </i>
   </energy>
  </scstep>
  <scstep>
   <time name="dav">    1.20    1.21</time>
   <time name="total">    1.31    1.31</time>
   <energy>
    <i name="alphaZ">     12.54445055 </i>
    <i name="ewald">   2195.35886641 </i>
    <i name="hartreedc">  -2719.73997948 </i>
    <i name="XCdc">     55.18501168 </i>
    <i name="pawpsdc">   1695.60943821 </i>
    <i name="pawaedc">  -1698.33207684 </i>
    <i name="eentropy">     -0.00000196 </i>
    <i name="bandstr">   -166.17358900 </i>
    <i name="atom">    588.61769381 </i>
    <i name="e_fr_energy">    -36.93018662 </i>
    <i name="e_wo_entrp">    -36.93018466 </i>
    <i name="e_0_energy">    -36.93018564 </i>
   </energy>
  </scstep>
  <structure>
   <crystal>
    <varray name="basis" >
     <v>       2.13000000      -1.22975600       0.00000000 </v>
     <v>       2.13000000       1.22975600       0.00000000 </v>
     <v>       0.00000000       0.00000000      20.00000000 </v>
    </varray>
    <i name="volume">    104.77521120 </i>
    <varray name="rec_basis" >
     <v>       0.23474178      -0.40658472       0.00000000 </v>
     <v>       0.23474178       0.40658472       0.00000000 </v>
     <v>       0.00000000       0.00000000       0.05000000 </v>
    </varray>
   </crystal>
   <varray name="positions" >
    <v>       0.00000000       0.00000000       0.00000000 </v>
    <v>       0.33333300       0.33333300       0.00000000 </v>
    <v>       0.00000000       0.00000000       0.24553070 </v>
    <v>       0.33333300       0.33333300       0.24553070 </v>
   </varray>
  </structure>
  <varray name="forces" >
   <v>       0.00000000       0.00000000       0.00122449 </v>
[...]
       <r>     7.4135     0.0000    22.9751 </r>
       <r>     7.4248     0.0000    22.9751 </r>
       <r>     7.4362     0.0000    22.9751 </r>
       <r>     7.4475     0.0000    22.9751 </r>
       <r>     7.4589     0.0000    22.9751 </r>
       <r>     7.4703     0.0000    22.9751 </r>
       <r>     7.4816     0.0000    22.9751 </r>
       <r>     7.4930     0.0000    22.9751 </r>
       <r>     7.5044     0.0000    22.9751 </r>
       <r>     7.5157     0.0000    22.9751 </r>
       <r>     7.5271     0.0113    22.9752 </r>
       <r>     7.5385     0.5225    22.9811 </r>
       <r>     7.5498     2.5844    23.0105 </r>
       <r>     7.5612     1.5606    23.0282 </r>
       <r>     7.5726     0.1093    23.0295 </r>
       <r>     7.5839     0.0008    23.0295 </r>
       <r>     7.5953     0.0000    23.0295 </r>
       <r>     7.6066     0.0000    23.0295 </r>
       <r>     7.6180     0.0000    23.0295 </r>
       <r>     7.6294     0.0000    23.0295 </r>
       <r>     7.6407     0.0000    23.0295 </r>
       <r>     7.6521     0.0000    23.0295 </r>
       <r>     7.6635     0.0000    23.0295 </r>
       <r>     7.6748     0.0000    23.0295 </r>
       <r>     7.6862     0.0000    23.0295 </r>
       <r>     7.6976     0.0000    23.0295 </r>
       <r>     7.7089     0.0000    23.0295 </r>
       <r>     7.7203     0.0000    23.0295 </r>
       <r>     7.7317     0.0000    23.0295 </r>
       <r>     7.7430     0.0000    23.0295 </r>
       <r>     7.7544     0.0000    23.0295 </r>
       <r>     7.7657     0.0000    23.0295 </r>
       <r>     7.7771     0.0000    23.0295 </r>
       <r>     7.7885     0.0000    23.0295 </r>
       <r>     7.7998     0.0000    23.0295 </r>
       <r>     7.8112     0.0000    23.0295 </r>
       <r>     7.8226     0.0000    23.0295 </r>
       <r>     7.8339     0.0000    23.0295 </r>
       <r>     7.8453     0.0004    23.0295 </r>
       <r>     7.8567     0.0537    23.0301 </r>
       <r>     7.8680     0.7747    23.0389 </r>
       <r>     7.8794     1.2953    23.0536 </r>
       <r>     7.8908     0.2645    23.0566 </r>
       <r>     7.9021     0.0058    23.0567 </r>
       <r>     7.9135     0.0000    23.0567 </r>
       <r>     7.9249     0.0009    23.0567 </r>
       <r>     7.9362     0.1200    23.0581 </r>
       <r>     7.9476     1.6204    23.0765 </r>
       <r>     7.9589     2.5489    23.1054 </r>
       <r>     7.9703     0.4887    23.1110 </r>
       <r>     7.9817     0.0100    23.1111 </r>
       <r>     7.9930     0.0000    23.1111 </r>
       <r>     8.0044     0.0000    23.1111 </r>
       <r>     8.0158     0.0000    23.1111 </r>
       <r>     8.0271     0.0000    23.1111 </r>
       <r>     8.0385     0.0000    23.1111 </r>
       <r>     8.0499     0.0000    23.1111 </r>
       <r>     8.0612     0.0000    23.1111 </r>
       <r>     8.0726     0.0000    23.1111 </r>
       <r>     8.0840     0.0000    23.1111 </r>
       <r>     8.0953     0.0000    23.1111 </r>
       <r>     8.1067     0.0000    23.1111 </r>
       <r>     8.1180     0.0000    23.1111 </r>
       <r>     8.1294     0.0042    23.1112 </r>
       <r>     8.1408     0.3035    23.1146 </r>
       <r>     8.1521     2.2552    23.1402 </r>
       <r>     8.1635     2.1699    23.1649 </r>
       <r>     8.1749     1.4063    23.1809 </r>
       <r>     8.1862     2.1384    23.2052 </r>
       <r>     8.1976     2.9738    23.2390 </r>
       <r>     8.2090     1.8620    23.2601 </r>
       <r>     8.2203     1.2037    23.2738 </r>
       <r>     8.2317     1.5608    23.2916 </r>
       <r>     8.2431     2.6566    23.3217 </r>
       <r>     8.2544     0.6057    23.3286 </r>
       <r>     8.2658     0.0149    23.3288 </r>
       <r>     8.2771     0.0000    23.3288 </r>
       <r>     8.2885     0.0000    23.3288 </r>
       <r>     8.2999     0.0000    23.3288 </r>
       <r>     8.3112     0.0000    23.3288 </r>
       <r>     8.3226     0.0000    23.3288 </r>
       <r>     8.3340     0.0003    23.3288 </r>
       <r>     8.3453     0.0618    23.3295 </r>
       <r>     8.3567     1.2193    23.3434 </r>
       <r>     8.3681     2.7325    23.3744 </r>
       <r>     8.3794     0.7522    23.3830 </r>
       <r>     8.3908     0.0226    23.3832 </r>
       <r>     8.4022     0.0001    23.3832 </r>
       <r>     8.4135     0.0000    23.3832 </r>
       <r>     8.4249     0.0000    23.3832 </r>
       <r>     8.4362     0.0000    23.3832 </r>
       <r>     8.4476     0.0000    23.3832 </r>
       <r>     8.4590     0.0000    23.3832 </r>
       <r>     8.4703     0.0000    23.3832 </r>
       <r>     8.4817     0.0085    23.3833 </r>
       <r>     8.4931     0.4492    23.3884 </r>
       <r>     8.5044     2.5014    23.4168 </r>
       <r>     8.5158     1.6944    23.4361 </r>
       <r>     8.5272     0.1342    23.4376 </r>
       <r>     8.5385     0.0011    23.4376 </r>
       <r>     8.5499     0.0000    23.4376 </r>
       <r>     8.5613     0.0000    23.4376 </r>
       <r>     8.5726     0.0000    23.4376 </r>
       <r>     8.5840     0.0000    23.4376 </r>
       <r>     8.5954     0.0000    23.4376 </r>
       <r>     8.6067     0.0000    23.4376 </r>
       <r>     8.6181     0.0000    23.4376 </r>
       <r>     8.6294     0.0000    23.4376 </r>
       <r>     8.6408     0.0000    23.4376 </r>
       <r>     8.6522     0.0000    23.4376 </r>
       <r>     8.6635     0.0000    23.4376 </r>
       <r>     8.6749     0.0000    23.4376 </r>
       <r>     8.6863     0.0000    23.4376 </r>
       <r>     8.6976     0.0000    23.4376 </r>
       <r>     8.7090     0.0000    23.4376 </r>
       <r>     8.7204     0.0000    23.4376 </r>
       <r>     8.7317     0.0000    23.4376 </r>
       <r>     8.7431     0.0000    23.4376 </r>
       <r>     8.7545     0.0000    23.4376 </r>
       <r>     8.7658     0.0000    23.4376 </r>
       <r>     8.7772     0.0000    23.4376 </r>
       <r>     8.7885     0.0000    23.4376 </r>
       <r>     8.7999     0.0000    23.4376 </r>
       <r>     8.8113     0.0000    23.4376 </r>
       <r>     8.8226     0.0000    23.4376 </r>
       <r>     8.8340     0.0000    23.4376 </r>
       <r>     8.8454     0.0000    23.4376 </r>
       <r>     8.8567     0.0000    23.4376 </r>
       <r>     8.8681     0.0000    23.4376 </r>
       <r>     8.8795     0.0000    23.4376 </r>
       <r>     8.8908     0.0001    23.4376 </r>
       <r>     8.9022     0.0295    23.4380 </r>
       <r>     8.9136     0.8593    23.4477 </r>
       <r>     8.9249     2.7606    23.4791 </r>
       <r>     8.9363     1.0906    23.4915 </r>
       <r>     8.9476     0.0485    23.4921 </r>
       <r>     8.9590     0.0002    23.4921 </r>
       <r>     8.9704     0.0000    23.4921 </r>
       <r>     8.9817     0.0002    23.4921 </r>
       <r>     8.9931     0.0263    23.4924 </r>
       <r>     9.0045     0.3008    23.4958 </r>
       <r>     9.0158     0.4039    23.5004 </r>
       <r>     9.0272     0.0658    23.5011 </r>
       <r>     9.0386     0.0011    23.5011 </r>
       <r>     9.0499     0.0000    23.5011 </r>
       <r>     9.0613     0.0004    23.5011 </r>
       <r>     9.0727     0.0709    23.5019 </r>
       <r>     9.0840     1.2970    23.5167 </r>
       <r>     9.0954     2.7128    23.5475 </r>
       <r>     9.1067     1.0376    23.5593 </r>
       <r>     9.1181     2.3728    23.5863 </r>
       <r>     9.1295     2.3824    23.6133 </r>
       <r>     9.1408     1.5703    23.6312 </r>
       <r>     9.1522     0.5071    23.6370 </r>
       <r>     9.1636     0.0206    23.6372 </r>
       <r>     9.1749     0.0001    23.6372 </r>
       <r>     9.1863     0.0000    23.6372 </r>
       <r>     9.1977     0.0000    23.6372 </r>
       <r>     9.2090     0.0000    23.6372 </r>
       <r>     9.2204     0.0000    23.6372 </r>
       <r>     9.2318     0.0000    23.6372 </r>
       <r>     9.2431     0.0000    23.6372 </r>
       <r>     9.2545     0.0000    23.6372 </r>
       <r>     9.2659     0.0135    23.6373 </r>
       <r>     9.2772     0.5753    23.6439 </r>
       <r>     9.2886     2.6317    23.6738 </r>
       <r>     9.2999     1.4726    23.6905 </r>
       <r>     9.3113     0.0951    23.6916 </r>
       <r>     9.3227     0.0006    23.6916 </r>
       <r>     9.3340     0.0000    23.6916 </r>
       <r>     9.3454     0.0000    23.6916 </r>
       <r>     9.3568     0.0000    23.6916 </r>
       <r>     9.3681     0.0037    23.6917 </r>
       <r>     9.3795     0.2860    23.6949 </r>
       <r>     9.3909     2.3895    23.7221 </r>
       <r>     9.4022     3.2530    23.7590 </r>
       <r>     9.4136     1.1615    23.7722 </r>
       <r>     9.4250     0.0887    23.7732 </r>
       <r>     9.4363     0.0008    23.7732 </r>
       <r>     9.4477     0.0111    23.7734 </r>
       <r>     9.4590     0.5187    23.7793 </r>
       <r>     9.4704     2.5806    23.8086 </r>
       <r>     9.4818     1.5671    23.8264 </r>
       <r>     9.4931     0.1105    23.8277 </r>
       <r>     9.5045     0.0008    23.8277 </r>
       <r>     9.5159     0.0000    23.8277 </r>
       <r>     9.5272     0.0000    23.8277 </r>
       <r>     9.5386     0.0000    23.8277 </r>
       <r>     9.5500     0.0000    23.8277 </r>
       <r>     9.5613     0.0000    23.8277 </r>
       <r>     9.5727     0.0000    23.8277 </r>
       <r>     9.5841     0.0078    23.8278 </r>
       <r>     9.5954     0.3107    23.8313 </r>
       <r>     9.6068     1.3329    23.8464 </r>
       <r>     9.6181     0.7005    23.8544 </r>
       <r>     9.6295     0.0423    23.8549 </r>
       <r>     9.6409     0.0002    23.8549 </r>
       <r>     9.6522     0.0000    23.8549 </r>
       <r>     9.6636     0.0072    23.8550 </r>
       <r>     9.6750     0.4087    23.8596 </r>
       <r>     9.6863     2.4451    23.8874 </r>
       <r>     9.6977     1.7752    23.9076 </r>
       <r>     9.7091     0.1514    23.9093 </r>
       <r>     9.7204     0.0013    23.9093 </r>
       <r>     9.7318     0.0000    23.9093 </r>
       <r>     9.7432     0.0000    23.9093 </r>
       <r>     9.7545     0.0000    23.9093 </r>
       <r>     9.7659     0.0000    23.9093 </r>
       <r>     9.7772     0.0000    23.9093 </r>
       <r>     9.7886     0.0000    23.9093 </r>
       <r>     9.8000     0.0000    23.9093 </r>
       <r>     9.8113     0.0000    23.9093 </r>
       <r>     9.8227     0.0001    23.9093 </r>
       <r>     9.8341     0.0170    23.9095 </r>
       <r>     9.8454     0.2526    23.9124 </r>
       <r>     9.8568     0.4349    23.9173 </r>
       <r>     9.8682     0.0915    23.9183 </r>
       <r>     9.8795     0.0021    23.9184 </r>
       <r>     9.8909     0.0000    23.9184 </r>
       <r>     9.9023     0.0000    23.9184 </r>
       <r>     9.9136     0.0013    23.9184 </r>
       <r>     9.9250     0.1554    23.9201 </r>
       <r>     9.9363     1.7930    23.9405 </r>
       <r>     9.9477     2.4320    23.9682 </r>
       <r>     9.9591     0.4000    23.9727 </r>
       <r>     9.9704     0.0069    23.9728 </r>
       <r>     9.9818     0.0000    23.9728 </r>
       <r>     9.9932     0.0000    23.9728 </r>
       <r>    10.0045     0.0000    23.9728 </r>
       <r>    10.0159     0.0000    23.9728 </r>
       <r>    10.0273     0.0000    23.9728 </r>
       <r>    10.0386     0.0000    23.9728 </r>
       <r>    10.0500     0.0000    23.9728 </r>
       <r>    10.0614     0.0000    23.9728 </r>
       <r>    10.0727     0.0000    23.9728 </r>
       <r>    10.0841     0.0000    23.9728 </r>
       <r>    10.0955     0.0000    23.9728 </r>
       <r>    10.1068     0.0000    23.9728 </r>
       <r>    10.1182     0.0000    23.9728 </r>
       <r>    10.1295     0.0000    23.9728 </r>
       <r>    10.1409     0.0000    23.9728 </r>
       <r>    10.1523     0.0000    23.9728 </r>
       <r>    10.1636     0.0000    23.9728 </r>
       <r>    10.1750     0.0102    23.9729 </r>
       <r>    10.1864     0.3566    23.9770 </r>
       <r>    10.1977     1.3584    23.9924 </r>
       <r>    10.2091     0.6351    23.9996 </r>
       <r>    10.2205     0.0338    24.0000 </r>
       <r>    10.2318     0.0002    24.0000 </r>
       <r>    10.2432     0.0000    24.0000 </r>
       <r>    10.2546     0.0000    24.0000 </r>
       <r>    10.2659     0.0000    24.0000 </r>
       <r>    10.2773     0.0000    24.0000 </r>
       <r>    10.2886     0.0000    24.0000 </r>
       <r>    10.3000     0.0000    24.0000 </r>
       <r>    10.3114     0.0000    24.0000 </r>
       <r>    10.3227     0.0000    24.0000 </r>
       <r>    10.3341     0.0000    24.0000 </r>
       <r>    10.3455     0.0000    24.0000 </r>
       <r>    10.3568     0.0000    24.0000 </r>
       <r>    10.3682     0.0000    24.0000 </r>
       <r>    10.3796     0.0000    24.0000 </r>
       <r>    10.3909     0.0000    24.0000 </r>
       <r>    10.4023     0.0000    24.0000 </r>
       <r>    10.4137     0.0000    24.0000 </r>
       <r>    10.4250     0.0000    24.0000 </r>
       <r>    10.4364     0.0000    24.0000 </r>
       <r>    10.4477     0.0000    24.0000 </r>
       <r>    10.4591     0.0000    24.0000 </r>
       <r>    10.4705     0.0000    24.0000 </r>
       <r>    10.4818     0.0000    24.0000 </r>
       <r>    10.4932     0.0000    24.0000 </r>
       <r>    10.5046     0.0000    24.0000 </r>
       <r>    10.5159     0.0000    24.0000 </r>
       <r>    10.5273     0.0000    24.0000 </r>
       <r>    10.5387     0.0000    24.0000 </r>
       <r>    10.5500     0.0000    24.0000 </r>
       <r>    10.5614     0.0000    24.0000 </r>
       <r>    10.5728     0.0000    24.0000 </r>
       <r>    10.5841     0.0000    24.0000 </r>
       <r>    10.5955     0.0000    24.0000 </r>
       <r>    10.6068     0.0000    24.0000 </r>
       <r>    10.6182     0.0000    24.0000 </r>
       <r>    10.6296     0.0000    24.0000 </r>
       <r>    10.6409     0.0000    24.0000 </r>
       <r>    10.6523     0.0000    24.0000 </r>
       <r>    10.6637     0.0000    24.0000 </r>
       <r>    10.6750     0.0000    24.0000 </r>
       <r>    10.6864     0.0000    24.0000 </r>
       <r>    10.6978     0.0000    24.0000 </r>
       <r>    10.7091     0.0000    24.0000 </r>
       <r>    10.7205     0.0000    24.0000 </r>
       <r>    10.7319     0.0000    24.0000 </r>
       <r>    10.7432     0.0000    24.0000 </r>
       <r>    10.7546     0.0000    24.0000 </r>
       <r>    10.7660     0.0000    24.0000 </r>
       <r>    10.7773     0.0000    24.0000 </r>
       <r>    10.7887     0.0000    24.0000 </r>
       <r>    10.8000     0.0000    24.0000 </r>
       <r>    10.8114     0.0000    24.0000 </r>
       <r>    10.8228     0.0000    24.0000 </r>
       <r>    10.8341     0.0000    24.0000 </r>
       <r>    10.8455     0.0000    24.0000 </r>
       <r>    10.8569     0.0000    24.0000 </r>
       <r>    10.8682     0.0000    24.0000 </r>
       <r>    10.8796     0.0000    24.0000 </r>
       <r>    10.8910     0.0000    24.0000 </r>
       <r>    10.9023     0.0000    24.0000 </r>
       <r>    10.9137     0.0000    24.0000 </r>
       <r>    10.9251     0.0000    24.0000 </r>
       <r>    10.9364     0.0000    24.0000 </r>
       <r>    10.9478     0.0000    24.0000 </r>
       <r>    10.9591     0.0000    24.0000 </r>
       <r>    10.9705     0.0000    24.0000 </r>
       <r>    10.9819     0.0000    24.0000 </r>
       <r>    10.9932     0.0000    24.0000 </r>
       <r>    11.0046     0.0000    24.0000 </r>
       <r>    11.0160     0.0000    24.0000 </r>
       <r>    11.0273     0.0000    24.0000 </r>
       <r>    11.0387     0.0000    24.0000 </r>
       <r>    11.0501     0.0000    24.0000 </r>
       <r>    11.0614     0.0000    24.0000 </r>
       <r>    11.0728     0.0000    24.0000 </r>
       <r>    11.0842     0.0000    24.0000 </r>
       <r>    11.0955     0.0000    24.0000 </r>
       <r>    11.1069     0.0000    24.0000 </r>
       <r>    11.1182     0.0000    24.0000 </r>
       <r>    11.1296     0.0000    24.0000 </r>
       <r>    11.1410     0.0000    24.0000 </r>
       <r>    11.1523     0.0000    24.0000 </r>
       <r>    11.1637     0.0000    24.0000 </r>
       <r>    11.1751     0.0000    24.0000 </r>
       <r>    11.1864     0.0000    24.0000 </r>
       <r>    11.1978     0.0000    24.0000 </r>
       <r>    11.2092     0.0000    24.0000 </r>
       <r>    11.2205     0.0000    24.0000 </r>
       <r>    11.2319     0.0000    24.0000 </r>
       <r>    11.2433     0.0000    24.0000 </r>
       <r>    11.2546     0.0000    24.0000 </r>
       <r>    11.2660     0.0000    24.0000 </r>
       <r>    11.2773     0.0000    24.0000 </r>
       <r>    11.2887     0.0000    24.0000 </r>
       <r>    11.3001     0.0000    24.0000 </r>
       <r>    11.3114     0.0000    24.0000 </r>
       <r>    11.3228     0.0000    24.0000 </r>
       <r>    11.3342     0.0000    24.0000 </r>
       <r>    11.3455     0.0000    24.0000 </r>
       <r>    11.3569     0.0000    24.0000 </r>
       <r>    11.3683     0.0000    24.0000 </r>
       <r>    11.3796     0.0000    24.0000 </r>
       <r>    11.3910     0.0000    24.0000 </r>
       <r>    11.4024     0.0000    24.0000 </r>
       <r>    11.4137     0.0000    24.0000 </r>
       <r>    11.4251     0.0000    24.0000 </r>
       <r>    11.4365     0.0000    24.0000 </r>
       <r>    11.4478     0.0000    24.0000 </r>
       <r>    11.4592     0.0000    24.0000 </r>
       <r>    11.4705     0.0000    24.0000 </r>
       <r>    11.4819     0.0000    24.0000 </r>
       <r>    11.4933     0.0000    24.0000 </r>
       <r>    11.5046     0.0000    24.0000 </r>
       <r>    11.5160     0.0000    24.0000 </r>
       <r>    11.5274     0.0000    24.0000 </r>
       <r>    11.5387     0.0000    24.0000 </r>
       <r>    11.5501     0.0000    24.0000 </r>
       <r>    11.5615     0.0000    24.0000 </r>
       <r>    11.5728     0.0000    24.0000 </r>
       <r>    11.5842     0.0000    24.0000 </r>
       <r>    11.5956     0.0000    24.0000 </r>
       <r>    11.6069     0.0000    24.0000 </r>
       <r>    11.6183     0.0000    24.0000 </r>
       <r>    11.6296     0.0000    24.0000 </r>
       <r>    11.6410     0.0000    24.0000 </r>
       <r>    11.6524     0.0000    24.0000 </r>
       <r>    11.6637     0.0000    24.0000 </r>
       <r>    11.6751     0.0000    24.0000 </r>
       <r>    11.6865     0.0000    24.0000 </r>
       <r>    11.6978     0.0000    24.0000 </r>
       <r>    11.7092     0.0000    24.0000 </r>
       <r>    11.7206     0.0000    24.0000 </r>
       <r>    11.7319     0.0000    24.0000 </r>
       <r>    11.7433     0.0000    24.0000 </r>
      </set>
     </set>
    </array>
   </total>
  </dos>
 </calculation>
 <structure name="finalpos" >
  <crystal>
   <varray name="basis" >
    <v>       2.13000000      -1.22975600       0.00000000 </v>
    <v>       2.13000000       1.22975600       0.00000000 </v>
    <v>       0.00000000       0.00000000      20.00000000 </v>
   </varray>
   <i name="volume">    104.77521120 </i>
   <varray name="rec_basis" >
    <v>       0.23474178      -0.40658472       0.00000000 </v>
    <v>       0.23474178       0.40658472       0.00000000 </v>
    <v>       0.00000000       0.00000000       0.05000000 </v>
   </varray>
  </crystal>
  <varray name="positions" >
   <v>       0.00000000       0.00000000       0.00000000 </v>
   <v>       0.33333300       0.33333300       0.00000000 </v>
   <v>       0.00000000       0.00000000       0.22206301 </v>
   <v>       0.33333300       0.33333300       0.22206301 </v>
  </varray>
  <varray name="selective"  type="logical" >
   <v type="logical" >  F  F  F </v>
   <v type="logical" >  F  F  F </v>
   <v type="logical" >  F  F  T </v>
   <v type="logical" >  F  F  T </v>
  </varray>
  <nose>
   <v>      -3.00000000       0.00000000       0.00010000       0.00010000 </v>
  </nose>
 </structure>
</modeling>
