bilayer_graphene_AA                     
           1
     2.130000   -1.229756    0.000000
     2.130000    1.229756    0.000000
     0.000000    0.000000   20.000000
   C 
   4
Direct configuration=     1
   0.00000000  0.00000000  0.00000000
   0.33333300  0.33333300  0.00000000
   0.00000000  0.00000000  0.25000000
   0.33333300  0.33333300  0.25000000
Direct configuration=     2
   0.00000000  0.00000000  0.00000000
   0.33333300  0.33333300  0.00000000
   0.00000000  0.00000000  0.24999709
   0.33333300  0.33333300  0.24999709
Direct configuration=     3
   0.00000000  0.00000000  0.00000000
   0.33333300  0.33333300  0.00000000
   0.00000000  0.00000000  0.24998835
   0.33333300  0.33333300  0.24998835
Direct configuration=     4
   0.00000000  0.00000000  0.00000000
   0.33333300  0.33333300  0.00000000
   0.00000000  0.00000000  0.24997087
   0.33333300  0.33333300  0.24997087
Direct configuration=     5
   0.00000000  0.00000000  0.00000000
   0.33333300  0.33333300  0.00000000
   0.00000000  0.00000000  0.24993590
   0.33333300  0.33333300  0.24993590
Direct configuration=     6
   0.00000000  0.00000000  0.00000000
   0.33333300  0.33333300  0.00000000
   0.00000000  0.00000000  0.24986598
   0.33333300  0.33333300  0.24986598
Direct configuration=     7
   0.00000000  0.00000000  0.00000000
   0.33333300  0.33333300  0.00000000
   0.00000000  0.00000000  0.24972613
   0.33333300  0.33333300  0.24972613
Direct configuration=     8
   0.00000000  0.00000000  0.00000000
   0.33333300  0.33333300  0.00000000
   0.00000000  0.00000000  0.24944644
   0.33333300  0.33333300  0.24944644
Direct configuration=     9
   0.00000000  0.00000000  0.00000000
   0.33333300  0.33333300  0.00000000
   0.00000000  0.00000000  0.24888705
   0.33333300  0.33333300  0.24888705
Direct configuration=    10
   0.00000000  0.00000000  0.00000000
   0.33333300  0.33333300  0.00000000
   0.00000000  0.00000000  0.24776826
   0.33333300  0.33333300  0.24776826
Direct configuration=    11
   0.00000000  0.00000000  0.00000000
   0.33333300  0.33333300  0.00000000
   0.00000000  0.00000000  0.24553070
   0.33333300  0.33333300  0.24553070
Direct configuration=    12
   0.00000000  0.00000000  0.00000000
   0.33333300  0.33333300  0.00000000
   0.00000000  0.00000000  0.24105558
   0.33333300  0.33333300  0.24105558
Direct configuration=    13
   0.00000000  0.00000000  0.00000000
   0.33333300  0.33333300  0.00000000
   0.00000000  0.00000000  0.23210533
   0.33333300  0.33333300  0.23210533
Direct configuration=    14
   0.00000000  0.00000000  0.00000000
   0.33333300  0.33333300  0.00000000
   0.00000000  0.00000000  0.21420483
   0.33333300  0.33333300  0.21420483
Direct configuration=    15
   0.00000000  0.00000000  0.00000000
   0.33333300  0.33333300  0.00000000
   0.00000000  0.00000000  0.22533864
   0.33333300  0.33333300  0.22533864
Direct configuration=    16
   0.00000000  0.00000000  0.00000000
   0.33333300  0.33333300  0.00000000
   0.00000000  0.00000000  0.22112025
   0.33333300  0.33333300  0.22112025
Direct configuration=    17
   0.00000000  0.00000000  0.00000000
   0.33333300  0.33333300  0.00000000
   0.00000000  0.00000000  0.22206301
   0.33333300  0.33333300  0.22206301
