  27  27   0   0
  0.6214970E+02  0.9846000E-09  0.9841284E-09  0.2000000E-08  0.5000000E-15
  1.000000000000000E-004
  CAR 
 W-1, se-2                               
      2.35238530    -17.44995452  301     -1.72359631      1.00000000
    -17.450  0.0000E+00  0.0000E+00
    -17.384  0.0000E+00  0.0000E+00
    -17.318  0.0000E+00  0.0000E+00
    -17.252  0.0000E+00  0.0000E+00
    -17.186  0.0000E+00  0.0000E+00
    -17.120  0.0000E+00  0.0000E+00
    -17.054  0.0000E+00  0.0000E+00
    -16.988  0.0000E+00  0.0000E+00
    -16.922  0.0000E+00  0.0000E+00
    -16.856  0.0000E+00  0.0000E+00
    -16.790  0.0000E+00  0.0000E+00
    -16.724  0.0000E+00  0.0000E+00
    -16.658  0.0000E+00  0.0000E+00
    -16.592  0.1172E-09  0.7738E-11
    -16.526  0.1582E+01  0.1044E+00
    -16.460  0.4366E+01  0.3926E+00
    -16.394  0.4586E+01  0.6956E+00
    -16.328  0.4199E+01  0.9731E+00
    -16.262  0.4915E+01  0.1298E+01
    -16.196  0.4725E+01  0.1610E+01
    -16.130  0.4742E+01  0.1923E+01
    -16.064  0.4900E+01  0.2247E+01
    -15.998  0.4644E+01  0.2554E+01
    -15.932  0.5255E+01  0.2901E+01
    -15.866  0.4486E+01  0.3197E+01
    -15.800  0.4804E+01  0.3515E+01
    -15.734  0.5317E+01  0.3867E+01
    -15.668  0.5940E+01  0.4259E+01
    -15.602  0.5800E+01  0.4642E+01
    -15.536  0.4936E+01  0.4968E+01
    -15.470  0.5688E+01  0.5343E+01
    -15.404  0.6571E+01  0.5777E+01
    -15.338  0.9674E+01  0.6416E+01
    -15.272  0.1373E+02  0.7324E+01
    -15.206  0.1502E+02  0.8317E+01
    -15.140  0.1583E+02  0.9362E+01
    -15.074  0.1618E+02  0.1043E+02
    -15.008  0.1584E+02  0.1148E+02
    -14.942  0.1741E+02  0.1263E+02
    -14.876  0.1889E+02  0.1387E+02
    -14.810  0.2019E+02  0.1521E+02
    -14.744  0.2131E+02  0.1661E+02
    -14.678  0.2222E+02  0.1808E+02
    -14.612  0.2673E+02  0.1985E+02
    -14.546  0.3227E+02  0.2198E+02
    -14.480  0.3820E+02  0.2450E+02
    -14.414  0.3131E+02  0.2657E+02
    -14.348  0.3689E+02  0.2901E+02
    -14.282  0.4726E+02  0.3213E+02
    -14.216  0.3112E+02  0.3419E+02
    -14.150  0.1990E+02  0.3550E+02
    -14.084  0.7468E+01  0.3600E+02
    -14.018  0.0000E+00  0.3600E+02
    -13.952  0.0000E+00  0.3600E+02
    -13.886  0.0000E+00  0.3600E+02
    -13.820  0.0000E+00  0.3600E+02
    -13.754  0.0000E+00  0.3600E+02
    -13.688  0.0000E+00  0.3600E+02
    -13.622  0.0000E+00  0.3600E+02
    -13.555  0.0000E+00  0.3600E+02
    -13.489  0.0000E+00  0.3600E+02
    -13.423  0.0000E+00  0.3600E+02
    -13.357  0.0000E+00  0.3600E+02
    -13.291  0.0000E+00  0.3600E+02
    -13.225  0.0000E+00  0.3600E+02
    -13.159  0.0000E+00  0.3600E+02
    -13.093  0.0000E+00  0.3600E+02
    -13.027  0.0000E+00  0.3600E+02
    -12.961  0.0000E+00  0.3600E+02
    -12.895  0.0000E+00  0.3600E+02
    -12.829  0.0000E+00  0.3600E+02
    -12.763  0.0000E+00  0.3600E+02
    -12.697  0.0000E+00  0.3600E+02
    -12.631  0.0000E+00  0.3600E+02
    -12.565  0.0000E+00  0.3600E+02
    -12.499  0.0000E+00  0.3600E+02
    -12.433  0.0000E+00  0.3600E+02
    -12.367  0.0000E+00  0.3600E+02
    -12.301  0.0000E+00  0.3600E+02
    -12.235  0.0000E+00  0.3600E+02
    -12.169  0.0000E+00  0.3600E+02
    -12.103  0.0000E+00  0.3600E+02
    -12.037  0.0000E+00  0.3600E+02
    -11.971  0.0000E+00  0.3600E+02
    -11.905  0.0000E+00  0.3600E+02
    -11.839  0.0000E+00  0.3600E+02
    -11.773  0.0000E+00  0.3600E+02
    -11.707  0.0000E+00  0.3600E+02
    -11.641  0.0000E+00  0.3600E+02
    -11.575  0.0000E+00  0.3600E+02
    -11.509  0.0000E+00  0.3600E+02
    -11.443  0.0000E+00  0.3600E+02
    -11.377  0.0000E+00  0.3600E+02
    -11.311  0.0000E+00  0.3600E+02
    -11.245  0.0000E+00  0.3600E+02
    -11.179  0.0000E+00  0.3600E+02
    -11.113  0.0000E+00  0.3600E+02
    -11.047  0.0000E+00  0.3600E+02
    -10.981  0.0000E+00  0.3600E+02
    -10.915  0.0000E+00  0.3600E+02
    -10.849  0.0000E+00  0.3600E+02
    -10.783  0.0000E+00  0.3600E+02
    -10.717  0.0000E+00  0.3600E+02
    -10.651  0.0000E+00  0.3600E+02
    -10.585  0.0000E+00  0.3600E+02
    -10.519  0.0000E+00  0.3600E+02
    -10.453  0.0000E+00  0.3600E+02
    -10.387  0.0000E+00  0.3600E+02
    -10.321  0.0000E+00  0.3600E+02
    -10.255  0.0000E+00  0.3600E+02
    -10.189  0.0000E+00  0.3600E+02
    -10.123  0.0000E+00  0.3600E+02
    -10.057  0.0000E+00  0.3600E+02
     -9.991  0.0000E+00  0.3600E+02
     -9.925  0.0000E+00  0.3600E+02
     -9.859  0.0000E+00  0.3600E+02
     -9.793  0.0000E+00  0.3600E+02
     -9.727  0.0000E+00  0.3600E+02
     -9.661  0.0000E+00  0.3600E+02
     -9.595  0.0000E+00  0.3600E+02
     -9.529  0.0000E+00  0.3600E+02
     -9.463  0.0000E+00  0.3600E+02
     -9.397  0.0000E+00  0.3600E+02
     -9.331  0.0000E+00  0.3600E+02
     -9.265  0.0000E+00  0.3600E+02
     -9.199  0.0000E+00  0.3600E+02
     -9.133  0.0000E+00  0.3600E+02
     -9.067  0.0000E+00  0.3600E+02
     -9.001  0.0000E+00  0.3600E+02
     -8.935  0.0000E+00  0.3600E+02
     -8.869  0.0000E+00  0.3600E+02
     -8.803  0.0000E+00  0.3600E+02
     -8.737  0.0000E+00  0.3600E+02
     -8.671  0.0000E+00  0.3600E+02
     -8.605  0.0000E+00  0.3600E+02
     -8.539  0.0000E+00  0.3600E+02
     -8.473  0.0000E+00  0.3600E+02
     -8.407  0.0000E+00  0.3600E+02
     -8.341  0.0000E+00  0.3600E+02
     -8.275  0.0000E+00  0.3600E+02
     -8.209  0.0000E+00  0.3600E+02
     -8.143  0.4409E+00  0.3603E+02
     -8.077  0.6643E+01  0.3647E+02
     -8.011  0.7835E+01  0.3698E+02
     -7.945  0.1045E+02  0.3768E+02
     -7.879  0.1090E+02  0.3840E+02
     -7.813  0.1132E+02  0.3914E+02
     -7.747  0.1045E+02  0.3983E+02
     -7.681  0.1256E+02  0.4066E+02
     -7.615  0.1297E+02  0.4152E+02
     -7.549  0.1365E+02  0.4242E+02
     -7.483  0.1288E+02  0.4328E+02
     -7.417  0.1265E+02  0.4411E+02
     -7.351  0.1734E+02  0.4526E+02
     -7.285  0.2215E+02  0.4672E+02
     -7.219  0.1853E+02  0.4794E+02
     -7.153  0.1628E+02  0.4902E+02
     -7.087  0.2268E+02  0.5052E+02
     -7.021  0.2591E+02  0.5223E+02
     -6.955  0.3119E+02  0.5429E+02
     -6.889  0.3924E+02  0.5688E+02
     -6.823  0.2400E+02  0.5847E+02
     -6.757  0.1953E+02  0.5976E+02
     -6.691  0.1126E+02  0.6050E+02
     -6.625  0.8935E+01  0.6109E+02
     -6.559  0.9108E+01  0.6170E+02
     -6.493  0.5885E+01  0.6209E+02
     -6.427  0.6428E+01  0.6251E+02
     -6.361  0.6662E+01  0.6295E+02
     -6.295  0.7698E+01  0.6346E+02
     -6.229  0.3152E+02  0.6554E+02
     -6.163  0.2335E+02  0.6708E+02
     -6.097  0.2352E+02  0.6864E+02
     -6.031  0.2543E+02  0.7032E+02
     -5.965  0.3980E+02  0.7294E+02
     -5.899  0.4190E+02  0.7571E+02
     -5.833  0.3725E+02  0.7817E+02
     -5.767  0.3439E+02  0.8044E+02
     -5.701  0.9909E+01  0.8110E+02
     -5.635  0.7475E+01  0.8159E+02
     -5.569  0.6322E+01  0.8201E+02
     -5.503  0.7578E+01  0.8251E+02
     -5.437  0.1275E+02  0.8335E+02
     -5.371  0.1126E+02  0.8410E+02
     -5.305  0.9129E+01  0.8470E+02
     -5.239  0.1414E+02  0.8564E+02
     -5.173  0.3221E+02  0.8776E+02
     -5.106  0.4456E+02  0.9070E+02
     -5.040  0.2819E+02  0.9257E+02
     -4.974  0.2238E+02  0.9405E+02
     -4.908  0.2422E+02  0.9565E+02
     -4.842  0.2066E+02  0.9701E+02
     -4.776  0.2049E+02  0.9837E+02
     -4.710  0.2814E+02  0.1002E+03
     -4.644  0.2310E+02  0.1018E+03
     -4.578  0.1817E+02  0.1030E+03
     -4.512  0.1857E+02  0.1042E+03
     -4.446  0.1494E+02  0.1052E+03
     -4.380  0.1207E+02  0.1060E+03
     -4.314  0.1614E+02  0.1070E+03
     -4.248  0.1286E+02  0.1079E+03
     -4.182  0.1088E+02  0.1086E+03
     -4.116  0.2212E+02  0.1101E+03
     -4.050  0.1768E+02  0.1112E+03
     -3.984  0.3029E+02  0.1132E+03
     -3.918  0.5305E+02  0.1167E+03
     -3.852  0.3343E+02  0.1189E+03
     -3.786  0.3667E+02  0.1214E+03
     -3.720  0.2854E+02  0.1232E+03
     -3.654  0.2821E+02  0.1251E+03
     -3.588  0.3250E+02  0.1273E+03
     -3.522  0.3213E+02  0.1294E+03
     -3.456  0.2787E+02  0.1312E+03
     -3.390  0.2340E+02  0.1328E+03
     -3.324  0.2178E+02  0.1342E+03
     -3.258  0.2414E+02  0.1358E+03
     -3.192  0.1672E+02  0.1369E+03
     -3.126  0.1964E+02  0.1382E+03
     -3.060  0.2137E+02  0.1396E+03
     -2.994  0.1931E+02  0.1409E+03
     -2.928  0.1944E+02  0.1422E+03
     -2.862  0.3010E+02  0.1442E+03
     -2.796  0.9080E+01  0.1448E+03
     -2.730  0.1055E+02  0.1455E+03
     -2.664  0.1559E+02  0.1465E+03
     -2.598  0.2632E+02  0.1482E+03
     -2.532  0.3450E+02  0.1505E+03
     -2.466  0.2958E+02  0.1525E+03
     -2.400  0.2782E+02  0.1543E+03
     -2.334  0.2693E+02  0.1561E+03
     -2.268  0.2461E+02  0.1577E+03
     -2.202  0.2340E+02  0.1593E+03
     -2.136  0.1129E+02  0.1600E+03
     -2.070  0.8698E+01  0.1606E+03
     -2.004  0.6712E+01  0.1610E+03
     -1.938  0.5235E+01  0.1614E+03
     -1.872  0.4376E+01  0.1617E+03
     -1.806  0.3748E+01  0.1619E+03
     -1.740  0.1494E+01  0.1620E+03
     -1.674  0.0000E+00  0.1620E+03
     -1.608  0.0000E+00  0.1620E+03
     -1.542  0.0000E+00  0.1620E+03
     -1.476  0.0000E+00  0.1620E+03
     -1.410  0.0000E+00  0.1620E+03
     -1.344  0.0000E+00  0.1620E+03
     -1.278  0.0000E+00  0.1620E+03
     -1.212  0.0000E+00  0.1620E+03
     -1.146  0.0000E+00  0.1620E+03
     -1.080  0.0000E+00  0.1620E+03
     -1.014  0.0000E+00  0.1620E+03
     -0.948  0.0000E+00  0.1620E+03
     -0.882  0.0000E+00  0.1620E+03
     -0.816  0.0000E+00  0.1620E+03
     -0.750  0.0000E+00  0.1620E+03
     -0.684  0.0000E+00  0.1620E+03
     -0.618  0.0000E+00  0.1620E+03
     -0.552  0.0000E+00  0.1620E+03
     -0.486  0.0000E+00  0.1620E+03
     -0.420  0.0000E+00  0.1620E+03
     -0.354  0.0000E+00  0.1620E+03
     -0.288  0.0000E+00  0.1620E+03
     -0.222  0.0000E+00  0.1620E+03
     -0.156  0.4145E+00  0.1620E+03
     -0.090  0.1270E+02  0.1629E+03
     -0.024  0.1758E+02  0.1640E+03
      0.042  0.2068E+02  0.1654E+03
      0.108  0.3017E+02  0.1674E+03
      0.174  0.2638E+02  0.1691E+03
      0.240  0.2319E+02  0.1707E+03
      0.306  0.2650E+02  0.1724E+03
      0.372  0.2161E+02  0.1738E+03
      0.438  0.1954E+02  0.1751E+03
      0.504  0.1558E+02  0.1762E+03
      0.570  0.2183E+02  0.1776E+03
      0.636  0.3795E+02  0.1801E+03
      0.702  0.6230E+02  0.1842E+03
      0.768  0.4605E+02  0.1873E+03
      0.834  0.4335E+02  0.1901E+03
      0.900  0.3743E+02  0.1926E+03
      0.966  0.3916E+02  0.1952E+03
      1.032  0.4745E+02  0.1983E+03
      1.098  0.3585E+02  0.2007E+03
      1.164  0.2570E+02  0.2024E+03
      1.230  0.1345E+02  0.2033E+03
      1.296  0.6558E+01  0.2037E+03
      1.362  0.3237E+01  0.2039E+03
      1.428  0.9227E+00  0.2040E+03
      1.494  0.6868E-01  0.2040E+03
      1.560  0.0000E+00  0.2040E+03
      1.626  0.0000E+00  0.2040E+03
      1.692  0.0000E+00  0.2040E+03
      1.758  0.0000E+00  0.2040E+03
      1.824  0.0000E+00  0.2040E+03
      1.890  0.0000E+00  0.2040E+03
      1.956  0.0000E+00  0.2040E+03
      2.022  0.0000E+00  0.2040E+03
      2.088  0.0000E+00  0.2040E+03
      2.154  0.0000E+00  0.2040E+03
      2.220  0.0000E+00  0.2040E+03
      2.286  0.0000E+00  0.2040E+03
      2.352  0.0000E+00  0.2040E+03
