 vasp.5.4.4.18Apr17-6-g9f103f2a35 (build May 31 2018 21:15:54) complex          
  
 executed on          c7_intel_O1 date 2020.08.13  00:23:03
 running on   36 total cores
 distrk:  each k-point on   36 cores,    1 groups
 distr:  one band on NCORES_PER_BAND=   6 cores,    6 groups


--------------------------------------------------------------------------------------------------------


 INCAR:
 POTCAR:   PAW_PBE W 08Apr2002                    
 POTCAR:   PAW_PBE Se 06Sep2000                   
 POTCAR:   PAW_PBE W 08Apr2002                    
   VRHFIN =W : 6s5d                                                             
   LEXCH  = PE                                                                  
   EATOM  =   204.6100 eV,   15.0384 Ry                                         
                                                                                
   TITEL  = PAW_PBE W 08Apr2002                                                 
   LULTRA =        F    use ultrasoft PP ?                                      
   IUNSCR =        1    unscreen: 0-lin 1-nonlin 2-no                           
   RPACOR =    2.330    partial core radius                                     
   POMASS =  183.850; ZVAL   =    6.000    mass and valenz                      
   RCORE  =    2.750    outmost cutoff radius                                   
   RWIGS  =    2.750; RWIGS  =    1.455    wigner-seitz radius (au A)           
   ENMAX  =  223.057; ENMIN  =  167.293 eV                                      
   RCLOC  =    2.147    cutoff for local pot                                    
   LCOR   =        T    correct aug charges                                     
   LPAW   =        T    paw PP                                                  
   EAUG   =  373.438                                                            
   DEXC   =    -.060                                                            
   RMAX   =    3.087    core radius for proj-oper                               
   RAUG   =    1.300    factor for augmentation sphere                          
   RDEP   =    2.886    radius for radial grids                                 
   QCUT   =   -4.049; QGAM   =    8.098    optimization parameters              
                                                                                
   Description                                                                  
     l     E      TYP  RCUT    TYP  RCUT                                        
     2   .000     23  2.500                                                     
     2   .000     23  2.500                                                     
     0   .000     23  2.500                                                     
     0   .000     23  2.500                                                     
     1   .200     23  2.750                                                     
     1  2.000     23  2.750                                                     
     3   .000      7   .000                                                     
  local pseudopotential read in
  partial core-charges read in
  atomic valenz-charges read in
  non local Contribution for L=           2  read in
    real space projection operators read in
  non local Contribution for L=           2  read in
    real space projection operators read in
  non local Contribution for L=           0  read in
    real space projection operators read in
  non local Contribution for L=           0  read in
    real space projection operators read in
  non local Contribution for L=           1  read in
    real space projection operators read in
  non local Contribution for L=           1  read in
    real space projection operators read in
    PAW grid and wavefunctions read in
 
   number of l-projection  operators is LMAX  =           6
   number of lm-projection operators is LMMAX =          18
 
 POTCAR:   PAW_PBE Se 06Sep2000                   
   VRHFIN =Se: s2p4                                                             
   LEXCH  = PE                                                                  
   EATOM  =   256.9644 eV,   18.8864 Ry                                         
                                                                                
   TITEL  = PAW_PBE Se 06Sep2000                                                
   LULTRA =        F    use ultrasoft PP ?                                      
   IUNSCR =        1    unscreen: 0-lin 1-nonlin 2-no                           
   RPACOR =    1.900    partial core radius                                     
   POMASS =   78.960; ZVAL   =    6.000    mass and valenz                      
   RCORE  =    2.100    outmost cutoff radius                                   
   RWIGS  =    2.200; RWIGS  =    1.164    wigner-seitz radius (au A)           
   ENMAX  =  211.534; ENMIN  =  158.651 eV                                      
   ICORE  =        3    local potential                                         
   LCOR   =        T    correct aug charges                                     
   LPAW   =        T    paw PP                                                  
   EAUG   =  446.842                                                            
   DEXC   =    -.031                                                            
   RMAX   =    3.170    core radius for proj-oper                               
   RAUG   =    1.300    factor for augmentation sphere                          
   RDEP   =    2.177    radius for radial grids                                 
   QCUT   =   -3.943; QGAM   =    7.886    optimization parameters              
                                                                                
   Description                                                                  
     l     E      TYP  RCUT    TYP  RCUT                                        
     0   .000     23  2.100                                                     
     0   .000     23  2.100                                                     
     1   .000     23  2.100                                                     
     1   .000     23  2.100                                                     
     2   .000     23  2.100                                                     
     3  -.100      7  2.100                                                     
  local pseudopotential read in
  partial core-charges read in
  atomic valenz-charges read in
  non local Contribution for L=           0  read in
    real space projection operators read in
  non local Contribution for L=           0  read in
    real space projection operators read in
  non local Contribution for L=           1  read in
    real space projection operators read in
  non local Contribution for L=           1  read in
    real space projection operators read in
  non local Contribution for L=           2  read in
    real space projection operators read in
    PAW grid and wavefunctions read in
 
   number of l-projection  operators is LMAX  =           5
   number of lm-projection operators is LMMAX =          13
 

 ----------------------------------------------------------------------------- 
|                                                                             |
|  ADVICE TO THIS USER RUNNING 'VASP/VAMP'   (HEAR YOUR MASTER'S VOICE ...):  |
|                                                                             |
|      You have a (more or less) 'large supercell' and for larger cells       |
|      it might be more efficient to use real space projection operators      |
|      So try LREAL= Auto  in the INCAR   file.                               |
|      Mind: If you want to do a very accurate calculations keep the          |
|      reciprocal projection scheme          (i.e. LREAL=.FALSE.)             |
|                                                                             |
 ----------------------------------------------------------------------------- 

 WARNING: PSMAXN for non-local potential too small
          PSMAXN should be >   14.4904333269122       NTYP=           1
 PAW_PBE W 08Apr2002                    :
 energy of atom  1       EATOM= -204.6100
 kinetic energy error for atom=    0.0002 (will be added to EATOM!!)
 PAW_PBE Se 06Sep2000                   :
 energy of atom  2       EATOM= -256.9644
 kinetic energy error for atom=    0.0002 (will be added to EATOM!!)
 
 
 POSCAR: generated by phonopy                    
  positions in direct lattice
  No initial velocities read in
 exchange correlation table for  LEXCH =        8
   RHO(1)=    0.500       N(1)  =     2000
   RHO(2)=  100.500       N(2)  =     4000
 


--------------------------------------------------------------------------------------------------------


 ion  position               nearest neighbor table
   1  0.333  0.000  0.000-  10 2.53  17 2.54  26 2.54  20 2.54  11 2.54  19 2.54   4 3.28   6 3.28
                             8 3.28   7 3.28   2 3.28   3 3.28
   2  0.667  0.000  0.000-  18 2.54  27 2.54  20 2.54  11 2.54  21 2.54  12 2.54   4 3.28   5 3.28
                             8 3.28   9 3.28   1 3.28   3 3.28
   3  1.000  0.000  0.000-  10 2.53  16 2.54  25 2.54  19 2.54  21 2.54  12 2.54   6 3.28   7 3.28
                             5 3.28   9 3.28   1 3.28   2 3.28
   4  0.333  0.333  0.000-  11 2.54  20 2.54  14 2.54  13 2.54  22 2.54  23 2.54   1 3.28   2 3.28
                             7 3.28   9 3.28   5 3.28   6 3.28
   5  0.667  0.333  0.000-  12 2.54  21 2.54  14 2.54  23 2.54  15 2.54  24 2.54   2 3.28   7 3.28
                             8 3.28   3 3.28   4 3.28   6 3.28
   6  1.000  0.333  0.000-  10 2.53  19 2.54  13 2.54  22 2.54  15 2.54  24 2.54   3 3.28   1 3.28
                             9 3.28   8 3.28   4 3.28   5 3.28
   7  0.333  0.667  0.000-  14 2.54  23 2.54  17 2.54  26 2.54  25 2.54  16 2.54   5 3.28   4 3.28
                             3 3.28   1 3.28   8 3.28   9 3.28
   8  0.667  0.667  0.000-  15 2.54  24 2.54  17 2.54  26 2.54  18 2.54  27 2.54   5 3.28   1 3.28
                             6 3.28   2 3.28   7 3.28   9 3.28
   9  1.000  0.667  0.000-  13 2.54  22 2.54  16 2.54  25 2.54  18 2.54  27 2.54   4 3.28   6 3.28
                             2 3.28   3 3.28   7 3.28   8 3.28
  10  0.111  0.111  0.916-   6 2.53   3 2.53   1 2.53
  11  0.444  0.111  0.915-   4 2.54   2 2.54   1 2.54
  12  0.778  0.111  0.915-   5 2.54   3 2.54   2 2.54
  13  0.111  0.444  0.915-   9 2.54   6 2.54   4 2.54
  14  0.444  0.444  0.915-   7 2.54   5 2.54   4 2.54
  15  0.778  0.444  0.915-   8 2.54   6 2.54   5 2.54
  16  0.111  0.778  0.915-   3 2.54   9 2.54   7 2.54
  17  0.444  0.778  0.915-   1 2.54   8 2.54   7 2.54
  18  0.778  0.778  0.915-   2 2.54   9 2.54   8 2.54
  19  0.111  0.111  0.085-   6 2.54   3 2.54   1 2.54
  20  0.444  0.111  0.085-   4 2.54   2 2.54   1 2.54
  21  0.778  0.111  0.085-   5 2.54   3 2.54   2 2.54
  22  0.111  0.444  0.085-   9 2.54   6 2.54   4 2.54
  23  0.444  0.444  0.085-   7 2.54   5 2.54   4 2.54
  24  0.778  0.444  0.085-   8 2.54   6 2.54   5 2.54
  25  0.111  0.778  0.085-   3 2.54   9 2.54   7 2.54
  26  0.444  0.778  0.085-   1 2.54   8 2.54   7 2.54
  27  0.778  0.778  0.085-   2 2.54   9 2.54   8 2.54
 
  LATTYP: Found a base centered orthorhombic cell.
 ALAT       =     9.8460000000
 B/A-ratio  =     1.7309445460
 C/A-ratio  =     2.0312817388
  
  Lattice vectors:
  
 A1 = (  -4.9230000000,  -8.5214400000,   0.0000000000)
 A2 = (  -4.9230000000,   8.5214400000,   0.0000000000)
 A3 = (   0.0000000000,   0.0000000000, -20.0000000000)


Analysis of symmetry for initial positions (statically):
=====================================================================
 Subroutine PRICEL returns:
 Original cell was already a primitive cell.
 

 Routine SETGRP: Setting up the symmetry group for a 
 base centered orthorhombic supercell.


 Subroutine GETGRP returns: Found  2 space group operations
 (whereof  1 operations were pure point group operations)
 out of a pool of  8 trial point group operations.


The static configuration has the point symmetry C_1 .
 The point group associated with its full space group is C_1h.


Analysis of symmetry for dynamics (positions and initial velocities):
=====================================================================
 Subroutine PRICEL returns:
 Original cell was already a primitive cell.
 

 Routine SETGRP: Setting up the symmetry group for a 
 base centered orthorhombic supercell.


 Subroutine GETGRP returns: Found  2 space group operations
 (whereof  1 operations were pure point group operations)
 out of a pool of  8 trial point group operations.


The dynamic configuration has the point symmetry C_1 .
 The point group associated with its full space group is C_1h.


 Subroutine INISYM returns: Found  2 space group operations
 (whereof  1 operations are pure point group operations),
 and found     1 'primitive' translations

 
 
 KPOINTS: W-1, Se-2                               

Automatic generation of k-mesh.
Space group operators:
 irot       det(A)        alpha          n_x          n_y          n_z        tau_x        tau_y        tau_z
    1     1.000000     0.000000     1.000000     0.000000     0.000000     0.000000     0.000000     0.000000
    2    -1.000000   179.999999     1.000000     0.000000     0.000000    -0.666667    -0.000000     0.000000
 
 Subroutine IBZKPT returns following result:
 ===========================================
 
 Found    121 irreducible k-points:
 
 Following reciprocal coordinates:
            Coordinates               Weight
  0.000000  0.000000  0.000000      1.000000
  0.047619  0.000000  0.000000      4.000000
  0.095238  0.000000  0.000000      4.000000
  0.142857  0.000000  0.000000      4.000000
  0.190476  0.000000  0.000000      4.000000
  0.238095  0.000000  0.000000      4.000000
  0.285714  0.000000  0.000000      4.000000
  0.333333  0.000000  0.000000      4.000000
  0.380952  0.000000  0.000000      4.000000
  0.428571  0.000000  0.000000      4.000000
  0.476190  0.000000  0.000000      4.000000
  0.000000  0.047619  0.000000      2.000000
  0.095238  0.047619  0.000000      2.000000
  0.142857  0.047619  0.000000      4.000000
  0.190476  0.047619  0.000000      4.000000
  0.238095  0.047619  0.000000      4.000000
  0.285714  0.047619  0.000000      4.000000
  0.333333  0.047619  0.000000      4.000000
  0.380952  0.047619  0.000000      4.000000
  0.428571  0.047619  0.000000      4.000000
  0.476190  0.047619  0.000000      4.000000
 -0.476190  0.047619  0.000000      4.000000
 -0.428571  0.047619  0.000000      4.000000
 -0.380952  0.047619  0.000000      4.000000
 -0.333333  0.047619  0.000000      4.000000
 -0.285714  0.047619  0.000000      4.000000
 -0.238095  0.047619  0.000000      4.000000
 -0.190476  0.047619  0.000000      4.000000
 -0.142857  0.047619  0.000000      4.000000
 -0.095238  0.047619  0.000000      4.000000
 -0.047619  0.047619  0.000000      4.000000
  0.000000  0.095238  0.000000      2.000000
  0.190476  0.095238  0.000000      2.000000
  0.238095  0.095238  0.000000      4.000000
  0.285714  0.095238  0.000000      4.000000
  0.333333  0.095238  0.000000      4.000000
  0.380952  0.095238  0.000000      4.000000
  0.428571  0.095238  0.000000      4.000000
  0.476190  0.095238  0.000000      4.000000
 -0.476190  0.095238  0.000000      4.000000
 -0.428571  0.095238  0.000000      4.000000
 -0.380952  0.095238  0.000000      4.000000
 -0.333333  0.095238  0.000000      4.000000
 -0.285714  0.095238  0.000000      4.000000
 -0.238095  0.095238  0.000000      4.000000
 -0.190476  0.095238  0.000000      4.000000
 -0.142857  0.095238  0.000000      4.000000
 -0.095238  0.095238  0.000000      4.000000
 -0.047619  0.095238  0.000000      4.000000
  0.000000  0.142857  0.000000      2.000000
  0.285714  0.142857  0.000000      2.000000
  0.333333  0.142857  0.000000      4.000000
  0.380952  0.142857  0.000000      4.000000
  0.428571  0.142857  0.000000      4.000000
  0.476190  0.142857  0.000000      4.000000
 -0.476190  0.142857  0.000000      4.000000
 -0.428571  0.142857  0.000000      4.000000
 -0.380952  0.142857  0.000000      4.000000
 -0.333333  0.142857  0.000000      4.000000
 -0.285714  0.142857  0.000000      4.000000
 -0.238095  0.142857  0.000000      4.000000
 -0.190476  0.142857  0.000000      4.000000
 -0.142857  0.142857  0.000000      4.000000
 -0.095238  0.142857  0.000000      4.000000
 -0.047619  0.142857  0.000000      4.000000
  0.000000  0.190476  0.000000      2.000000
  0.380952  0.190476  0.000000      2.000000
  0.428571  0.190476  0.000000      4.000000
  0.476190  0.190476  0.000000      4.000000
 -0.476190  0.190476  0.000000      4.000000
 -0.428571  0.190476  0.000000      4.000000
 -0.380952  0.190476  0.000000      4.000000
 -0.333333  0.190476  0.000000      4.000000
 -0.285714  0.190476  0.000000      4.000000
 -0.238095  0.190476  0.000000      4.000000
 -0.190476  0.190476  0.000000      4.000000
 -0.142857  0.190476  0.000000      4.000000
 -0.095238  0.190476  0.000000      4.000000
 -0.047619  0.190476  0.000000      4.000000
  0.000000  0.238095  0.000000      2.000000
  0.476190  0.238095  0.000000      2.000000
 -0.476190  0.238095  0.000000      4.000000
 -0.428571  0.238095  0.000000      4.000000
 -0.380952  0.238095  0.000000      4.000000
 -0.333333  0.238095  0.000000      4.000000
 -0.285714  0.238095  0.000000      4.000000
 -0.238095  0.238095  0.000000      4.000000
 -0.190476  0.238095  0.000000      4.000000
 -0.142857  0.238095  0.000000      4.000000
 -0.095238  0.238095  0.000000      4.000000
 -0.047619  0.238095  0.000000      4.000000
  0.000000  0.285714  0.000000      2.000000
 -0.428571  0.285714  0.000000      2.000000
 -0.380952  0.285714  0.000000      4.000000
 -0.333333  0.285714  0.000000      4.000000
 -0.285714  0.285714  0.000000      4.000000
 -0.238095  0.285714  0.000000      4.000000
 -0.190476  0.285714  0.000000      4.000000
 -0.142857  0.285714  0.000000      4.000000
 -0.095238  0.285714  0.000000      4.000000
 -0.047619  0.285714  0.000000      4.000000
  0.000000  0.333333  0.000000      2.000000
 -0.333333  0.333333  0.000000      2.000000
 -0.285714  0.333333  0.000000      4.000000
 -0.238095  0.333333  0.000000      4.000000
 -0.190476  0.333333  0.000000      4.000000
 -0.142857  0.333333  0.000000      4.000000
 -0.095238  0.333333  0.000000      4.000000
 -0.047619  0.333333  0.000000      4.000000
  0.000000  0.380952  0.000000      2.000000
 -0.238095  0.380952  0.000000      2.000000
 -0.190476  0.380952  0.000000      4.000000
 -0.142857  0.380952  0.000000      4.000000
 -0.095238  0.380952  0.000000      4.000000
 -0.047619  0.380952  0.000000      4.000000
  0.000000  0.428571  0.000000      2.000000
 -0.142857  0.428571  0.000000      2.000000
 -0.095238  0.428571  0.000000      4.000000
 -0.047619  0.428571  0.000000      4.000000
  0.000000  0.476190  0.000000      2.000000
 -0.047619  0.476190  0.000000      2.000000
 
 Following cartesian coordinates:
            Coordinates               Weight
  0.000000  0.000000  0.000000      1.000000
  0.004836 -0.002794  0.000000      4.000000
  0.009673 -0.005588  0.000000      4.000000
  0.014509 -0.008382  0.000000      4.000000
  0.019346 -0.011176  0.000000      4.000000
  0.024182 -0.013970  0.000000      4.000000
  0.029018 -0.016764  0.000000      4.000000
  0.033855 -0.019559  0.000000      4.000000
  0.038691 -0.022353  0.000000      4.000000
  0.043527 -0.025147  0.000000      4.000000
  0.048364 -0.027941  0.000000      4.000000
  0.000000  0.005588  0.000000      2.000000
  0.009673  0.000000  0.000000      2.000000
  0.014509 -0.002794  0.000000      4.000000
  0.019346 -0.005588  0.000000      4.000000
  0.024182 -0.008382  0.000000      4.000000
  0.029018 -0.011176  0.000000      4.000000
  0.033855 -0.013970  0.000000      4.000000
  0.038691 -0.016764  0.000000      4.000000
  0.043527 -0.019559  0.000000      4.000000
  0.048364 -0.022353  0.000000      4.000000
 -0.048364  0.033529  0.000000      4.000000
 -0.043527  0.030735  0.000000      4.000000
 -0.038691  0.027941  0.000000      4.000000
 -0.033855  0.025147  0.000000      4.000000
 -0.029018  0.022353  0.000000      4.000000
 -0.024182  0.019559  0.000000      4.000000
 -0.019346  0.016764  0.000000      4.000000
 -0.014509  0.013970  0.000000      4.000000
 -0.009673  0.011176  0.000000      4.000000
 -0.004836  0.008382  0.000000      4.000000
  0.000000  0.011176  0.000000      2.000000
  0.019346 -0.000000  0.000000      2.000000
  0.024182 -0.002794  0.000000      4.000000
  0.029018 -0.005588  0.000000      4.000000
  0.033855 -0.008382  0.000000      4.000000
  0.038691 -0.011176  0.000000      4.000000
  0.043527 -0.013970  0.000000      4.000000
  0.048364 -0.016764  0.000000      4.000000
 -0.048364  0.039117  0.000000      4.000000
 -0.043527  0.036323  0.000000      4.000000
 -0.038691  0.033529  0.000000      4.000000
 -0.033855  0.030735  0.000000      4.000000
 -0.029018  0.027941  0.000000      4.000000
 -0.024182  0.025147  0.000000      4.000000
 -0.019346  0.022353  0.000000      4.000000
 -0.014509  0.019559  0.000000      4.000000
 -0.009673  0.016764  0.000000      4.000000
 -0.004836  0.013970  0.000000      4.000000
  0.000000  0.016764  0.000000      2.000000
  0.029018  0.000000  0.000000      2.000000
  0.033855 -0.002794  0.000000      4.000000
  0.038691 -0.005588  0.000000      4.000000
  0.043527 -0.008382  0.000000      4.000000
  0.048364 -0.011176  0.000000      4.000000
 -0.048364  0.044705  0.000000      4.000000
 -0.043527  0.041911  0.000000      4.000000
 -0.038691  0.039117  0.000000      4.000000
 -0.033855  0.036323  0.000000      4.000000
 -0.029018  0.033529  0.000000      4.000000
 -0.024182  0.030735  0.000000      4.000000
 -0.019346  0.027941  0.000000      4.000000
 -0.014509  0.025147  0.000000      4.000000
 -0.009673  0.022353  0.000000      4.000000
 -0.004836  0.019559  0.000000      4.000000
  0.000000  0.022353  0.000000      2.000000
  0.038691  0.000000  0.000000      2.000000
  0.043527 -0.002794  0.000000      4.000000
  0.048364 -0.005588  0.000000      4.000000
 -0.048364  0.050293  0.000000      4.000000
 -0.043527  0.047499  0.000000      4.000000
 -0.038691  0.044705  0.000000      4.000000
 -0.033855  0.041911  0.000000      4.000000
 -0.029018  0.039117  0.000000      4.000000
 -0.024182  0.036323  0.000000      4.000000
 -0.019346  0.033529  0.000000      4.000000
 -0.014509  0.030735  0.000000      4.000000
 -0.009673  0.027941  0.000000      4.000000
 -0.004836  0.025147  0.000000      4.000000
  0.000000  0.027941  0.000000      2.000000
  0.048364  0.000000  0.000000      2.000000
 -0.048364  0.055881  0.000000      4.000000
 -0.043527  0.053087  0.000000      4.000000
 -0.038691  0.050293  0.000000      4.000000
 -0.033855  0.047499  0.000000      4.000000
 -0.029018  0.044705  0.000000      4.000000
 -0.024182  0.041911  0.000000      4.000000
 -0.019346  0.039117  0.000000      4.000000
 -0.014509  0.036323  0.000000      4.000000
 -0.009673  0.033529  0.000000      4.000000
 -0.004836  0.030735  0.000000      4.000000
  0.000000  0.033529  0.000000      2.000000
 -0.043527  0.058676  0.000000      2.000000
 -0.038691  0.055881  0.000000      4.000000
 -0.033855  0.053087  0.000000      4.000000
 -0.029018  0.050293  0.000000      4.000000
 -0.024182  0.047499  0.000000      4.000000
 -0.019346  0.044705  0.000000      4.000000
 -0.014509  0.041911  0.000000      4.000000
 -0.009673  0.039117  0.000000      4.000000
 -0.004836  0.036323  0.000000      4.000000
  0.000000  0.039117  0.000000      2.000000
 -0.033855  0.058676  0.000000      2.000000
 -0.029018  0.055881  0.000000      4.000000
 -0.024182  0.053087  0.000000      4.000000
 -0.019346  0.050293  0.000000      4.000000
 -0.014509  0.047499  0.000000      4.000000
 -0.009673  0.044705  0.000000      4.000000
 -0.004836  0.041911  0.000000      4.000000
  0.000000  0.044705  0.000000      2.000000
 -0.024182  0.058676  0.000000      2.000000
 -0.019346  0.055881  0.000000      4.000000
 -0.014509  0.053087  0.000000      4.000000
 -0.009673  0.050293  0.000000      4.000000
 -0.004836  0.047499  0.000000      4.000000
  0.000000  0.050293  0.000000      2.000000
 -0.014509  0.058676  0.000000      2.000000
 -0.009673  0.055881  0.000000      4.000000
 -0.004836  0.053087  0.000000      4.000000
  0.000000  0.055881  0.000000      2.000000
 -0.004836  0.058676  0.000000      2.000000
 


--------------------------------------------------------------------------------------------------------




 Dimension of arrays:
   k-points           NKPTS =    121   k-points in BZ     NKDIM =    121   number of bands    NBANDS=    102
   number of dos      NEDOS =    301   number of ions     NIONS =     27
   non local maximal  LDIM  =      6   non local SUM 2l+1 LMDIM =     18
   total plane-waves  NPLWV = ******
   max r-space proj   IRMAX =      1   max aug-charges    IRDMAX= 481671
   dimension x,y,z NGX =    96 NGY =   96 NGZ =  192
   dimension x,y,z NGXF=   192 NGYF=  192 NGZF=  384
   support grid    NGXF=   384 NGYF=  384 NGZF=  768
   ions per type =               9  18
   NGX,Y,Z   is equivalent  to a cutoff of  16.21, 16.22, 15.96 a.u.
   NGXF,Y,Z  is equivalent  to a cutoff of  32.42, 32.43, 31.92 a.u.

 SYSTEM =  W-1, se-2                               
 POSCAR =  generated by phonopy                    

 Startparameter for this run:
   NWRITE =      2    write-flag & timer
   PREC   = accura    normal or accurate (medium, high low for compatibility)
   ISTART =      0    job   : 0-new  1-cont  2-samecut
   ICHARG =      2    charge: 1-file 2-atom 10-const
   ISPIN  =      1    spin polarized calculation?
   LNONCOLLINEAR =      F non collinear calculations
   LSORBIT =      F    spin-orbit coupling
   INIWAV =      1    electr: 0-lowe 1-rand  2-diag
   LASPH  =      F    aspherical Exc in radial PAW
   METAGGA=      F    non-selfconsistent MetaGGA calc.

 Electronic Relaxation 1
   ENCUT  =  800.0 eV  58.80 Ry    7.67 a.u.  22.71 22.70 46.12*2*pi/ulx,y,z
   ENINI  =  800.0     initial cutoff
   ENAUG  =  446.8 eV  augmentation charge cutoff
   NELM   =     60;   NELMIN=  5; NELMDL= -5     # of ELM steps 
   EDIFF  = 0.1E-07   stopping-criterion for ELM
   LREAL  =      F    real-space projection
   NLSPLINE    = F    spline interpolate recip. space projectors
   LCOMPAT=      F    compatible to vasp.4.4
   GGA_COMPAT  = T    GGA compatible to vasp.4.4-vasp.4.6
   LMAXPAW     = -100 max onsite density
   LMAXMIX     =    2 max onsite mixed and CHGCAR
   VOSKOWN=      0    Vosko Wilk Nusair interpolation
   ROPT   =    0.00000   0.00000
 Ionic relaxation
   EDIFFG = -.1E-07   stopping-criterion for IOM
   NSW    =      0    number of steps for IOM
   NBLOCK =      1;   KBLOCK =      1    inner block; outer block 
   IBRION =     -1    ionic relax: 0-MD 1-quasi-New 2-CG
   NFREE  =      0    steps in history (QN), initial steepest desc. (CG)
   ISIF   =      2    stress and relaxation
   IWAVPR =     10    prediction:  0-non 1-charg 2-wave 3-comb
   ISYM   =      2    0-nonsym 1-usesym 2-fastsym
   LCORR  =      T    Harris-Foulkes like correction to forces

   POTIM  = 0.5000    time-step for ionic-motion
   TEIN   =    0.0    initial temperature
   TEBEG  =    0.0;   TEEND  =   0.0 temperature during run
   SMASS  =  -3.00    Nose mass-parameter (am)
   estimated Nose-frequenzy (Omega)   =  0.10E-29 period in steps =****** mass=  -0.222E-26a.u.
   SCALEE = 1.0000    scale energy and forces
   NPACO  =    256;   APACO  = 16.0  distance and # of slots for P.C.
   PSTRESS=    0.0 pullay stress

  Mass of Ions in am
   POMASS = 183.85 78.96
  Ionic Valenz
   ZVAL   =   6.00  6.00
  Atomic Wigner-Seitz radii
   RWIGS  =  -1.00 -1.00
  virtual crystal weights 
   VCA    =   1.00  1.00
   NELECT =     162.0000    total number of electrons
   NUPDOWN=      -1.0000    fix difference up-down

 DOS related values:
   EMIN   =  10.00;   EMAX   =-10.00  energy-range for DOS
   EFERMI =   0.00
   ISMEAR =     0;   SIGMA  =   0.01  broadening in eV -4-tet -1-fermi 0-gaus

 Electronic relaxation 2 (details)
   IALGO  =     38    algorithm
   LDIAG  =      T    sub-space diagonalisation (order eigenvalues)
   LSUBROT=      F    optimize rotation matrix (better conditioning)
   TURBO    =      0    0=normal 1=particle mesh
   IRESTART =      0    0=no restart 2=restart with 2 vectors
   NREBOOT  =      0    no. of reboots
   NMIN     =      0    reboot dimension
   EREF     =   0.00    reference energy to select bands
   IMIX   =      4    mixing-type and parameters
     AMIX     =   0.40;   BMIX     =  1.00
     AMIX_MAG =   1.60;   BMIX_MAG =  1.00
     AMIN     =   0.01
     WC   =   100.;   INIMIX=   1;  MIXPRE=   1;  MAXMIX= -45

 Intra band minimization:
   WEIMIN = 0.0000     energy-eigenvalue tresh-hold
   EBREAK =  0.25E-11  absolut break condition
   DEPER  =   0.30     relativ break condition  

   TIME   =   0.40     timestep for ELM

  volume/ion in A,a.u.               =      62.15       419.41
  Fermi-wavevector in a.u.,A,eV,Ry     =   0.751010  1.419203  7.673898  0.564016
  Thomas-Fermi vector in A             =   1.847892
 
 Write flags
   LWAVE        =      F    write WAVECAR
   LDOWNSAMPLE  =      F    k-point downsampling of WAVECAR
   LCHARG       =      F    write CHGCAR
   LVTOT        =      F    write LOCPOT, total local potential
   LVHAR        =      F    write LOCPOT, Hartree potential only
   LELF         =      F    write electronic localiz. function (ELF)
   LORBIT       =      0    0 simple, 1 ext, 2 COOP (PROOUT), +10 PAW based schemes


 Dipole corrections
   LMONO  =      F    monopole corrections only (constant potential shift)
   LDIPOL =      F    correct potential (dipole corrections)
   IDIPOL =      0    1-x, 2-y, 3-z, 4-all directions 
   EPSILON=  1.0000000 bulk dielectric constant

 Exchange correlation treatment:
   GGA     =    --    GGA type
   LEXCH   =     8    internal setting for exchange type
   VOSKOWN=      0    Vosko Wilk Nusair interpolation
   LHFCALC =     F    Hartree Fock is set to
   LHFONE  =     F    Hartree Fock one center treatment
   AEXX    =    0.0000 exact exchange contribution

 Linear response parameters
   LEPSILON=     F    determine dielectric tensor
   LRPA    =     F    only Hartree local field effects (RPA)
   LNABLA  =     F    use nabla operator in PAW spheres
   LVEL    =     F    velocity operator in full k-point grid
   LINTERFAST=   F  fast interpolation
   KINTER  =     0    interpolate to denser k-point grid
   CSHIFT  =0.1000    complex shift for real part using Kramers Kronig
   OMEGAMAX=  -1.0    maximum frequency
   DEG_THRESHOLD= 0.2000000E-02 threshold for treating states as degnerate
   RTIME   =   -0.100 relaxation time in fs
  (WPLASMAI=    0.000 imaginary part of plasma frequency in eV, 0.658/RTIME)
   DFIELD  = 0.0000000 0.0000000 0.0000000 field for delta impulse in time
 
 Orbital magnetization related:
   ORBITALMAG=     F  switch on orbital magnetization
   LCHIMAG   =     F  perturbation theory with respect to B field
   DQ        =  0.001000  dq finite difference perturbation B field
   LLRAUG    =     F  two centre corrections for induced B field



--------------------------------------------------------------------------------------------------------


 Static calculation
 charge density and potential will be updated during run
 non-spin polarized calculation
 Variant of blocked Davidson
 Davidson routine will perform the subspace rotation
 perform sub-space diagonalisation
    after iterative eigenvector-optimisation
 modified Broyden-mixing scheme, WC =      100.0
 initial mixing is a Kerker type mixing with AMIX =  0.4000 and BMIX =      1.0000
 Hartree-type preconditioning will be used
 using additional bands           21
 reciprocal scheme for non local part
 use partial core corrections
 calculate Harris-corrections to forces 
   (improved forces if not selfconsistent)
 use gradient corrections 
 use of overlap-Matrix (Vanderbilt PP)
 Gauss-broadening in eV      SIGMA  =   0.01


--------------------------------------------------------------------------------------------------------


  energy-cutoff  :      800.00
  volume of cell :     1678.04
      direct lattice vectors                 reciprocal lattice vectors
     9.846000000  0.000000000  0.000000000     0.101564087 -0.058675529  0.000000000
     4.923000000  8.521440000  0.000000000     0.000000000  0.117351058  0.000000000
     0.000000000  0.000000000 20.000000000     0.000000000  0.000000000  0.050000000

  length of vectors
     9.846000000  9.841283894 20.000000000     0.117294848  0.117351058  0.050000000


 
 k-points in units of 2pi/SCALE and weight: W-1, Se-2                               
   0.00000000  0.00000000  0.00000000       0.002
   0.00483639 -0.00279407  0.00000000       0.009
   0.00967277 -0.00558815  0.00000000       0.009
   0.01450916 -0.00838222  0.00000000       0.009
   0.01934554 -0.01117629  0.00000000       0.009
   0.02418193 -0.01397036  0.00000000       0.009
   0.02901831 -0.01676444  0.00000000       0.009
   0.03385470 -0.01955851  0.00000000       0.009
   0.03869108 -0.02235258  0.00000000       0.009
   0.04352747 -0.02514666  0.00000000       0.009
   0.04836385 -0.02794073  0.00000000       0.009
   0.00000000  0.00558815  0.00000000       0.005
   0.00967277  0.00000000  0.00000000       0.005
   0.01450916 -0.00279407  0.00000000       0.009
   0.01934554 -0.00558815  0.00000000       0.009
   0.02418193 -0.00838222  0.00000000       0.009
   0.02901831 -0.01117629  0.00000000       0.009
   0.03385470 -0.01397036  0.00000000       0.009
   0.03869108 -0.01676444  0.00000000       0.009
   0.04352747 -0.01955851  0.00000000       0.009
   0.04836385 -0.02235258  0.00000000       0.009
  -0.04836385  0.03352887  0.00000000       0.009
  -0.04352747  0.03073480  0.00000000       0.009
  -0.03869108  0.02794073  0.00000000       0.009
  -0.03385470  0.02514666  0.00000000       0.009
  -0.02901831  0.02235258  0.00000000       0.009
  -0.02418193  0.01955851  0.00000000       0.009
  -0.01934554  0.01676444  0.00000000       0.009
  -0.01450916  0.01397036  0.00000000       0.009
  -0.00967277  0.01117629  0.00000000       0.009
  -0.00483639  0.00838222  0.00000000       0.009
   0.00000000  0.01117629  0.00000000       0.005
   0.01934554 -0.00000000  0.00000000       0.005
   0.02418193 -0.00279407  0.00000000       0.009
   0.02901831 -0.00558815  0.00000000       0.009
   0.03385470 -0.00838222  0.00000000       0.009
   0.03869108 -0.01117629  0.00000000       0.009
   0.04352747 -0.01397036  0.00000000       0.009
   0.04836385 -0.01676444  0.00000000       0.009
  -0.04836385  0.03911702  0.00000000       0.009
  -0.04352747  0.03632295  0.00000000       0.009
  -0.03869108  0.03352887  0.00000000       0.009
  -0.03385470  0.03073480  0.00000000       0.009
  -0.02901831  0.02794073  0.00000000       0.009
  -0.02418193  0.02514666  0.00000000       0.009
  -0.01934554  0.02235258  0.00000000       0.009
  -0.01450916  0.01955851  0.00000000       0.009
  -0.00967277  0.01676444  0.00000000       0.009
  -0.00483639  0.01397036  0.00000000       0.009
   0.00000000  0.01676444  0.00000000       0.005
   0.02901831  0.00000000  0.00000000       0.005
   0.03385470 -0.00279407  0.00000000       0.009
   0.03869108 -0.00558815  0.00000000       0.009
   0.04352747 -0.00838222  0.00000000       0.009
   0.04836385 -0.01117629  0.00000000       0.009
  -0.04836385  0.04470516  0.00000000       0.009
  -0.04352747  0.04191109  0.00000000       0.009
  -0.03869108  0.03911702  0.00000000       0.009
  -0.03385470  0.03632295  0.00000000       0.009
  -0.02901831  0.03352887  0.00000000       0.009
  -0.02418193  0.03073480  0.00000000       0.009
  -0.01934554  0.02794073  0.00000000       0.009
  -0.01450916  0.02514666  0.00000000       0.009
  -0.00967277  0.02235258  0.00000000       0.009
  -0.00483639  0.01955851  0.00000000       0.009
   0.00000000  0.02235258  0.00000000       0.005
   0.03869108  0.00000000  0.00000000       0.005
   0.04352747 -0.00279407  0.00000000       0.009
   0.04836385 -0.00558815  0.00000000       0.009
  -0.04836385  0.05029331  0.00000000       0.009
  -0.04352747  0.04749924  0.00000000       0.009
  -0.03869108  0.04470516  0.00000000       0.009
  -0.03385470  0.04191109  0.00000000       0.009
  -0.02901831  0.03911702  0.00000000       0.009
  -0.02418193  0.03632295  0.00000000       0.009
  -0.01934554  0.03352887  0.00000000       0.009
  -0.01450916  0.03073480  0.00000000       0.009
  -0.00967277  0.02794073  0.00000000       0.009
  -0.00483639  0.02514666  0.00000000       0.009
   0.00000000  0.02794073  0.00000000       0.005
   0.04836385  0.00000000  0.00000000       0.005
  -0.04836385  0.05588146  0.00000000       0.009
  -0.04352747  0.05308738  0.00000000       0.009
  -0.03869108  0.05029331  0.00000000       0.009
  -0.03385470  0.04749924  0.00000000       0.009
  -0.02901831  0.04470516  0.00000000       0.009
  -0.02418193  0.04191109  0.00000000       0.009
  -0.01934554  0.03911702  0.00000000       0.009
  -0.01450916  0.03632295  0.00000000       0.009
  -0.00967277  0.03352887  0.00000000       0.009
  -0.00483639  0.03073480  0.00000000       0.009
   0.00000000  0.03352887  0.00000000       0.005
  -0.04352747  0.05867553  0.00000000       0.005
  -0.03869108  0.05588146  0.00000000       0.009
  -0.03385470  0.05308738  0.00000000       0.009
  -0.02901831  0.05029331  0.00000000       0.009
  -0.02418193  0.04749924  0.00000000       0.009
  -0.01934554  0.04470516  0.00000000       0.009
  -0.01450916  0.04191109  0.00000000       0.009
  -0.00967277  0.03911702  0.00000000       0.009
  -0.00483639  0.03632295  0.00000000       0.009
   0.00000000  0.03911702  0.00000000       0.005
  -0.03385470  0.05867553  0.00000000       0.005
  -0.02901831  0.05588146  0.00000000       0.009
  -0.02418193  0.05308738  0.00000000       0.009
  -0.01934554  0.05029331  0.00000000       0.009
  -0.01450916  0.04749924  0.00000000       0.009
  -0.00967277  0.04470516  0.00000000       0.009
  -0.00483639  0.04191109  0.00000000       0.009
   0.00000000  0.04470516  0.00000000       0.005
  -0.02418193  0.05867553  0.00000000       0.005
  -0.01934554  0.05588146  0.00000000       0.009
  -0.01450916  0.05308738  0.00000000       0.009
  -0.00967277  0.05029331  0.00000000       0.009
  -0.00483639  0.04749924  0.00000000       0.009
   0.00000000  0.05029331  0.00000000       0.005
  -0.01450916  0.05867553  0.00000000       0.005
  -0.00967277  0.05588146  0.00000000       0.009
  -0.00483639  0.05308738  0.00000000       0.009
   0.00000000  0.05588146  0.00000000       0.005
  -0.00483639  0.05867553  0.00000000       0.005
 
 k-points in reciprocal lattice and weights: W-1, Se-2                               
   0.00000000  0.00000000  0.00000000       0.002
   0.04761905  0.00000000  0.00000000       0.009
   0.09523810  0.00000000  0.00000000       0.009
   0.14285714  0.00000000  0.00000000       0.009
   0.19047619  0.00000000  0.00000000       0.009
   0.23809524  0.00000000  0.00000000       0.009
   0.28571429  0.00000000  0.00000000       0.009
   0.33333333  0.00000000  0.00000000       0.009
   0.38095238  0.00000000  0.00000000       0.009
   0.42857143  0.00000000  0.00000000       0.009
   0.47619048  0.00000000  0.00000000       0.009
   0.00000000  0.04761905  0.00000000       0.005
   0.09523810  0.04761905  0.00000000       0.005
   0.14285714  0.04761905  0.00000000       0.009
   0.19047619  0.04761905  0.00000000       0.009
   0.23809524  0.04761905  0.00000000       0.009
   0.28571429  0.04761905  0.00000000       0.009
   0.33333333  0.04761905  0.00000000       0.009
   0.38095238  0.04761905  0.00000000       0.009
   0.42857143  0.04761905  0.00000000       0.009
   0.47619048  0.04761905  0.00000000       0.009
  -0.47619048  0.04761905  0.00000000       0.009
  -0.42857143  0.04761905  0.00000000       0.009
  -0.38095238  0.04761905  0.00000000       0.009
  -0.33333333  0.04761905  0.00000000       0.009
  -0.28571429  0.04761905  0.00000000       0.009
  -0.23809524  0.04761905  0.00000000       0.009
  -0.19047619  0.04761905  0.00000000       0.009
  -0.14285714  0.04761905  0.00000000       0.009
  -0.09523810  0.04761905  0.00000000       0.009
  -0.04761905  0.04761905  0.00000000       0.009
   0.00000000  0.09523810  0.00000000       0.005
   0.19047619  0.09523810  0.00000000       0.005
   0.23809524  0.09523810  0.00000000       0.009
   0.28571429  0.09523810  0.00000000       0.009
   0.33333333  0.09523810  0.00000000       0.009
   0.38095238  0.09523810  0.00000000       0.009
   0.42857143  0.09523810  0.00000000       0.009
   0.47619048  0.09523810  0.00000000       0.009
  -0.47619048  0.09523810  0.00000000       0.009
  -0.42857143  0.09523810  0.00000000       0.009
  -0.38095238  0.09523810  0.00000000       0.009
  -0.33333333  0.09523810  0.00000000       0.009
  -0.28571429  0.09523810  0.00000000       0.009
  -0.23809524  0.09523810  0.00000000       0.009
  -0.19047619  0.09523810  0.00000000       0.009
  -0.14285714  0.09523810  0.00000000       0.009
  -0.09523810  0.09523810  0.00000000       0.009
  -0.04761905  0.09523810  0.00000000       0.009
   0.00000000  0.14285714  0.00000000       0.005
   0.28571429  0.14285714  0.00000000       0.005
   0.33333333  0.14285714  0.00000000       0.009
   0.38095238  0.14285714  0.00000000       0.009
   0.42857143  0.14285714  0.00000000       0.009
   0.47619048  0.14285714  0.00000000       0.009
  -0.47619048  0.14285714  0.00000000       0.009
  -0.42857143  0.14285714  0.00000000       0.009
  -0.38095238  0.14285714  0.00000000       0.009
  -0.33333333  0.14285714  0.00000000       0.009
  -0.28571429  0.14285714  0.00000000       0.009
  -0.23809524  0.14285714  0.00000000       0.009
  -0.19047619  0.14285714  0.00000000       0.009
  -0.14285714  0.14285714  0.00000000       0.009
  -0.09523810  0.14285714  0.00000000       0.009
  -0.04761905  0.14285714  0.00000000       0.009
   0.00000000  0.19047619  0.00000000       0.005
   0.38095238  0.19047619  0.00000000       0.005
   0.42857143  0.19047619  0.00000000       0.009
   0.47619048  0.19047619  0.00000000       0.009
  -0.47619048  0.19047619  0.00000000       0.009
  -0.42857143  0.19047619  0.00000000       0.009
  -0.38095238  0.19047619  0.00000000       0.009
  -0.33333333  0.19047619  0.00000000       0.009
  -0.28571429  0.19047619  0.00000000       0.009
  -0.23809524  0.19047619  0.00000000       0.009
  -0.19047619  0.19047619  0.00000000       0.009
  -0.14285714  0.19047619  0.00000000       0.009
  -0.09523810  0.19047619  0.00000000       0.009
  -0.04761905  0.19047619  0.00000000       0.009
   0.00000000  0.23809524  0.00000000       0.005
   0.47619048  0.23809524  0.00000000       0.005
  -0.47619048  0.23809524  0.00000000       0.009
  -0.42857143  0.23809524  0.00000000       0.009
  -0.38095238  0.23809524  0.00000000       0.009
  -0.33333333  0.23809524  0.00000000       0.009
  -0.28571429  0.23809524  0.00000000       0.009
  -0.23809524  0.23809524  0.00000000       0.009
  -0.19047619  0.23809524  0.00000000       0.009
  -0.14285714  0.23809524  0.00000000       0.009
  -0.09523810  0.23809524  0.00000000       0.009
  -0.04761905  0.23809524  0.00000000       0.009
   0.00000000  0.28571429  0.00000000       0.005
  -0.42857143  0.28571429  0.00000000       0.005
  -0.38095238  0.28571429  0.00000000       0.009
  -0.33333333  0.28571429  0.00000000       0.009
  -0.28571429  0.28571429  0.00000000       0.009
  -0.23809524  0.28571429  0.00000000       0.009
  -0.19047619  0.28571429  0.00000000       0.009
  -0.14285714  0.28571429  0.00000000       0.009
  -0.09523810  0.28571429  0.00000000       0.009
  -0.04761905  0.28571429  0.00000000       0.009
   0.00000000  0.33333333  0.00000000       0.005
  -0.33333333  0.33333333  0.00000000       0.005
  -0.28571429  0.33333333  0.00000000       0.009
  -0.23809524  0.33333333  0.00000000       0.009
  -0.19047619  0.33333333  0.00000000       0.009
  -0.14285714  0.33333333  0.00000000       0.009
  -0.09523810  0.33333333  0.00000000       0.009
  -0.04761905  0.33333333  0.00000000       0.009
   0.00000000  0.38095238  0.00000000       0.005
  -0.23809524  0.38095238  0.00000000       0.005
  -0.19047619  0.38095238  0.00000000       0.009
  -0.14285714  0.38095238  0.00000000       0.009
  -0.09523810  0.38095238  0.00000000       0.009
  -0.04761905  0.38095238  0.00000000       0.009
   0.00000000  0.42857143  0.00000000       0.005
  -0.14285714  0.42857143  0.00000000       0.005
  -0.09523810  0.42857143  0.00000000       0.009
  -0.04761905  0.42857143  0.00000000       0.009
   0.00000000  0.47619048  0.00000000       0.005
  -0.04761905  0.47619048  0.00000000       0.005
 
 position of ions in fractional coordinates (direct lattice) 
   0.33330000  0.00006700  0.00000000
   0.66663300  0.00006700  0.00000000
   0.99996700  0.00006700  0.00000000
   0.33330000  0.33340000  0.00000000
   0.66663300  0.33340000  0.00000000
   0.99996700  0.33340000  0.00000000
   0.33330000  0.66673300  0.00000000
   0.66663300  0.66673300  0.00000000
   0.99996700  0.66673300  0.00000000
   0.11109200  0.11114900  0.91595900
   0.44442600  0.11114900  0.91545900
   0.77775900  0.11114900  0.91545900
   0.11109200  0.44448200  0.91545900
   0.44442600  0.44448200  0.91545900
   0.77775900  0.44448200  0.91545900
   0.11109200  0.77781500  0.91545900
   0.44442600  0.77781500  0.91545900
   0.77775900  0.77781500  0.91545900
   0.11109200  0.11114900  0.08454100
   0.44442600  0.11114900  0.08454100
   0.77775900  0.11114900  0.08454100
   0.11109200  0.44448200  0.08454100
   0.44442600  0.44448200  0.08454100
   0.77775900  0.44448200  0.08454100
   0.11109200  0.77781500  0.08454100
   0.44442600  0.77781500  0.08454100
   0.77775900  0.77781500  0.08454100
 
 position of ions in cartesian coordinates  (Angst):
   3.28200164  0.00057094  0.00000000
   6.56399836  0.00057094  0.00000000
   9.84600492  0.00057094  0.00000000
   4.92300000  2.84104810  0.00000000
   8.20499672  2.84104810  0.00000000
  11.48700328  2.84104810  0.00000000
   6.56399836  5.68152526  0.00000000
   9.84599508  5.68152526  0.00000000
  13.12800164  5.68152526  0.00000000
   1.64099836  0.94714953 18.31918000
   4.92300492  0.94714953 18.30918000
   8.20500164  0.94714953 18.30918000
   3.28199672  3.78762669 18.30918000
   6.56400328  3.78762669 18.30918000
   9.84600000  3.78762669 18.30918000
   4.92299508  6.62810385 18.30918000
   8.20500164  6.62810385 18.30918000
  11.48699836  6.62810385 18.30918000
   1.64099836  0.94714953  1.69082000
   4.92300492  0.94714953  1.69082000
   8.20500164  0.94714953  1.69082000
   3.28199672  3.78762669  1.69082000
   6.56400328  3.78762669  1.69082000
   9.84600000  3.78762669  1.69082000
   4.92299508  6.62810385  1.69082000
   8.20500164  6.62810385  1.69082000
  11.48699836  6.62810385  1.69082000
 


--------------------------------------------------------------------------------------------------------


 k-point  1 :   0.0000 0.0000 0.0000  plane waves:   86201
 k-point  2 :   0.0476 0.0000 0.0000  plane waves:   86227
 k-point  3 :   0.0952 0.0000 0.0000  plane waves:   86283
 k-point  4 :   0.1429 0.0000 0.0000  plane waves:   86284
 k-point  5 :   0.1905 0.0000 0.0000  plane waves:   86267
 k-point  6 :   0.2381 0.0000 0.0000  plane waves:   86227
 k-point  7 :   0.2857 0.0000 0.0000  plane waves:   86214
 k-point  8 :   0.3333 0.0000 0.0000  plane waves:   86217
 k-point  9 :   0.3810 0.0000 0.0000  plane waves:   86191
 k-point 10 :   0.4286 0.0000 0.0000  plane waves:   86216
 k-point 11 :   0.4762 0.0000 0.0000  plane waves:   86214
 k-point 12 :   0.0000 0.0476 0.0000  plane waves:   86227
 k-point 13 :   0.0952 0.0476 0.0000  plane waves:   86245
 k-point 14 :   0.1429 0.0476 0.0000  plane waves:   86285
 k-point 15 :   0.1905 0.0476 0.0000  plane waves:   86262
 k-point 16 :   0.2381 0.0476 0.0000  plane waves:   86205
 k-point 17 :   0.2857 0.0476 0.0000  plane waves:   86209
 k-point 18 :   0.3333 0.0476 0.0000  plane waves:   86197
 k-point 19 :   0.3810 0.0476 0.0000  plane waves:   86210
 k-point 20 :   0.4286 0.0476 0.0000  plane waves:   86200
 k-point 21 :   0.4762 0.0476 0.0000  plane waves:   86221
 k-point 22 :  -0.4762 0.0476 0.0000  plane waves:   86256
 k-point 23 :  -0.4286 0.0476 0.0000  plane waves:   86219
 k-point 24 :  -0.3810 0.0476 0.0000  plane waves:   86210
 k-point 25 :  -0.3333 0.0476 0.0000  plane waves:   86211
 k-point 26 :  -0.2857 0.0476 0.0000  plane waves:   86192
 k-point 27 :  -0.2381 0.0476 0.0000  plane waves:   86203
 k-point 28 :  -0.1905 0.0476 0.0000  plane waves:   86216
 k-point 29 :  -0.1429 0.0476 0.0000  plane waves:   86252
 k-point 30 :  -0.0952 0.0476 0.0000  plane waves:   86289
 k-point 31 :  -0.0476 0.0476 0.0000  plane waves:   86246
 k-point 32 :   0.0000 0.0952 0.0000  plane waves:   86271
 k-point 33 :   0.1905 0.0952 0.0000  plane waves:   86243
 k-point 34 :   0.2381 0.0952 0.0000  plane waves:   86249
 k-point 35 :   0.2857 0.0952 0.0000  plane waves:   86208
 k-point 36 :   0.3333 0.0952 0.0000  plane waves:   86173
 k-point 37 :   0.3810 0.0952 0.0000  plane waves:   86209
 k-point 38 :   0.4286 0.0952 0.0000  plane waves:   86200
 k-point 39 :   0.4762 0.0952 0.0000  plane waves:   86182
 k-point 40 :  -0.4762 0.0952 0.0000  plane waves:   86212
 k-point 41 :  -0.4286 0.0952 0.0000  plane waves:   86220
 k-point 42 :  -0.3810 0.0952 0.0000  plane waves:   86202
 k-point 43 :  -0.3333 0.0952 0.0000  plane waves:   86186
 k-point 44 :  -0.2857 0.0952 0.0000  plane waves:   86204
 k-point 45 :  -0.2381 0.0952 0.0000  plane waves:   86167
 k-point 46 :  -0.1905 0.0952 0.0000  plane waves:   86195
 k-point 47 :  -0.1429 0.0952 0.0000  plane waves:   86247
 k-point 48 :  -0.0952 0.0952 0.0000  plane waves:   86256
 k-point 49 :  -0.0476 0.0952 0.0000  plane waves:   86287
 k-point 50 :   0.0000 0.1429 0.0000  plane waves:   86267
 k-point 51 :   0.2857 0.1429 0.0000  plane waves:   86183
 k-point 52 :   0.3333 0.1429 0.0000  plane waves:   86209
 k-point 53 :   0.3810 0.1429 0.0000  plane waves:   86191
 k-point 54 :   0.4286 0.1429 0.0000  plane waves:   86194
 k-point 55 :   0.4762 0.1429 0.0000  plane waves:   86180
 k-point 56 :  -0.4762 0.1429 0.0000  plane waves:   86195
 k-point 57 :  -0.4286 0.1429 0.0000  plane waves:   86219
 k-point 58 :  -0.3810 0.1429 0.0000  plane waves:   86209
 k-point 59 :  -0.3333 0.1429 0.0000  plane waves:   86193
 k-point 60 :  -0.2857 0.1429 0.0000  plane waves:   86196
 k-point 61 :  -0.2381 0.1429 0.0000  plane waves:   86206
 k-point 62 :  -0.1905 0.1429 0.0000  plane waves:   86210
 k-point 63 :  -0.1429 0.1429 0.0000  plane waves:   86185
 k-point 64 :  -0.0952 0.1429 0.0000  plane waves:   86245
 k-point 65 :  -0.0476 0.1429 0.0000  plane waves:   86252
 k-point 66 :   0.0000 0.1905 0.0000  plane waves:   86253
 k-point 67 :   0.3810 0.1905 0.0000  plane waves:   86215
 k-point 68 :   0.4286 0.1905 0.0000  plane waves:   86180
 k-point 69 :   0.4762 0.1905 0.0000  plane waves:   86161
 k-point 70 :  -0.4762 0.1905 0.0000  plane waves:   86224
 k-point 71 :  -0.4286 0.1905 0.0000  plane waves:   86217
 k-point 72 :  -0.3810 0.1905 0.0000  plane waves:   86212
 k-point 73 :  -0.3333 0.1905 0.0000  plane waves:   86211
 k-point 74 :  -0.2857 0.1905 0.0000  plane waves:   86174
 k-point 75 :  -0.2381 0.1905 0.0000  plane waves:   86186
 k-point 76 :  -0.1905 0.1905 0.0000  plane waves:   86217
 k-point 77 :  -0.1429 0.1905 0.0000  plane waves:   86220
 k-point 78 :  -0.0952 0.1905 0.0000  plane waves:   86181
 k-point 79 :  -0.0476 0.1905 0.0000  plane waves:   86213
 k-point 80 :   0.0000 0.2381 0.0000  plane waves:   86227
 k-point 81 :   0.4762 0.2381 0.0000  plane waves:   86171
 k-point 82 :  -0.4762 0.2381 0.0000  plane waves:   86222
 k-point 83 :  -0.4286 0.2381 0.0000  plane waves:   86226
 k-point 84 :  -0.3810 0.2381 0.0000  plane waves:   86244
 k-point 85 :  -0.3333 0.2381 0.0000  plane waves:   86242
 k-point 86 :  -0.2857 0.2381 0.0000  plane waves:   86228
 k-point 87 :  -0.2381 0.2381 0.0000  plane waves:   86179
 k-point 88 :  -0.1905 0.2381 0.0000  plane waves:   86183
 k-point 89 :  -0.1429 0.2381 0.0000  plane waves:   86218
 k-point 90 :  -0.0952 0.2381 0.0000  plane waves:   86171
 k-point 91 :  -0.0476 0.2381 0.0000  plane waves:   86219
 k-point 92 :   0.0000 0.2857 0.0000  plane waves:   86219
 k-point 93 :  -0.4286 0.2857 0.0000  plane waves:   86239
 k-point 94 :  -0.3810 0.2857 0.0000  plane waves:   86218
 k-point 95 :  -0.3333 0.2857 0.0000  plane waves:   86226
 k-point 96 :  -0.2857 0.2857 0.0000  plane waves:   86243
 k-point 97 :  -0.2381 0.2857 0.0000  plane waves:   86236
 k-point 98 :  -0.1905 0.2857 0.0000  plane waves:   86165
 k-point 99 :  -0.1429 0.2857 0.0000  plane waves:   86197
 k-point ** :  -0.0952 0.2857 0.0000  plane waves:   86206
 k-point ** :  -0.0476 0.2857 0.0000  plane waves:   86201
 k-point ** :   0.0000 0.3333 0.0000  plane waves:   86205
 k-point ** :  -0.3333 0.3333 0.0000  plane waves:   86171
 k-point ** :  -0.2857 0.3333 0.0000  plane waves:   86218
 k-point ** :  -0.2381 0.3333 0.0000  plane waves:   86230
 k-point ** :  -0.1905 0.3333 0.0000  plane waves:   86230
 k-point ** :  -0.1429 0.3333 0.0000  plane waves:   86183
 k-point ** :  -0.0952 0.3333 0.0000  plane waves:   86197
 k-point ** :  -0.0476 0.3333 0.0000  plane waves:   86214
 k-point ** :   0.0000 0.3810 0.0000  plane waves:   86184
 k-point ** :  -0.2381 0.3810 0.0000  plane waves:   86228
 k-point ** :  -0.1905 0.3810 0.0000  plane waves:   86204
 k-point ** :  -0.1429 0.3810 0.0000  plane waves:   86197
 k-point ** :  -0.0952 0.3810 0.0000  plane waves:   86177
 k-point ** :  -0.0476 0.3810 0.0000  plane waves:   86198
 k-point ** :   0.0000 0.4286 0.0000  plane waves:   86208
 k-point ** :  -0.1429 0.4286 0.0000  plane waves:   86202
 k-point ** :  -0.0952 0.4286 0.0000  plane waves:   86219
 k-point ** :  -0.0476 0.4286 0.0000  plane waves:   86209
 k-point ** :   0.0000 0.4762 0.0000  plane waves:   86210
 k-point ** :  -0.0476 0.4762 0.0000  plane waves:   86236

 maximum and minimum number of plane-waves per node :     14415    14316

 maximum number of plane-waves:     86289
 maximum index in each direction: 
   IXMAX=   23   IYMAX=   22   IZMAX=   46
   IXMIN=  -23   IYMIN=  -23   IZMIN=  -46


 parallel 3D FFT for wavefunctions:
    minimum data exchange during FFTs selected (reduces bandwidth)
 parallel 3D FFT for charge:
    minimum data exchange during FFTs selected (reduces bandwidth)


 total amount of memory used by VASP MPI-rank0  1117972. kBytes
=======================================================================

   base      :      30000. kBytes
   nonl-proj :     507396. kBytes
   fftplans  :      67907. kBytes
   grid      :      36685. kBytes
   one-center:         77. kBytes
   wavefun   :     475907. kBytes
 
     INWAV:  cpu time    0.0001: real time    0.0025
 Broyden mixing: mesh for mixing (old mesh)
   NGX = 45   NGY = 45   NGZ = 93
  (NGX  =192   NGY  =192   NGZ  =384)
  gives a total of 188325 points

 initial charge density was supplied:
 charge density of overlapping atoms calculated
 number of electron     162.0000000 magnetization 
 keeping initial charge density in first step


--------------------------------------------------------------------------------------------------------


 Maximum index for augmentation-charges        15381 (set IRDMAX)


--------------------------------------------------------------------------------------------------------


 First call to EWALD:  gamma=   0.149
 Maximum number of real-space cells 4x 4x 2
 Maximum number of reciprocal cells 2x 2x 4

    FEWALD:  cpu time    0.0013: real time    0.0013


--------------------------------------- Iteration      1(   1)  ---------------------------------------


    POTLOK:  cpu time    0.2196: real time    0.2415
    SETDIJ:  cpu time    0.1964: real time    0.1969
     EDDAV:  cpu time  144.2518: real time  144.6045
       DOS:  cpu time    0.0047: real time    0.0047
    --------------------------------------------
      LOOP:  cpu time  144.6725: real time  145.0476

 eigenvalue-minimisations  : 24684
 total energy-change (2. order) : 0.1415014E+04  (-0.6845578E+04)
 number of electron     162.0000000 magnetization 
 augmentation part      162.0000000 magnetization 

 Free energy of the ion-electron system (eV)
  ---------------------------------------------------
  alpha Z        PSCENC =       206.49012646
  Ewald energy   TEWEN  =     19429.41661732
  -Hartree energ DENC   =    -25379.43148136
  -exchange      EXHF   =         0.00000000
  -V(xc)+E(xc)   XCENC  =      -439.15061696
  PAW double counting   =      3546.74135395    -2766.52518036
  entropy T*S    EENTRO =        -0.00053094
  eigenvalues    EBANDS =       350.63077552
  atomic energy  EATOM  =      6466.84281893
  Solvation  Ediel_sol  =         0.00000000
  ---------------------------------------------------
  free energy    TOTEN  =      1415.01388255 eV

  energy without entropy =     1415.01441349  energy(sigma->0) =     1415.01414802


--------------------------------------------------------------------------------------------------------




--------------------------------------- Iteration      1(   2)  ---------------------------------------


     EDDAV:  cpu time  211.5142: real time  212.0573
       DOS:  cpu time    0.0020: real time    0.0020
    --------------------------------------------
      LOOP:  cpu time  211.5162: real time  212.0593

 eigenvalue-minimisations  : 40800
 total energy-change (2. order) :-0.1395313E+04  (-0.1348733E+04)
 number of electron     162.0000000 magnetization 
 augmentation part      162.0000000 magnetization 

 Free energy of the ion-electron system (eV)
  ---------------------------------------------------
  alpha Z        PSCENC =       206.49012646
  Ewald energy   TEWEN  =     19429.41661732
  -Hartree energ DENC   =    -25379.43148136
  -exchange      EXHF   =         0.00000000
  -V(xc)+E(xc)   XCENC  =      -439.15061696
  PAW double counting   =      3546.74135395    -2766.52518036
  entropy T*S    EENTRO =        -0.00000000
  eigenvalues    EBANDS =     -1044.68318239
  atomic energy  EATOM  =      6466.84281893
  Solvation  Ediel_sol  =         0.00000000
  ---------------------------------------------------
  free energy    TOTEN  =        19.70045558 eV

  energy without entropy =       19.70045558  energy(sigma->0) =       19.70045558


--------------------------------------------------------------------------------------------------------




--------------------------------------- Iteration      1(   3)  ---------------------------------------


     EDDAV:  cpu time  163.4365: real time  163.8580
       DOS:  cpu time    0.0020: real time    0.0020
    --------------------------------------------
      LOOP:  cpu time  163.4386: real time  163.8600

 eigenvalue-minimisations  : 29232
 total energy-change (2. order) :-0.2147275E+03  (-0.2130825E+03)
 number of electron     162.0000000 magnetization 
 augmentation part      162.0000000 magnetization 

 Free energy of the ion-electron system (eV)
  ---------------------------------------------------
  alpha Z        PSCENC =       206.49012646
  Ewald energy   TEWEN  =     19429.41661732
  -Hartree energ DENC   =    -25379.43148136
  -exchange      EXHF   =         0.00000000
  -V(xc)+E(xc)   XCENC  =      -439.15061696
  PAW double counting   =      3546.74135395    -2766.52518036
  entropy T*S    EENTRO =        -0.00000000
  eigenvalues    EBANDS =     -1259.41072018
  atomic energy  EATOM  =      6466.84281893
  Solvation  Ediel_sol  =         0.00000000
  ---------------------------------------------------
  free energy    TOTEN  =      -195.02708221 eV

  energy without entropy =     -195.02708221  energy(sigma->0) =     -195.02708221


--------------------------------------------------------------------------------------------------------




--------------------------------------- Iteration      1(   4)  ---------------------------------------


     EDDAV:  cpu time  179.3340: real time  179.7944
       DOS:  cpu time    0.0016: real time    0.0016
    --------------------------------------------
      LOOP:  cpu time  179.3356: real time  179.7959

 eigenvalue-minimisations  : 33036
 total energy-change (2. order) :-0.8834999E+01  (-0.8784216E+01)
 number of electron     162.0000000 magnetization 
 augmentation part      162.0000000 magnetization 

 Free energy of the ion-electron system (eV)
  ---------------------------------------------------
  alpha Z        PSCENC =       206.49012646
  Ewald energy   TEWEN  =     19429.41661732
  -Hartree energ DENC   =    -25379.43148136
  -exchange      EXHF   =         0.00000000
  -V(xc)+E(xc)   XCENC  =      -439.15061696
  PAW double counting   =      3546.74135395    -2766.52518036
  entropy T*S    EENTRO =        -0.00000000
  eigenvalues    EBANDS =     -1268.24571961
  atomic energy  EATOM  =      6466.84281893
  Solvation  Ediel_sol  =         0.00000000
  ---------------------------------------------------
  free energy    TOTEN  =      -203.86208165 eV

  energy without entropy =     -203.86208165  energy(sigma->0) =     -203.86208165


--------------------------------------------------------------------------------------------------------




--------------------------------------- Iteration      1(   5)  ---------------------------------------


     EDDAV:  cpu time  199.5257: real time  200.0377
       DOS:  cpu time    0.0020: real time    0.0020
    CHARGE:  cpu time    7.7958: real time    7.8153
    MIXING:  cpu time    0.0222: real time    0.0222
    --------------------------------------------
      LOOP:  cpu time  207.3457: real time  207.8772

 eigenvalue-minimisations  : 37896
 total energy-change (2. order) :-0.3001436E+00  (-0.2996423E+00)
 number of electron     161.9999999 magnetization 
 augmentation part      -16.0932359 magnetization 

 Broyden mixing:
  rms(total) = 0.16085E+01    rms(broyden)= 0.16085E+01
  rms(prec ) = 0.18333E+01
  weight for this iteration     100.00

 Free energy of the ion-electron system (eV)
  ---------------------------------------------------
  alpha Z        PSCENC =       206.49012646
  Ewald energy   TEWEN  =     19429.41661732
  -Hartree energ DENC   =    -25379.43148136
  -exchange      EXHF   =         0.00000000
  -V(xc)+E(xc)   XCENC  =      -439.15061696
  PAW double counting   =      3546.74135395    -2766.52518036
  entropy T*S    EENTRO =        -0.00000000
  eigenvalues    EBANDS =     -1268.54586322
  atomic energy  EATOM  =      6466.84281893
  Solvation  Ediel_sol  =         0.00000000
  ---------------------------------------------------
  free energy    TOTEN  =      -204.16222525 eV

  energy without entropy =     -204.16222525  energy(sigma->0) =     -204.16222525


--------------------------------------------------------------------------------------------------------




--------------------------------------- Iteration      1(   6)  ---------------------------------------


    POTLOK:  cpu time    0.2017: real time    0.2245
    SETDIJ:  cpu time    0.1865: real time    0.1869
     EDDAV:  cpu time  190.5607: real time  191.0250
       DOS:  cpu time    0.0017: real time    0.0017
    CHARGE:  cpu time    7.9635: real time    7.9826
    MIXING:  cpu time    0.0248: real time    0.0248
    --------------------------------------------
      LOOP:  cpu time  198.9389: real time  199.4454

 eigenvalue-minimisations  : 35892
 total energy-change (2. order) : 0.7342940E+01  (-0.4134388E+01)
 number of electron     161.9999999 magnetization 
 augmentation part      -13.3299198 magnetization 

 Broyden mixing:
  rms(total) = 0.60584E+00    rms(broyden)= 0.60584E+00
  rms(prec ) = 0.77159E+00
  weight for this iteration     100.00

 eigenvalues of (default mixing * dielectric matrix)
  average eigenvalue GAMMA=   1.0129
  1.0129

 Free energy of the ion-electron system (eV)
  ---------------------------------------------------
  alpha Z        PSCENC =       206.49012646
  Ewald energy   TEWEN  =     19429.41661732
  -Hartree energ DENC   =    -25374.07785426
  -exchange      EXHF   =         0.00000000
  -V(xc)+E(xc)   XCENC  =      -433.56372603
  PAW double counting   =      3748.54532103    -2975.85503675
  entropy T*S    EENTRO =        -0.00000000
  eigenvalues    EBANDS =     -1264.61755220
  atomic energy  EATOM  =      6466.84281893
  Solvation  Ediel_sol  =         0.00000000
  ---------------------------------------------------
  free energy    TOTEN  =      -196.81928551 eV

  energy without entropy =     -196.81928551  energy(sigma->0) =     -196.81928551


--------------------------------------------------------------------------------------------------------




--------------------------------------- Iteration      1(   7)  ---------------------------------------


    POTLOK:  cpu time    0.1966: real time    0.2192
    SETDIJ:  cpu time    0.1887: real time    0.1892
     EDDAV:  cpu time  184.4085: real time  184.8578
       DOS:  cpu time    0.0016: real time    0.0016
    CHARGE:  cpu time    7.9913: real time    8.0109
    MIXING:  cpu time    0.0242: real time    0.0243
    --------------------------------------------
      LOOP:  cpu time  192.8109: real time  193.3030

 eigenvalue-minimisations  : 34380
 total energy-change (2. order) : 0.1598749E+01  (-0.8229966E+00)
 number of electron     161.9999999 magnetization 
 augmentation part      -13.9960942 magnetization 

 Broyden mixing:
  rms(total) = 0.38258E+00    rms(broyden)= 0.38258E+00
  rms(prec ) = 0.42370E+00
  weight for this iteration     100.00

 eigenvalues of (default mixing * dielectric matrix)
  average eigenvalue GAMMA=   1.4540
  0.7380  2.1700

 Free energy of the ion-electron system (eV)
  ---------------------------------------------------
  alpha Z        PSCENC =       206.49012646
  Ewald energy   TEWEN  =     19429.41661732
  -Hartree energ DENC   =    -25399.58249881
  -exchange      EXHF   =         0.00000000
  -V(xc)+E(xc)   XCENC  =      -433.20475061
  PAW double counting   =      3916.26799755    -3145.86142196
  entropy T*S    EENTRO =        -0.00000000
  eigenvalues    EBANDS =     -1235.58942528
  atomic energy  EATOM  =      6466.84281893
  Solvation  Ediel_sol  =         0.00000000
  ---------------------------------------------------
  free energy    TOTEN  =      -195.22053641 eV

  energy without entropy =     -195.22053641  energy(sigma->0) =     -195.22053641


--------------------------------------------------------------------------------------------------------




--------------------------------------- Iteration      1(   8)  ---------------------------------------


    POTLOK:  cpu time    0.2012: real time    0.2245
    SETDIJ:  cpu time    0.1863: real time    0.1868
     EDDAV:  cpu time  164.1910: real time  164.5921
       DOS:  cpu time    0.0030: real time    0.0030
    CHARGE:  cpu time    7.9879: real time    8.0069
    MIXING:  cpu time    0.0258: real time    0.0259
    --------------------------------------------
      LOOP:  cpu time  172.5953: real time  173.0392

 eigenvalue-minimisations  : 29496
 total energy-change (2. order) : 0.4738657E+00  (-0.1564708E+00)
 number of electron     161.9999999 magnetization 
 augmentation part      -13.8823699 magnetization 

 Broyden mixing:
  rms(total) = 0.79928E-01    rms(broyden)= 0.79928E-01
  rms(prec ) = 0.10007E+00
  weight for this iteration     100.00

 eigenvalues of (default mixing * dielectric matrix)
  average eigenvalue GAMMA=   1.4302
  2.2047  1.3258  0.7599

 Free energy of the ion-electron system (eV)
  ---------------------------------------------------
  alpha Z        PSCENC =       206.49012646
  Ewald energy   TEWEN  =     19429.41661732
  -Hartree energ DENC   =    -25420.03339340
  -exchange      EXHF   =         0.00000000
  -V(xc)+E(xc)   XCENC  =      -430.62501403
  PAW double counting   =      4146.51223872    -3380.10767811
  entropy T*S    EENTRO =        -0.00000000
  eigenvalues    EBANDS =     -1213.24238656
  atomic energy  EATOM  =      6466.84281893
  Solvation  Ediel_sol  =         0.00000000
  ---------------------------------------------------
  free energy    TOTEN  =      -194.74667068 eV

  energy without entropy =     -194.74667068  energy(sigma->0) =     -194.74667068


--------------------------------------------------------------------------------------------------------




--------------------------------------- Iteration      1(   9)  ---------------------------------------


    POTLOK:  cpu time    0.1976: real time    0.2205
    SETDIJ:  cpu time    0.1848: real time    0.1852
     EDDAV:  cpu time  191.3427: real time  191.8106
       DOS:  cpu time    0.0024: real time    0.0024
    CHARGE:  cpu time    7.9598: real time    7.9789
    MIXING:  cpu time    0.0257: real time    0.0257
    --------------------------------------------
      LOOP:  cpu time  199.7130: real time  200.2234

 eigenvalue-minimisations  : 36048
 total energy-change (2. order) : 0.1609319E-01  (-0.2618661E-01)
 number of electron     161.9999999 magnetization 
 augmentation part      -13.7463030 magnetization 

 Broyden mixing:
  rms(total) = 0.47857E-01    rms(broyden)= 0.47857E-01
  rms(prec ) = 0.74507E-01
  weight for this iteration     100.00

 eigenvalues of (default mixing * dielectric matrix)
  average eigenvalue GAMMA=   1.5765
  2.6892  0.8132  0.9544  1.8493

 Free energy of the ion-electron system (eV)
  ---------------------------------------------------
  alpha Z        PSCENC =       206.49012646
  Ewald energy   TEWEN  =     19429.41661732
  -Hartree energ DENC   =    -25427.06358682
  -exchange      EXHF   =         0.00000000
  -V(xc)+E(xc)   XCENC  =      -430.07639748
  PAW double counting   =      4181.67607898    -3415.68785180
  entropy T*S    EENTRO =        -0.00000000
  eigenvalues    EBANDS =     -1206.32838307
  atomic energy  EATOM  =      6466.84281893
  Solvation  Ediel_sol  =         0.00000000
  ---------------------------------------------------
  free energy    TOTEN  =      -194.73057749 eV

  energy without entropy =     -194.73057749  energy(sigma->0) =     -194.73057749


--------------------------------------------------------------------------------------------------------




--------------------------------------- Iteration      1(  10)  ---------------------------------------


    POTLOK:  cpu time    0.1959: real time    0.2184
    SETDIJ:  cpu time    0.1847: real time    0.1852
     EDDAV:  cpu time  189.5376: real time  190.0001
       DOS:  cpu time    0.0026: real time    0.0026
    CHARGE:  cpu time    7.9545: real time    7.9742
    MIXING:  cpu time    0.0261: real time    0.0261
    --------------------------------------------
      LOOP:  cpu time  197.9014: real time  198.4066

 eigenvalue-minimisations  : 35556
 total energy-change (2. order) : 0.2861765E-01  (-0.1079905E-01)
 number of electron     161.9999999 magnetization 
 augmentation part      -13.8388914 magnetization 

 Broyden mixing:
  rms(total) = 0.26810E-01    rms(broyden)= 0.26810E-01
  rms(prec ) = 0.43201E-01
  weight for this iteration     100.00

 eigenvalues of (default mixing * dielectric matrix)
  average eigenvalue GAMMA=   1.4398
  2.5924  1.9703  0.8062  0.8062  1.0240

 Free energy of the ion-electron system (eV)
  ---------------------------------------------------
  alpha Z        PSCENC =       206.49012646
  Ewald energy   TEWEN  =     19429.41661732
  -Hartree energ DENC   =    -25440.37110765
  -exchange      EXHF   =         0.00000000
  -V(xc)+E(xc)   XCENC  =      -429.85802108
  PAW double counting   =      4212.87555303    -3447.01282566
  entropy T*S    EENTRO =        -0.00000000
  eigenvalues    EBANDS =     -1193.08512119
  atomic energy  EATOM  =      6466.84281893
  Solvation  Ediel_sol  =         0.00000000
  ---------------------------------------------------
  free energy    TOTEN  =      -194.70195984 eV

  energy without entropy =     -194.70195984  energy(sigma->0) =     -194.70195984


--------------------------------------------------------------------------------------------------------




--------------------------------------- Iteration      1(  11)  ---------------------------------------


    POTLOK:  cpu time    0.1961: real time    0.2186
    SETDIJ:  cpu time    0.1848: real time    0.1853
     EDDAV:  cpu time  192.7417: real time  193.2156
       DOS:  cpu time    0.0020: real time    0.0020
    CHARGE:  cpu time    7.6766: real time    7.6949
    MIXING:  cpu time    0.0247: real time    0.0248
    --------------------------------------------
      LOOP:  cpu time  200.8259: real time  201.3412

 eigenvalue-minimisations  : 36240
 total energy-change (2. order) : 0.5722247E-02  (-0.7078430E-03)
 number of electron     161.9999999 magnetization 
 augmentation part      -13.8215690 magnetization 

 Broyden mixing:
  rms(total) = 0.16722E-01    rms(broyden)= 0.16722E-01
  rms(prec ) = 0.34082E-01
  weight for this iteration     100.00

 eigenvalues of (default mixing * dielectric matrix)
  average eigenvalue GAMMA=   1.3426
  2.4456  2.0553  1.1321  0.9777  0.8424  0.6028

 Free energy of the ion-electron system (eV)
  ---------------------------------------------------
  alpha Z        PSCENC =       206.49012646
  Ewald energy   TEWEN  =     19429.41661732
  -Hartree energ DENC   =    -25443.28438060
  -exchange      EXHF   =         0.00000000
  -V(xc)+E(xc)   XCENC  =      -429.80170887
  PAW double counting   =      4208.55255316    -3442.63945681
  entropy T*S    EENTRO =        -0.00000000
  eigenvalues    EBANDS =     -1190.27280717
  atomic energy  EATOM  =      6466.84281893
  Solvation  Ediel_sol  =         0.00000000
  ---------------------------------------------------
  free energy    TOTEN  =      -194.69623759 eV

  energy without entropy =     -194.69623759  energy(sigma->0) =     -194.69623759


--------------------------------------------------------------------------------------------------------




--------------------------------------- Iteration      1(  12)  ---------------------------------------


    POTLOK:  cpu time    0.1939: real time    0.2167
    SETDIJ:  cpu time    0.1848: real time    0.1852
     EDDAV:  cpu time  193.4936: real time  193.9721
       DOS:  cpu time    0.0016: real time    0.0016
    CHARGE:  cpu time    7.6820: real time    7.7003
    MIXING:  cpu time    0.0253: real time    0.0254
    --------------------------------------------
      LOOP:  cpu time  201.5811: real time  202.1014

 eigenvalue-minimisations  : 36420
 total energy-change (2. order) : 0.4382924E-02  (-0.7676936E-03)
 number of electron     161.9999999 magnetization 
 augmentation part      -13.7856742 magnetization 

 Broyden mixing:
  rms(total) = 0.10051E-01    rms(broyden)= 0.10051E-01
  rms(prec ) = 0.29299E-01
  weight for this iteration     100.00

 eigenvalues of (default mixing * dielectric matrix)
  average eigenvalue GAMMA=   1.5955
  3.3536  2.6016  1.7223  1.3137  0.8212  0.8212  0.5349

 Free energy of the ion-electron system (eV)
  ---------------------------------------------------
  alpha Z        PSCENC =       206.49012646
  Ewald energy   TEWEN  =     19429.41661732
  -Hartree energ DENC   =    -25447.56140517
  -exchange      EXHF   =         0.00000000
  -V(xc)+E(xc)   XCENC  =      -429.73617125
  PAW double counting   =      4201.83393927    -3435.86188470
  entropy T*S    EENTRO =        -0.00000000
  eigenvalues    EBANDS =     -1186.11589551
  atomic energy  EATOM  =      6466.84281893
  Solvation  Ediel_sol  =         0.00000000
  ---------------------------------------------------
  free energy    TOTEN  =      -194.69185467 eV

  energy without entropy =     -194.69185467  energy(sigma->0) =     -194.69185467


--------------------------------------------------------------------------------------------------------




--------------------------------------- Iteration      1(  13)  ---------------------------------------


    POTLOK:  cpu time    0.1987: real time    0.2210
    SETDIJ:  cpu time    0.1875: real time    0.1879
     EDDAV:  cpu time  168.7356: real time  169.1518
       DOS:  cpu time    0.0022: real time    0.0022
    CHARGE:  cpu time    7.6728: real time    7.6912
    MIXING:  cpu time    0.0225: real time    0.0226
    --------------------------------------------
      LOOP:  cpu time  176.8193: real time  177.2767

 eigenvalue-minimisations  : 30456
 total energy-change (2. order) : 0.1106248E-01  (-0.1176356E-02)
 number of electron     161.9999999 magnetization 
 augmentation part      -13.7841014 magnetization 

 Broyden mixing:
  rms(total) = 0.74894E-02    rms(broyden)= 0.74894E-02
  rms(prec ) = 0.19246E-01
  weight for this iteration     100.00

 eigenvalues of (default mixing * dielectric matrix)
  average eigenvalue GAMMA=   1.6190
  3.7854  2.5784  1.7356  1.7356  0.8779  0.8525  0.8525  0.5345

 Free energy of the ion-electron system (eV)
  ---------------------------------------------------
  alpha Z        PSCENC =       206.49012646
  Ewald energy   TEWEN  =     19429.41661732
  -Hartree energ DENC   =    -25463.98282975
  -exchange      EXHF   =         0.00000000
  -V(xc)+E(xc)   XCENC  =      -429.56838413
  PAW double counting   =      4195.04434140    -3428.97029507
  entropy T*S    EENTRO =        -0.00000000
  eigenvalues    EBANDS =     -1169.95318735
  atomic energy  EATOM  =      6466.84281893
  Solvation  Ediel_sol  =         0.00000000
  ---------------------------------------------------
  free energy    TOTEN  =      -194.68079219 eV

  energy without entropy =     -194.68079219  energy(sigma->0) =     -194.68079219


--------------------------------------------------------------------------------------------------------




--------------------------------------- Iteration      1(  14)  ---------------------------------------


    POTLOK:  cpu time    0.1970: real time    0.2191
    SETDIJ:  cpu time    0.1839: real time    0.1843
     EDDAV:  cpu time  185.1778: real time  185.6334
       DOS:  cpu time    0.0023: real time    0.0023
    CHARGE:  cpu time    7.6685: real time    7.6873
    MIXING:  cpu time    0.0250: real time    0.0251
    --------------------------------------------
      LOOP:  cpu time  193.2544: real time  193.7514

 eigenvalue-minimisations  : 34428
 total energy-change (2. order) : 0.2132679E-02  (-0.1791216E-03)
 number of electron     161.9999999 magnetization 
 augmentation part      -13.7911942 magnetization 

 Broyden mixing:
  rms(total) = 0.63542E-02    rms(broyden)= 0.63542E-02
  rms(prec ) = 0.16395E-01
  weight for this iteration     100.00

 eigenvalues of (default mixing * dielectric matrix)
  average eigenvalue GAMMA=   1.7028
  4.5961  2.5979  2.3640  1.8647  1.0948  0.8375  0.8375  0.5348  0.5983

 Free energy of the ion-electron system (eV)
  ---------------------------------------------------
  alpha Z        PSCENC =       206.49012646
  Ewald energy   TEWEN  =     19429.41661732
  -Hartree energ DENC   =    -25469.18815679
  -exchange      EXHF   =         0.00000000
  -V(xc)+E(xc)   XCENC  =      -429.54379749
  PAW double counting   =      4195.28967996    -3429.24806010
  entropy T*S    EENTRO =        -0.00000000
  eigenvalues    EBANDS =     -1164.73788780
  atomic energy  EATOM  =      6466.84281893
  Solvation  Ediel_sol  =         0.00000000
[...]
     49      -4.9431      2.00000
     50      -4.8090      2.00000
     51      -4.7164      2.00000
     52      -4.6963      2.00000
     53      -4.5340      2.00000
     54      -4.5333      2.00000
     55      -4.3495      2.00000
     56      -4.3487      2.00000
     57      -3.9889      2.00000
     58      -3.8337      2.00000
     59      -3.8326      2.00000
     60      -3.7978      2.00000
     61      -3.7966      2.00000
     62      -3.7458      2.00000
     63      -3.7436      2.00000
     64      -3.6946      2.00000
     65      -3.6269      2.00000
     66      -3.5621      2.00000
     67      -3.4725      2.00000
     68      -3.1333      2.00000
     69      -3.1108      2.00000
     70      -3.1091      2.00000
     71      -3.0690      2.00000
     72      -2.7949      2.00000
     73      -2.6128      2.00000
     74      -2.5706      2.00000
     75      -2.5700      2.00000
     76      -2.4297      2.00000
     77      -2.3793      2.00000
     78      -2.3074      2.00000
     79      -2.3065      2.00000
     80      -2.2612      2.00000
     81      -2.2604      2.00000
     82      -0.1459      0.00000
     83      -0.1446      0.00000
     84       0.2514      0.00000
     85       0.3361      0.00000
     86       0.3799      0.00000
     87       0.3826      0.00000
     88       0.3886      0.00000
     89       0.3910      0.00000
     90       0.6825      0.00000
     91       0.6841      0.00000
     92       0.6852      0.00000
     93       0.7744      0.00000
     94       0.7785      0.00000
     95       0.8112      0.00000
     96       0.8120      0.00000
     97       0.8921      0.00000
     98       0.9547      0.00000
     99       1.0011      0.00000
    100       1.0316      0.00000
    101       1.0329      0.00000
    102       1.0868      0.00000

 k-point   121 :      -0.0476    0.4762    0.0000
  band No.  band energies     occupation 
      1     -16.1481      2.00000
      2     -16.1447      2.00000
      3     -15.5426      2.00000
      4     -15.3658      2.00000
      5     -15.1442      2.00000
      6     -15.1437      2.00000
      7     -14.8156      2.00000
      8     -14.7207      2.00000
      9     -14.6075      2.00000
     10     -14.6040      2.00000
     11     -14.5452      2.00000
     12     -14.5416      2.00000
     13     -14.5363      2.00000
     14     -14.3230      2.00000
     15     -14.3212      2.00000
     16     -14.3062      2.00000
     17     -14.2933      2.00000
     18     -14.2919      2.00000
     19      -8.1406      2.00000
     20      -7.6425      2.00000
     21      -7.6412      2.00000
     22      -7.4914      2.00000
     23      -7.4889      2.00000
     24      -7.4867      2.00000
     25      -7.4858      2.00000
     26      -6.9496      2.00000
     27      -6.8392      2.00000
     28      -6.8365      2.00000
     29      -6.8094      2.00000
     30      -6.7370      2.00000
     31      -6.7341      2.00000
     32      -6.7294      2.00000
     33      -6.3052      2.00000
     34      -6.1714      2.00000
     35      -5.9650      2.00000
     36      -5.8681      2.00000
     37      -5.8641      2.00000
     38      -5.8639      2.00000
     39      -5.8629      2.00000
     40      -5.5892      2.00000
     41      -5.3575      2.00000
     42      -5.1344      2.00000
     43      -5.1317      2.00000
     44      -5.1297      2.00000
     45      -5.1276      2.00000
     46      -5.0678      2.00000
     47      -5.0673      2.00000
     48      -5.0284      2.00000
     49      -4.8517      2.00000
     50      -4.7532      2.00000
     51      -4.7524      2.00000
     52      -4.7226      2.00000
     53      -4.5105      2.00000
     54      -4.5087      2.00000
     55      -4.3620      2.00000
     56      -4.3600      2.00000
     57      -3.9880      2.00000
     58      -3.8553      2.00000
     59      -3.8539      2.00000
     60      -3.8353      2.00000
     61      -3.7711      2.00000
     62      -3.7695      2.00000
     63      -3.6734      2.00000
     64      -3.6633      2.00000
     65      -3.6581      2.00000
     66      -3.5424      2.00000
     67      -3.5387      2.00000
     68      -3.1536      2.00000
     69      -3.0858      2.00000
     70      -3.0815      2.00000
     71      -3.0647      2.00000
     72      -2.8486      2.00000
     73      -2.5829      2.00000
     74      -2.5720      2.00000
     75      -2.5508      2.00000
     76      -2.4056      2.00000
     77      -2.4029      2.00000
     78      -2.3041      2.00000
     79      -2.3024      2.00000
     80      -2.2680      2.00000
     81      -2.2662      2.00000
     82      -0.1540      0.00000
     83      -0.1270      0.00000
     84       0.2879      0.00000
     85       0.2898      0.00000
     86       0.3432      0.00000
     87       0.3441      0.00000
     88       0.4286      0.00000
     89       0.4292      0.00000
     90       0.6599      0.00000
     91       0.6835      0.00000
     92       0.7162      0.00000
     93       0.7675      0.00000
     94       0.7696      0.00000
     95       0.7709      0.00000
     96       0.8495      0.00000
     97       0.9162      0.00000
     98       0.9191      0.00000
     99       1.0076      0.00000
    100       1.0396      0.00000
    101       1.0671      0.00000
    102       1.0793      0.00000


--------------------------------------------------------------------------------------------------------


 soft charge-density along one line, spin component           1
         0         1         2         3         4         5         6         7         8         9
 total charge-density along one line
 
 pseudopotential strength for first ion, spin component:           1
 -8.649   0.000  -0.000  -0.000  -0.000  -0.032   0.000  -0.000
  0.000  -8.647  -0.000   0.000   0.000   0.000  -0.032  -0.000
 -0.000  -0.000  -8.633   0.000   0.000  -0.000  -0.000  -0.031
 -0.000   0.000   0.000  -8.647   0.000  -0.000   0.000   0.000
 -0.000   0.000   0.000   0.000  -8.649  -0.000   0.000   0.000
 -0.032   0.000  -0.000  -0.000  -0.000   0.071   0.000  -0.000
  0.000  -0.032  -0.000   0.000   0.000   0.000   0.071  -0.000
 -0.000  -0.000  -0.031   0.000   0.000  -0.000  -0.000   0.071
 -0.000   0.000   0.000  -0.032   0.000  -0.000  -0.000   0.000
 -0.000   0.000   0.000   0.000  -0.032  -0.000   0.000   0.000
 -0.000   0.000  -0.002  -0.000   0.000   0.000   0.000  -0.000
  0.000  -0.000   0.000   0.000  -0.000  -0.000  -0.000   0.000
 -0.000  -0.000  -0.000   0.000   0.007  -0.000  -0.000  -0.000
  0.000   0.000  -0.000  -0.000  -0.000  -0.000   0.000  -0.000
  0.007   0.000   0.000  -0.000  -0.000  -0.000  -0.000   0.000
  0.000   0.000   0.000  -0.000  -0.003  -0.000  -0.000   0.000
 -0.000  -0.000   0.000   0.000   0.000   0.000  -0.000   0.000
 -0.004  -0.000  -0.000   0.000   0.000   0.000   0.000   0.000
 total augmentation occupancy for first ion, spin component:           1
  0.919   0.000  -0.001  -0.001  -0.001  -0.528  -0.001  -0.000   0.001   0.000  -0.001   0.000  -0.000   0.001   0.051  -0.000
  0.000   0.881  -0.001  -0.001  -0.000  -0.001  -0.728   0.000   0.001   0.000  -0.001   0.000  -0.000   0.000   0.000  -0.000
 -0.001  -0.001   0.964   0.001   0.001  -0.000  -0.000  -0.483   0.000  -0.000   0.088  -0.021   0.000  -0.000  -0.000  -0.000
 -0.001  -0.001   0.001   0.882   0.000   0.001   0.001  -0.000  -0.729  -0.001   0.001  -0.001   0.000  -0.001  -0.001   0.000
 -0.001  -0.000   0.001   0.000   0.919   0.000   0.000  -0.000  -0.001  -0.527   0.000   0.000   0.051  -0.000  -0.000   0.000
 -0.528  -0.001  -0.000   0.001   0.000   0.531   0.002   0.000  -0.002  -0.001   0.001  -0.001   0.001  -0.001  -0.109  -0.000
 -0.001  -0.728  -0.000   0.001   0.000   0.002   0.852  -0.000  -0.002  -0.000   0.001  -0.001   0.001  -0.000  -0.001   0.000
 -0.000   0.000  -0.483  -0.000  -0.000   0.000  -0.000   0.425   0.000  -0.000  -0.079   0.037   0.000   0.000  -0.000  -0.000
  0.001   0.001   0.000  -0.729  -0.001  -0.002  -0.002   0.000   0.854   0.002  -0.002   0.001  -0.001   0.001   0.001   0.000
  0.000   0.000  -0.000  -0.001  -0.527  -0.001  -0.000  -0.000   0.002   0.531  -0.001   0.000  -0.108   0.000   0.001   0.009
 -0.001  -0.001   0.088   0.001   0.000   0.001   0.001  -0.079  -0.002  -0.001   1.103  -0.280   0.000  -0.001  -0.001   0.000
  0.000   0.000  -0.021  -0.001   0.000  -0.001  -0.001   0.037   0.001   0.000  -0.280   0.117  -0.000   0.000   0.000   0.000
 -0.000  -0.000   0.000   0.000   0.051   0.001   0.001   0.000  -0.001  -0.108   0.000  -0.000   0.227  -0.000  -0.000  -0.018
  0.001   0.000  -0.000  -0.001  -0.000  -0.001  -0.000   0.000   0.001   0.000  -0.001   0.000  -0.000   0.276   0.000   0.000
  0.051   0.000  -0.000  -0.001  -0.000  -0.109  -0.001  -0.000   0.001   0.001  -0.001   0.000  -0.000   0.000   0.227   0.000
 -0.000  -0.000  -0.000   0.000   0.000  -0.000   0.000  -0.000   0.000   0.009   0.000   0.000  -0.018   0.000   0.000   0.002
  0.000   0.000  -0.000  -0.000  -0.000   0.000  -0.000   0.000  -0.000  -0.000   0.000  -0.000   0.000  -0.021  -0.000  -0.000
  0.000   0.000   0.000  -0.000  -0.000   0.009   0.000   0.000  -0.000  -0.000  -0.000  -0.000   0.000  -0.000  -0.018  -0.000


------------------------ aborting loop because EDIFF is reached ----------------------------------------


    CHARGE:  cpu time    7.8360: real time    7.8547
    FORLOC:  cpu time    0.0577: real time    0.0578
    FORNL :  cpu time   54.8936: real time   55.0258
    STRESS:  cpu time  116.2604: real time  116.5414
    FORCOR:  cpu time    0.2266: real time    0.2272
    FORHAR:  cpu time    0.0825: real time    0.0827
    MIXING:  cpu time    0.0115: real time    0.0116
    OFIELD:  cpu time    0.0000: real time    0.0000

  FORCE on cell =-STRESS in cart. coord.  units (eV):
  Direction    XX          YY          ZZ          XY          YZ          ZX
  --------------------------------------------------------------------------------------
  Alpha Z   206.49013   206.49013   206.49013
  Ewald   24337.97706 24338.77102-29247.34831     0.00000     0.00044    -0.00000
  Hartree 25257.01841 25257.30695-25023.99428     0.00019     0.00004    -0.00000
  E(xc)    -642.50778  -642.52825  -650.14580    -0.00001    -0.00002     0.00000
  Local  -51742.43257-51743.56861 52105.26416    -0.00044    -0.00044    -0.00000
  n-local   625.42093   625.40883   674.20287    -0.03117     0.00009    -0.00264
  augment   -25.07763   -25.06986   -31.56014     0.00002    -0.00001    -0.00000
  Kinetic  1991.51974  1991.95328  1967.37957     3.48833     0.00006     0.00144
  Fock        0.00000     0.00000     0.00000     0.00000     0.00000     0.00000
  -------------------------------------------------------------------------------------
  Total       8.40829     8.76347     0.28819     0.00000     0.00016     0.00000
  in kB       8.02815     8.36727     0.27516     0.00000     0.00015     0.00000
  external pressure =        5.56 kB  Pullay stress =        0.00 kB


 VOLUME and BASIS-vectors are now :
 -----------------------------------------------------------------------------
  energy-cutoff  :      800.00
  volume of cell :     1678.04
      direct lattice vectors                 reciprocal lattice vectors
     9.846000000  0.000000000  0.000000000     0.101564087 -0.058675529  0.000000000
     4.923000000  8.521440000  0.000000000     0.000000000  0.117351058  0.000000000
     0.000000000  0.000000000 20.000000000     0.000000000  0.000000000  0.050000000

  length of vectors
     9.846000000  9.841283894 20.000000000     0.117294848  0.117351058  0.050000000


 FORCES acting on ions
    electron-ion (+dipol)            ewald-force                    non-local-force                 convergence-correction
 -----------------------------------------------------------------------------------------------
   -.391E+00 0.175E+00 -.733E-01   0.405E+00 -.183E+00 0.848E-01   0.180E-01 -.109E-01 0.333E-01   -.155E-06 -.228E-06 -.113E-04
   -.108E-04 -.433E-01 0.613E-01   0.544E-03 0.430E-01 -.598E-01   -.677E-17 0.443E-03 -.392E-03   0.428E-07 -.160E-06 -.117E-04
   0.391E+00 0.175E+00 -.733E-01   -.406E+00 -.183E+00 0.848E-01   -.180E-01 -.109E-01 0.333E-01   0.112E-06 -.149E-06 -.113E-04
   -.571E-01 -.842E-01 0.639E-01   0.588E-01 0.858E-01 -.626E-01   -.415E-03 -.616E-03 0.117E-02   -.345E-06 -.109E-06 -.117E-04
   0.570E-01 -.843E-01 0.639E-01   -.586E-01 0.853E-01 -.626E-01   0.415E-03 -.616E-03 0.117E-02   0.435E-06 -.106E-06 -.117E-04
   0.529E-04 -.502E+00 -.734E-01   -.316E-03 0.520E+00 0.850E-01   0.706E-17 0.204E-01 0.333E-01   -.900E-07 0.631E-07 -.113E-04
   -.500E-04 0.141E-01 0.639E-01   -.227E-03 -.155E-01 -.627E-01   -.189E-17 0.797E-04 0.117E-02   0.472E-07 0.575E-06 -.117E-04
   -.627E-02 -.553E-01 0.614E-01   0.697E-02 0.560E-01 -.599E-01   -.715E-03 -.854E-03 -.400E-03   -.447E-07 0.244E-07 -.118E-04
   0.629E-02 -.554E-01 0.614E-01   -.677E-02 0.561E-01 -.599E-01   0.715E-03 -.854E-03 -.400E-03   -.248E-08 0.101E-06 -.118E-04
   0.830E-04 0.280E-01 0.497E+03   0.389E-03 -.270E-01 -.499E+03   -.541E-17 -.105E-02 0.253E+01   -.613E-07 -.546E-07 -.167E-04
   -.213E-02 0.278E-01 0.498E+03   -.114E-02 -.263E-01 -.501E+03   -.700E-04 -.125E-02 0.260E+01   0.424E-06 -.590E-06 -.183E-04
   -.161E-02 0.277E-01 0.498E+03   0.727E-03 -.267E-01 -.501E+03   0.700E-04 -.125E-02 0.260E+01   -.363E-06 -.536E-06 -.183E-04
   -.110E-03 0.262E-01 0.498E+03   0.972E-04 -.264E-01 -.501E+03   -.241E-03 -.899E-03 0.260E+01   -.438E-06 0.275E-06 -.184E-04
   -.189E-02 0.265E-01 0.498E+03   -.488E-03 -.255E-01 -.500E+03   -.793E-18 -.977E-03 0.260E+01   0.776E-07 0.671E-06 -.190E-04
   0.183E-03 0.263E-01 0.498E+03   0.439E-03 -.264E-01 -.501E+03   0.241E-03 -.899E-03 0.260E+01   0.361E-06 0.249E-06 -.184E-04
   0.128E-03 0.262E-01 0.498E+03   0.703E-03 -.246E-01 -.501E+03   -.166E-03 -.762E-03 0.260E+01   0.250E-06 -.149E-06 -.181E-04
   -.973E-04 0.263E-01 0.498E+03   -.826E-03 -.243E-01 -.501E+03   0.166E-03 -.762E-03 0.260E+01   -.234E-06 -.229E-06 -.181E-04
   -.392E-05 0.262E-01 0.498E+03   0.101E-03 -.252E-01 -.500E+03   0.345E-17 -.957E-03 0.260E+01   -.164E-07 0.286E-06 -.187E-04
   0.831E-04 0.276E-01 -.498E+03   0.387E-03 -.266E-01 0.501E+03   0.642E-17 -.981E-03 -.260E+01   -.612E-07 0.548E-07 -.461E-05
   -.590E-01 0.279E-01 -.498E+03   0.583E-01 -.263E-01 0.500E+03   0.263E-03 0.729E-04 -.260E+01   -.580E-07 -.612E-06 -.367E-05
   0.553E-01 0.278E-01 -.498E+03   -.587E-01 -.267E-01 0.500E+03   -.263E-03 0.729E-04 -.260E+01   0.119E-06 -.557E-06 -.370E-05
   -.285E-01 -.232E-01 -.498E+03   0.298E-01 0.251E-01 0.500E+03   0.108E-02 -.127E-02 -.260E+01   -.698E-06 -.144E-06 -.358E-05
   -.189E-02 0.265E-01 -.498E+03   -.488E-03 -.256E-01 0.500E+03   -.627E-17 -.975E-03 -.260E+01   0.776E-07 0.676E-06 -.303E-05
   0.286E-01 -.231E-01 -.498E+03   -.293E-01 0.250E-01 0.500E+03   -.108E-02 -.127E-02 -.260E+01   0.620E-06 -.170E-06 -.361E-05
   0.287E-01 0.755E-01 -.498E+03   -.290E-01 -.761E-01 0.500E+03   0.810E-03 -.171E-02 -.260E+01   0.441E-06 0.252E-06 -.397E-05
   -.287E-01 0.756E-01 -.498E+03   0.289E-01 -.757E-01 0.500E+03   -.810E-03 -.171E-02 -.260E+01   -.425E-06 0.172E-06 -.398E-05
   -.394E-05 0.261E-01 -.498E+03   0.101E-03 -.251E-01 0.500E+03   0.142E-17 -.959E-03 -.260E+01   -.164E-07 0.298E-06 -.335E-05
 -----------------------------------------------------------------------------------------------
   -.109E-01 0.213E-01 -.383E-01   0.511E-14 -.382E-13 -.171E-12   0.539E-16 -.213E-01 0.386E-01   -.299E-09 -.973E-07 -.302E-03
 
 
 POSITION                                       TOTAL-FORCE (eV/Angst)
 -----------------------------------------------------------------------------------
      3.28200      0.00057      0.00000         0.032909     -0.019048      0.044741
      6.56400      0.00057      0.00000         0.000000      0.000170      0.001090
      9.84600      0.00057      0.00000        -0.032909     -0.019048      0.044741
      4.92300      2.84105      0.00000         0.001206      0.000730      0.002418
      8.20500      2.84105      0.00000        -0.001206      0.000730      0.002418
     11.48700      2.84105      0.00000         0.000000      0.037988      0.044809
      6.56400      5.68153      0.00000         0.000000     -0.001399      0.002418
      9.84600      5.68153      0.00000        -0.000128     -0.000128      0.001084
     13.12800      5.68153      0.00000         0.000128     -0.000128      0.001084
      1.64100      0.94715     18.31918         0.000000     -0.000096     -0.141208
      4.92300      0.94715     18.30918        -0.001265      0.000020     -0.003234
      8.20500      0.94715     18.30918         0.001265      0.000020     -0.003234
      3.28200      3.78763     18.30918        -0.000559     -0.001103     -0.003245
      6.56400      3.78763     18.30918         0.000000      0.000009      0.000215
      9.84600      3.78763     18.30918         0.000559     -0.001103     -0.003245
      4.92300      6.62810     18.30918         0.000712      0.001116     -0.003232
      8.20500      6.62810     18.30918        -0.000712      0.001116     -0.003232
     11.48700      6.62810     18.30918         0.000000      0.000040      0.000294
      1.64100      0.94715      1.69082         0.000000     -0.000011      0.014466
      4.92300      0.94715      1.69082         0.001578      0.001439      0.000507
      8.20500      0.94715      1.69082        -0.001578      0.001439      0.000507
      3.28200      3.78763      1.69082         0.002094      0.000653      0.000510
      6.56400      3.78763      1.69082         0.000000      0.000009     -0.001048
      9.84600      3.78763      1.69082        -0.002094      0.000653      0.000510
      4.92300      6.62810      1.69082         0.000513     -0.002053      0.000498
      8.20500      6.62810      1.69082        -0.000513     -0.002053      0.000498
     11.48700      6.62810      1.69082         0.000000      0.000039     -0.001129
 -----------------------------------------------------------------------------------
    total drift:                               -0.010903      0.000050     -0.000000


--------------------------------------------------------------------------------------------------------



  FREE ENERGIE OF THE ION-ELECTRON SYSTEM (eV)
  ---------------------------------------------------
  free  energy   TOTEN  =      -194.69110573 eV

  energy  without entropy=     -194.69110573  energy(sigma->0) =     -194.69110573
 


--------------------------------------------------------------------------------------------------------


    POTLOK:  cpu time    0.3763: real time    0.3772


--------------------------------------------------------------------------------------------------------


     LOOP+:  cpu time 5892.9762: real time 5908.2034
    4ORBIT:  cpu time    0.0000: real time    0.0000

 total amount of memory used by VASP MPI-rank0  1117972. kBytes
=======================================================================

   base      :      30000. kBytes
   nonl-proj :     507396. kBytes
   fftplans  :      67907. kBytes
   grid      :      36685. kBytes
   one-center:         77. kBytes
   wavefun   :     475907. kBytes
 
  
  
 General timing and accounting informations for this job:
 ========================================================
  
                  Total CPU time used (sec):     5970.637
                            User time (sec):     5951.979
                          System time (sec):       18.658
                         Elapsed time (sec):     5986.632
  
                   Maximum memory used (kb):     1314900.
                   Average memory used (kb):           0.
  
                          Minor page faults:       811537
                          Major page faults:            0
                 Voluntary context switches:         9415
