...it's alive! Batch file starting...
 running on   36 total cores
 distrk:  each k-point on   36 cores,    1 groups
 distr:  one band on    6 cores,    6 groups
 using from now: INCAR     
 vasp.5.4.4.18Apr17-6-g9f103f2a35 (build May 31 2018 21:15:54) complex          
  
 POSCAR found type information on POSCAR  W  Se
 POSCAR found :  2 types and      27 ions
 scaLAPACK will be used

 ----------------------------------------------------------------------------- 
|                                                                             |
|  ADVICE TO THIS USER RUNNING 'VASP/VAMP'   (HEAR YOUR MASTER'S VOICE ...):  |
|                                                                             |
|      You have a (more or less) 'large supercell' and for larger cells       |
|      it might be more efficient to use real space projection operators      |
|      So try LREAL= Auto  in the INCAR   file.                               |
|      Mind: If you want to do a very accurate calculations keep the          |
|      reciprocal projection scheme          (i.e. LREAL=.FALSE.)             |
|                                                                             |
 ----------------------------------------------------------------------------- 

 WARNING: PSMAXN for non-local potential too small
 LDA part: xc-table for Pade appr. of Perdew
 POSCAR, INCAR and KPOINTS ok, starting setup
 FFT: planning ...
 WAVECAR not read
 entering main loop
       N       E                     dE             d eps       ncg     rms          rms(c)
DAV:   1     0.141501388255E+04    0.14150E+04   -0.68456E+04 24684   0.168E+03
DAV:   2     0.197004555798E+02   -0.13953E+04   -0.13487E+04 40800   0.255E+02
DAV:   3    -0.195027082211E+03   -0.21473E+03   -0.21308E+03 29232   0.105E+02
DAV:   4    -0.203862081645E+03   -0.88350E+01   -0.87842E+01 33036   0.242E+01
DAV:   5    -0.204162225248E+03   -0.30014E+00   -0.29964E+00 37896   0.380E+00    0.161E+01
DAV:   6    -0.196819285506E+03    0.73429E+01   -0.41344E+01 35892   0.148E+01    0.606E+00
DAV:   7    -0.195220536414E+03    0.15987E+01   -0.82300E+00 34380   0.780E+00    0.383E+00
DAV:   8    -0.194746670676E+03    0.47387E+00   -0.15647E+00 29496   0.328E+00    0.799E-01
DAV:   9    -0.194730577489E+03    0.16093E-01   -0.26187E-01 36048   0.129E+00    0.479E-01
DAV:  10    -0.194701959840E+03    0.28618E-01   -0.10799E-01 35556   0.787E-01    0.268E-01
DAV:  11    -0.194696237593E+03    0.57222E-02   -0.70784E-03 36240   0.284E-01    0.167E-01
DAV:  12    -0.194691854669E+03    0.43829E-02   -0.76769E-03 36420   0.210E-01    0.101E-01
DAV:  13    -0.194680792191E+03    0.11062E-01   -0.11764E-02 30456   0.208E-01    0.749E-02
DAV:  14    -0.194678659512E+03    0.21327E-02   -0.17912E-03 34428   0.102E-01    0.635E-02
DAV:  15    -0.194674290036E+03    0.43695E-02   -0.20544E-03 30432   0.995E-02    0.599E-02
DAV:  16    -0.194675377092E+03   -0.10871E-02   -0.44567E-04 30528   0.531E-02    0.498E-02
DAV:  17    -0.194681952427E+03   -0.65753E-02   -0.21851E-03 31488   0.795E-02    0.444E-02
DAV:  18    -0.194686165274E+03   -0.42128E-02   -0.68106E-04 31608   0.607E-02    0.319E-02
DAV:  19    -0.194689019227E+03   -0.28540E-02   -0.47201E-04 31848   0.453E-02    0.182E-02
DAV:  20    -0.194690163655E+03   -0.11444E-02   -0.12209E-04 33276   0.262E-02    0.781E-03
DAV:  21    -0.194690844941E+03   -0.68129E-03   -0.48579E-05 31224   0.136E-02    0.528E-03
DAV:  22    -0.194691020792E+03   -0.17585E-03   -0.90161E-06 31776   0.591E-03    0.257E-03
DAV:  23    -0.194691083436E+03   -0.62644E-04   -0.30513E-06 30684   0.351E-03    0.804E-04
DAV:  24    -0.194691095285E+03   -0.11850E-04   -0.40445E-07 32028   0.140E-03    0.566E-04
DAV:  25    -0.194691099824E+03   -0.45381E-05   -0.70485E-08 30768   0.677E-04    0.394E-04
DAV:  26    -0.194691104246E+03   -0.44224E-05   -0.14862E-07 30576   0.620E-04    0.186E-04
DAV:  27    -0.194691104956E+03   -0.71000E-06   -0.11064E-08 31776   0.269E-04    0.121E-04
DAV:  28    -0.194691105434E+03   -0.47805E-06   -0.24830E-09 25608   0.148E-04    0.521E-05
DAV:  29    -0.194691105670E+03   -0.23573E-06    0.96201E-10 25836   0.946E-05    0.164E-05
DAV:  30    -0.194691105703E+03   -0.33788E-07    0.61763E-09 22020   0.381E-05    0.134E-05
DAV:  31    -0.194691105724E+03   -0.20405E-07    0.62908E-09 20388   0.236E-05    0.910E-06
DAV:  32    -0.194691105730E+03   -0.62491E-08    0.64621E-09 21444   0.132E-05
   1 F= -.19469111E+03 E0= -.19469111E+03  d E =-.508106E-16
Bstch file complete.
