<?xml version="1.0" encoding="ISO-8859-1"?>
<modeling>
 <generator>
  <i name="program" type="string">vasp </i>
  <i name="version" type="string">5.4.4.18Apr17-6-g9f103f2a35  </i>
  <i name="subversion" type="string">(build May 31 2018 21:15:54) complex            parallel </i>
  <i name="platform" type="string">c7_intel_O1 </i>
  <i name="date" type="string">2020 08 13 </i>
  <i name="time" type="string">00:23:03 </i>
 </generator>
 <incar>
  <i type="string" name="SYSTEM"> W-1, se-2</i>
  <i type="int" name="ISTART">     0</i>
  <i type="string" name="PREC">accurate</i>
  <i type="string" name="ALGO"> N</i>
  <i type="logical" name="ADDGRID"> T  </i>
  <i name="AMIN">      0.01000000</i>
  <i type="int" name="ICHARG">     2</i>
  <i type="int" name="NELMIN">     5</i>
  <i type="int" name="IBRION">    -1</i>
  <i name="EDIFF">      0.00000001</i>
  <i name="EDIFFG">     -0.00000001</i>
  <i type="int" name="NSW">     0</i>
  <i name="SYMPREC">      0.00010000</i>
  <i name="ENCUT">    800.00000000</i>
  <i type="logical" name="LREAL"> F  </i>
  <i type="int" name="ISMEAR">     0</i>
  <i name="SIGMA">      0.01000000</i>
  <i type="logical" name="LWAVE"> F  </i>
  <i type="logical" name="LCHARG"> F  </i>
  <v type="int" name="KPOINT_BSE">    -1     0     0     0</v>
 </incar>
 <structure name="primitive_cell" >
  <crystal>
   <varray name="basis" >
    <v>       9.84600000       0.00000000       0.00000000 </v>
    <v>       4.92300000       8.52144000       0.00000000 </v>
    <v>       0.00000000       0.00000000      20.00000000 </v>
   </varray>
   <i name="volume">   1678.04196480 </i>
   <varray name="rec_basis" >
    <v>       0.10156409      -0.05867553       0.00000000 </v>
    <v>       0.00000000       0.11735106       0.00000000 </v>
    <v>       0.00000000       0.00000000       0.05000000 </v>
   </varray>
  </crystal>
  <varray name="positions" >
   <v>       0.33330000       0.00006700       0.00000000 </v>
   <v>       0.11109200       0.11114900      -0.08404100 </v>
   <v>       0.44442600      -0.22218500      -0.08454100 </v>
   <v>       0.44442600      -0.22218500       0.08454100 </v>
   <v>       0.44442600       0.11114900      -0.08454100 </v>
   <v>       0.44442600       0.11114900       0.08454100 </v>
   <v>       0.11109200       0.11114900       0.08454100 </v>
   <v>       0.33330000       0.33340000       0.00000000 </v>
   <v>      -0.00003300       0.33340000       0.00000000 </v>
   <v>      -0.33336700      -0.33326700       0.00000000 </v>
   <v>       0.33330000      -0.33326700       0.00000000 </v>
   <v>      -0.33336700       0.00006700       0.00000000 </v>
   <v>      -0.00003300       0.00006700       0.00000000 </v>
   <v>       0.11109200       0.44448200      -0.08454100 </v>
   <v>       0.11109200       0.44448200       0.08454100 </v>
   <v>      -0.22224100      -0.22218500      -0.08454100 </v>
   <v>      -0.22224100      -0.22218500       0.08454100 </v>
   <v>       0.11109200      -0.22218500      -0.08454100 </v>
   <v>       0.11109200      -0.22218500       0.08454100 </v>
   <v>       0.44442600       0.44448200      -0.08454100 </v>
   <v>      -0.22224100       0.44448200      -0.08454100 </v>
   <v>       0.44442600       0.44448200       0.08454100 </v>
   <v>      -0.22224100       0.44448200       0.08454100 </v>
   <v>      -0.22224100       0.11114900      -0.08454100 </v>
   <v>      -0.22224100       0.11114900       0.08454100 </v>
   <v>      -0.00003300      -0.33326700       0.00000000 </v>
   <v>      -0.33336700       0.33340000       0.00000000 </v>
  </varray>
 </structure>
 <varray name="primitive_index" >
  <v type="int" >        1 </v>
  <v type="int" >       10 </v>
  <v type="int" >       17 </v>
  <v type="int" >       26 </v>
  <v type="int" >       11 </v>
  <v type="int" >       20 </v>
  <v type="int" >       19 </v>
  <v type="int" >        4 </v>
  <v type="int" >        6 </v>
  <v type="int" >        8 </v>
  <v type="int" >        7 </v>
  <v type="int" >        2 </v>
  <v type="int" >        3 </v>
  <v type="int" >       13 </v>
  <v type="int" >       22 </v>
  <v type="int" >       18 </v>
  <v type="int" >       27 </v>
  <v type="int" >       16 </v>
  <v type="int" >       25 </v>
  <v type="int" >       14 </v>
  <v type="int" >       15 </v>
  <v type="int" >       23 </v>
  <v type="int" >       24 </v>
  <v type="int" >       12 </v>
  <v type="int" >       21 </v>
  <v type="int" >        9 </v>
  <v type="int" >        5 </v>
 </varray>
 <kpoints>
  <generation param="Gamma">
   <v type="int" name="divisions">      21       21        1 </v>
   <v name="usershift">      0.00000000       0.00000000       0.00000000 </v>
   <v name="genvec1">      0.04761905      -0.00000000       0.00000000 </v>
   <v name="genvec2">      0.00000000       0.04761905       0.00000000 </v>
   <v name="genvec3">      0.00000000       0.00000000       1.00000000 </v>
   <v name="shift">      0.00000000       0.00000000       0.00000000 </v>
  </generation>
  <varray name="kpointlist" >
   <v>       0.00000000       0.00000000       0.00000000 </v>
   <v>       0.04761905       0.00000000       0.00000000 </v>
   <v>       0.09523810       0.00000000       0.00000000 </v>
   <v>       0.14285714       0.00000000       0.00000000 </v>
   <v>       0.19047619       0.00000000       0.00000000 </v>
   <v>       0.23809524       0.00000000       0.00000000 </v>
   <v>       0.28571429       0.00000000       0.00000000 </v>
   <v>       0.33333333       0.00000000       0.00000000 </v>
   <v>       0.38095238       0.00000000       0.00000000 </v>
   <v>       0.42857143       0.00000000       0.00000000 </v>
   <v>       0.47619048       0.00000000       0.00000000 </v>
   <v>       0.00000000       0.04761905       0.00000000 </v>
   <v>       0.09523810       0.04761905       0.00000000 </v>
   <v>       0.14285714       0.04761905       0.00000000 </v>
   <v>       0.19047619       0.04761905       0.00000000 </v>
   <v>       0.23809524       0.04761905       0.00000000 </v>
   <v>       0.28571429       0.04761905       0.00000000 </v>
   <v>       0.33333333       0.04761905       0.00000000 </v>
   <v>       0.38095238       0.04761905       0.00000000 </v>
   <v>       0.42857143       0.04761905       0.00000000 </v>
   <v>       0.47619048       0.04761905       0.00000000 </v>
   <v>      -0.47619048       0.04761905       0.00000000 </v>
   <v>      -0.42857143       0.04761905       0.00000000 </v>
   <v>      -0.38095238       0.04761905       0.00000000 </v>
   <v>      -0.33333333       0.04761905       0.00000000 </v>
   <v>      -0.28571429       0.04761905       0.00000000 </v>
   <v>      -0.23809524       0.04761905       0.00000000 </v>
   <v>      -0.19047619       0.04761905       0.00000000 </v>
   <v>      -0.14285714       0.04761905       0.00000000 </v>
   <v>      -0.09523810       0.04761905       0.00000000 </v>
   <v>      -0.04761905       0.04761905       0.00000000 </v>
   <v>       0.00000000       0.09523810       0.00000000 </v>
   <v>       0.19047619       0.09523810       0.00000000 </v>
   <v>       0.23809524       0.09523810       0.00000000 </v>
   <v>       0.28571429       0.09523810       0.00000000 </v>
   <v>       0.33333333       0.09523810       0.00000000 </v>
   <v>       0.38095238       0.09523810       0.00000000 </v>
   <v>       0.42857143       0.09523810       0.00000000 </v>
   <v>       0.47619048       0.09523810       0.00000000 </v>
   <v>      -0.47619048       0.09523810       0.00000000 </v>
   <v>      -0.42857143       0.09523810       0.00000000 </v>
   <v>      -0.38095238       0.09523810       0.00000000 </v>
   <v>      -0.33333333       0.09523810       0.00000000 </v>
   <v>      -0.28571429       0.09523810       0.00000000 </v>
   <v>      -0.23809524       0.09523810       0.00000000 </v>
   <v>      -0.19047619       0.09523810       0.00000000 </v>
   <v>      -0.14285714       0.09523810       0.00000000 </v>
   <v>      -0.09523810       0.09523810       0.00000000 </v>
   <v>      -0.04761905       0.09523810       0.00000000 </v>
   <v>       0.00000000       0.14285714       0.00000000 </v>
   <v>       0.28571429       0.14285714       0.00000000 </v>
   <v>       0.33333333       0.14285714       0.00000000 </v>
   <v>       0.38095238       0.14285714       0.00000000 </v>
   <v>       0.42857143       0.14285714       0.00000000 </v>
   <v>       0.47619048       0.14285714       0.00000000 </v>
   <v>      -0.47619048       0.14285714       0.00000000 </v>
   <v>      -0.42857143       0.14285714       0.00000000 </v>
   <v>      -0.38095238       0.14285714       0.00000000 </v>
   <v>      -0.33333333       0.14285714       0.00000000 </v>
   <v>      -0.28571429       0.14285714       0.00000000 </v>
   <v>      -0.23809524       0.14285714       0.00000000 </v>
   <v>      -0.19047619       0.14285714       0.00000000 </v>
   <v>      -0.14285714       0.14285714       0.00000000 </v>
   <v>      -0.09523810       0.14285714       0.00000000 </v>
   <v>      -0.04761905       0.14285714       0.00000000 </v>
   <v>       0.00000000       0.19047619       0.00000000 </v>
   <v>       0.38095238       0.19047619       0.00000000 </v>
   <v>       0.42857143       0.19047619       0.00000000 </v>
   <v>       0.47619048       0.19047619       0.00000000 </v>
   <v>      -0.47619048       0.19047619       0.00000000 </v>
   <v>      -0.42857143       0.19047619       0.00000000 </v>
   <v>      -0.38095238       0.19047619       0.00000000 </v>
   <v>      -0.33333333       0.19047619       0.00000000 </v>
   <v>      -0.28571429       0.19047619       0.00000000 </v>
   <v>      -0.23809524       0.19047619       0.00000000 </v>
   <v>      -0.19047619       0.19047619       0.00000000 </v>
   <v>      -0.14285714       0.19047619       0.00000000 </v>
   <v>      -0.09523810       0.19047619       0.00000000 </v>
   <v>      -0.04761905       0.19047619       0.00000000 </v>
   <v>       0.00000000       0.23809524       0.00000000 </v>
   <v>       0.47619048       0.23809524       0.00000000 </v>
   <v>      -0.47619048       0.23809524       0.00000000 </v>
   <v>      -0.42857143       0.23809524       0.00000000 </v>
   <v>      -0.38095238       0.23809524       0.00000000 </v>
   <v>      -0.33333333       0.23809524       0.00000000 </v>
   <v>      -0.28571429       0.23809524       0.00000000 </v>
   <v>      -0.23809524       0.23809524       0.00000000 </v>
   <v>      -0.19047619       0.23809524       0.00000000 </v>
   <v>      -0.14285714       0.23809524       0.00000000 </v>
   <v>      -0.09523810       0.23809524       0.00000000 </v>
   <v>      -0.04761905       0.23809524       0.00000000 </v>
   <v>       0.00000000       0.28571429       0.00000000 </v>
   <v>      -0.42857143       0.28571429       0.00000000 </v>
   <v>      -0.38095238       0.28571429       0.00000000 </v>
   <v>      -0.33333333       0.28571429       0.00000000 </v>
   <v>      -0.28571429       0.28571429       0.00000000 </v>
   <v>      -0.23809524       0.28571429       0.00000000 </v>
   <v>      -0.19047619       0.28571429       0.00000000 </v>
   <v>      -0.14285714       0.28571429       0.00000000 </v>
   <v>      -0.09523810       0.28571429       0.00000000 </v>
   <v>      -0.04761905       0.28571429       0.00000000 </v>
   <v>       0.00000000       0.33333333       0.00000000 </v>
   <v>      -0.33333333       0.33333333       0.00000000 </v>
   <v>      -0.28571429       0.33333333       0.00000000 </v>
   <v>      -0.23809524       0.33333333       0.00000000 </v>
   <v>      -0.19047619       0.33333333       0.00000000 </v>
   <v>      -0.14285714       0.33333333       0.00000000 </v>
   <v>      -0.09523810       0.33333333       0.00000000 </v>
   <v>      -0.04761905       0.33333333       0.00000000 </v>
   <v>       0.00000000       0.38095238       0.00000000 </v>
   <v>      -0.23809524       0.38095238       0.00000000 </v>
   <v>      -0.19047619       0.38095238       0.00000000 </v>
   <v>      -0.14285714       0.38095238       0.00000000 </v>
   <v>      -0.09523810       0.38095238       0.00000000 </v>
   <v>      -0.04761905       0.38095238       0.00000000 </v>
   <v>       0.00000000       0.42857143       0.00000000 </v>
   <v>      -0.14285714       0.42857143       0.00000000 </v>
   <v>      -0.09523810       0.42857143       0.00000000 </v>
   <v>      -0.04761905       0.42857143       0.00000000 </v>
   <v>       0.00000000       0.47619048       0.00000000 </v>
   <v>      -0.04761905       0.47619048       0.00000000 </v>
  </varray>
  <varray name="weights" >
   <v>       0.00226757 </v>
   <v>       0.00907029 </v>
   <v>       0.00907029 </v>
   <v>       0.00907029 </v>
   <v>       0.00907029 </v>
   <v>       0.00907029 </v>
   <v>       0.00907029 </v>
   <v>       0.00907029 </v>
   <v>       0.00907029 </v>
   <v>       0.00907029 </v>
   <v>       0.00907029 </v>
   <v>       0.00453515 </v>
   <v>       0.00453515 </v>
   <v>       0.00907029 </v>
   <v>       0.00907029 </v>
   <v>       0.00907029 </v>
   <v>       0.00907029 </v>
   <v>       0.00907029 </v>
   <v>       0.00907029 </v>
   <v>       0.00907029 </v>
   <v>       0.00907029 </v>
   <v>       0.00907029 </v>
   <v>       0.00907029 </v>
   <v>       0.00907029 </v>
   <v>       0.00907029 </v>
   <v>       0.00907029 </v>
   <v>       0.00907029 </v>
   <v>       0.00907029 </v>
   <v>       0.00907029 </v>
   <v>       0.00907029 </v>
   <v>       0.00907029 </v>
   <v>       0.00453515 </v>
   <v>       0.00453515 </v>
   <v>       0.00907029 </v>
   <v>       0.00907029 </v>
   <v>       0.00907029 </v>
   <v>       0.00907029 </v>
   <v>       0.00907029 </v>
   <v>       0.00907029 </v>
   <v>       0.00907029 </v>
   <v>       0.00907029 </v>
   <v>       0.00907029 </v>
   <v>       0.00907029 </v>
   <v>       0.00907029 </v>
   <v>       0.00907029 </v>
   <v>       0.00907029 </v>
   <v>       0.00907029 </v>
   <v>       0.00907029 </v>
   <v>       0.00907029 </v>
   <v>       0.00453515 </v>
   <v>       0.00453515 </v>
   <v>       0.00907029 </v>
   <v>       0.00907029 </v>
   <v>       0.00907029 </v>
   <v>       0.00907029 </v>
   <v>       0.00907029 </v>
   <v>       0.00907029 </v>
   <v>       0.00907029 </v>
   <v>       0.00907029 </v>
   <v>       0.00907029 </v>
   <v>       0.00907029 </v>
   <v>       0.00907029 </v>
   <v>       0.00907029 </v>
   <v>       0.00907029 </v>
   <v>       0.00907029 </v>
   <v>       0.00453515 </v>
   <v>       0.00453515 </v>
   <v>       0.00907029 </v>
   <v>       0.00907029 </v>
   <v>       0.00907029 </v>
   <v>       0.00907029 </v>
   <v>       0.00907029 </v>
   <v>       0.00907029 </v>
   <v>       0.00907029 </v>
   <v>       0.00907029 </v>
   <v>       0.00907029 </v>
   <v>       0.00907029 </v>
   <v>       0.00907029 </v>
   <v>       0.00907029 </v>
   <v>       0.00453515 </v>
   <v>       0.00453515 </v>
   <v>       0.00907029 </v>
   <v>       0.00907029 </v>
   <v>       0.00907029 </v>
   <v>       0.00907029 </v>
   <v>       0.00907029 </v>
   <v>       0.00907029 </v>
   <v>       0.00907029 </v>
   <v>       0.00907029 </v>
   <v>       0.00907029 </v>
   <v>       0.00907029 </v>
   <v>       0.00453515 </v>
   <v>       0.00453515 </v>
   <v>       0.00907029 </v>
   <v>       0.00907029 </v>
   <v>       0.00907029 </v>
   <v>       0.00907029 </v>
   <v>       0.00907029 </v>
   <v>       0.00907029 </v>
   <v>       0.00907029 </v>
   <v>       0.00907029 </v>
   <v>       0.00453515 </v>
   <v>       0.00453515 </v>
   <v>       0.00907029 </v>
   <v>       0.00907029 </v>
   <v>       0.00907029 </v>
   <v>       0.00907029 </v>
   <v>       0.00907029 </v>
   <v>       0.00907029 </v>
   <v>       0.00453515 </v>
   <v>       0.00453515 </v>
   <v>       0.00907029 </v>
   <v>       0.00907029 </v>
   <v>       0.00907029 </v>
   <v>       0.00907029 </v>
   <v>       0.00453515 </v>
   <v>       0.00453515 </v>
   <v>       0.00907029 </v>
   <v>       0.00907029 </v>
   <v>       0.00453515 </v>
   <v>       0.00453515 </v>
  </varray>
 </kpoints>
 <parameters>
  <separator name="general" >
   <i type="string" name="SYSTEM">W-1, se-2</i>
   <i type="logical" name="LCOMPAT"> F  </i>
  </separator>
  <separator name="electronic" >
   <i type="string" name="PREC">accura</i>
   <i name="ENMAX">    800.00000000</i>
   <i name="ENAUG">    446.84200000</i>
   <i name="EDIFF">      0.00000001</i>
   <i type="int" name="IALGO">    38</i>
   <i type="int" name="IWAVPR">    10</i>
   <i type="int" name="NBANDS">   102</i>
   <i name="NELECT">    162.00000000</i>
   <i type="int" name="TURBO">     0</i>
   <i type="int" name="IRESTART">     0</i>
   <i type="int" name="NREBOOT">     0</i>
   <i type="int" name="NMIN">     0</i>
   <i name="EREF">      0.00000000</i>
   <separator name="electronic smearing" >
    <i type="int" name="ISMEAR">     0</i>
    <i name="SIGMA">      0.01000000</i>
    <i name="KSPACING">      0.50000000</i>
    <i type="logical" name="KGAMMA"> T  </i>
   </separator>
   <separator name="electronic projectors" >
    <i type="logical" name="LREAL"> F  </i>
    <v name="ROPT">      0.00000000      0.00000000</v>
    <i type="int" name="LMAXPAW">  -100</i>
    <i type="int" name="LMAXMIX">     2</i>
    <i type="logical" name="NLSPLINE"> F  </i>
   </separator>
   <separator name="electronic startup" >
    <i type="int" name="ISTART">     0</i>
    <i type="int" name="ICHARG">     2</i>
    <i type="int" name="INIWAV">     1</i>
   </separator>
   <separator name="electronic spin" >
    <i type="int" name="ISPIN">     1</i>
    <i type="logical" name="LNONCOLLINEAR"> F  </i>
    <v name="MAGMOM">      1.00000000      1.00000000      1.00000000      1.00000000      1.00000000      1.00000000      1.00000000      1.00000000      1.00000000      1.00000000      1.00000000      1.00000000      1.00000000      1.00000000      1.00000000      1.00000000      1.00000000      1.00000000      1.00000000      1.00000000
      1.00000000      1.00000000      1.00000000      1.00000000      1.00000000      1.00000000      1.00000000</v>
    <i name="NUPDOWN">     -1.00000000</i>
    <i type="logical" name="LSORBIT"> F  </i>
    <v name="SAXIS">      0.00000000      0.00000000      1.00000000</v>
    <i type="logical" name="LSPIRAL"> F  </i>
    <v name="QSPIRAL">      0.00000000      0.00000000      0.00000000</v>
    <i type="logical" name="LZEROZ"> F  </i>
   </separator>
   <separator name="electronic exchange-correlation" >
    <i type="logical" name="LASPH"> F  </i>
    <i type="logical" name="LMETAGGA"> F  </i>
   </separator>
   <separator name="electronic convergence" >
    <i type="int" name="NELM">    60</i>
    <i type="int" name="NELMDL">    -5</i>
    <i type="int" name="NELMIN">     5</i>
    <i name="ENINI">    800.00000000</i>
    <separator name="electronic convergence detail" >
     <i type="logical" name="LDIAG"> T  </i>
     <i type="logical" name="LSUBROT"> F  </i>
     <i name="WEIMIN">      0.00000000</i>
     <i name="EBREAK">      0.00000000</i>
     <i name="DEPER">      0.30000000</i>
     <i type="int" name="NRMM">     4</i>
     <i name="TIME">      0.40000000</i>
    </separator>
   </separator>
   <separator name="electronic mixer" >
    <i name="AMIX">      0.40000000</i>
    <i name="BMIX">      1.00000000</i>
    <i name="AMIN">      0.01000000</i>
    <i name="AMIX_MAG">      1.60000000</i>
    <i name="BMIX_MAG">      1.00000000</i>
    <separator name="electronic mixer details" >
     <i type="int" name="IMIX">     4</i>
     <i type="logical" name="MIXFIRST"> F  </i>
     <i type="int" name="MAXMIX">   -45</i>
     <i name="WC">    100.00000000</i>
     <i type="int" name="INIMIX">     1</i>
     <i type="int" name="MIXPRE">     1</i>
     <i type="int" name="MREMOVE">     5</i>
    </separator>
   </separator>
   <separator name="electronic dipolcorrection" >
    <i type="logical" name="LDIPOL"> F  </i>
    <i type="logical" name="LMONO"> F  </i>
    <i type="int" name="IDIPOL">     0</i>
    <i name="EPSILON">      1.00000000</i>
    <v name="DIPOL">   -100.00000000   -100.00000000   -100.00000000</v>
    <i name="EFIELD">      0.00000000</i>
   </separator>
  </separator>
  <separator name="grids" >
   <i type="int" name="NGX">    96</i>
   <i type="int" name="NGY">    96</i>
   <i type="int" name="NGZ">   192</i>
   <i type="int" name="NGXF">   192</i>
   <i type="int" name="NGYF">   192</i>
   <i type="int" name="NGZF">   384</i>
   <i type="logical" name="ADDGRID"> T  </i>
  </separator>
  <separator name="ionic" >
   <i type="int" name="NSW">     0</i>
   <i type="int" name="IBRION">    -1</i>
   <i type="int" name="MDALGO">     0</i>
   <i type="int" name="ISIF">     2</i>
   <i name="PSTRESS">      0.00000000</i>
   <i name="EDIFFG">     -0.00000001</i>
   <i type="int" name="NFREE">     0</i>
   <i name="POTIM">      0.50000000</i>
   <i name="SMASS">     -3.00000000</i>
   <i name="SCALEE">      1.00000000</i>
  </separator>
  <separator name="ionic md" >
   <i name="TEBEG">      0.00010000</i>
   <i name="TEEND">      0.00010000</i>
   <i type="int" name="NBLOCK">     1</i>
   <i type="int" name="KBLOCK">     1</i>
   <i type="int" name="NPACO">   256</i>
   <i name="APACO">     16.00000000</i>
  </separator>
  <separator name="symmetry" >
   <i type="int" name="ISYM">     2</i>
   <i name="SYMPREC">      0.00010000</i>
  </separator>
  <separator name="dos" >
   <i type="int" name="LORBIT">     0</i>
   <v name="RWIGS">     -1.00000000     -1.00000000</v>
   <i type="int" name="NEDOS">   301</i>
   <i name="EMIN">     10.00000000</i>
   <i name="EMAX">    -10.00000000</i>
   <i name="EFERMI">      0.00000000</i>
  </separator>
  <separator name="writing" >
   <i type="int" name="NWRITE">     2</i>
   <i type="logical" name="LWAVE"> F  </i>
   <i type="logical" name="LDOWNSAMPLE"> F  </i>
   <i type="logical" name="LCHARG"> F  </i>
   <i type="logical" name="LPARD"> F  </i>
   <i type="logical" name="LVTOT"> F  </i>
   <i type="logical" name="LVHAR"> F  </i>
   <i type="logical" name="LELF"> F  </i>
   <i type="logical" name="LOPTICS"> F  </i>
   <v name="STM">      0.00000000      0.00000000      0.00000000      0.00000000      0.00000000      0.00000000      0.00000000</v>
  </separator>
  <separator name="performance" >
   <i type="int" name="NPAR">     6</i>
   <i type="int" name="NSIM">     4</i>
   <i type="int" name="NBLK">    -1</i>
   <i type="logical" name="LPLANE"> T  </i>
   <i type="logical" name="LSCALAPACK"> T  </i>
   <i type="logical" name="LSCAAWARE"> F  </i>
   <i type="logical" name="LSCALU"> F  </i>
   <i type="logical" name="LASYNC"> F  </i>
   <i type="logical" name="LORBITALREAL"> F  </i>
  </separator>
  <separator name="miscellaneous" >
   <i type="int" name="IDIOT">     3</i>
   <i type="int" name="ISPECIAL">     0</i>
   <i type="logical" name="LMUSIC"> F  </i>
   <v name="POMASS">    183.85000000     78.96000000</v>
   <v name="DARWINR">      0.00000000      0.00000000</v>
   <v name="DARWINV">      1.00000000      1.00000000</v>
   <i type="logical" name="LCORR"> T  </i>
  </separator>
  <i type="logical" name="GGA_COMPAT"> T  </i>
  <i type="logical" name="LBERRY"> F  </i>
  <i type="int" name="ICORELEVEL">     0</i>
  <i type="logical" name="LDAU"> F  </i>
  <i type="int" name="I_CONSTRAINED_M">     0</i>
  <separator name="electronic exchange-correlation" >
   <i type="string" name="GGA">--</i>
   <i type="int" name="VOSKOWN">     0</i>
   <i type="logical" name="LHFCALC"> F  </i>
   <i type="string" name="PRECFOCK"></i>
   <i type="logical" name="LSYMGRAD"> F  </i>
   <i type="logical" name="LHFONE"> F  </i>
   <i type="logical" name="LRHFCALC"> F  </i>
   <i type="logical" name="LTHOMAS"> F  </i>
   <i type="logical" name="LMODELHF"> F  </i>
   <i name="ENCUT4O">     -1.00000000</i>
   <i type="int" name="EXXOEP">     0</i>
   <i type="int" name="FOURORBIT">     0</i>
   <i name="AEXX">      0.00000000</i>
   <i name="HFALPHA">      0.00000000</i>
   <i name="MCALPHA">      0.00000000</i>
   <i name="ALDAX">      1.00000000</i>
   <i name="AGGAX">      1.00000000</i>
   <i name="ALDAC">      1.00000000</i>
   <i name="AGGAC">      1.00000000</i>
   <i type="int" name="NKREDX">     1</i>
   <i type="int" name="NKREDY">     1</i>
   <i type="int" name="NKREDZ">     1</i>
   <i type="logical" name="SHIFTRED"> F  </i>
   <i type="logical" name="ODDONLY"> F  </i>
   <i type="logical" name="EVENONLY"> F  </i>
   <i type="int" name="LMAXFOCK">     0</i>
   <i type="int" name="NMAXFOCKAE">     0</i>
   <i type="logical" name="LFOCKAEDFT"> F  </i>
   <i name="HFSCREEN">      0.00000000</i>
   <i name="HFSCREENC">      0.00000000</i>
   <i type="int" name="NBANDSGWLOW">     0</i>
  </separator>
  <separator name="vdW DFT" >
   <i type="logical" name="LUSE_VDW"> F  </i>
   <i name="Zab_VDW">     -0.84910000</i>
   <i name="PARAM1">      0.12340000</i>
   <i name="PARAM2">      1.00000000</i>
   <i name="PARAM3">      0.00000000</i>
  </separator>
  <separator name="model GW" >
   <i type="int" name="MODEL_GW">     0</i>
   <i name="MODEL_EPS0">     37.28982144</i>
   <i name="MODEL_ALPHA">      1.00000000</i>
  </separator>
  <separator name="linear response parameters" >
   <i type="logical" name="LEPSILON"> F  </i>
   <i type="logical" name="LRPA"> F  </i>
   <i type="logical" name="LNABLA"> F  </i>
   <i type="logical" name="LVEL"> F  </i>
   <i type="int" name="KINTER">     0</i>
   <i name="CSHIFT">      0.10000000</i>
   <i name="OMEGAMAX">     -1.00000000</i>
   <i name="DEG_THRESHOLD">      0.00200000</i>
   <i name="RTIME">     -0.10000000</i>
   <i name="WPLASMAI">      0.00000000</i>
   <v name="DFIELD">      0.00000000      0.00000000      0.00000000</v>
   <v name="WPLASMA">      0.00000000      0.00000000      0.00000000      0.00000000      0.00000000      0.00000000      0.00000000      0.00000000      0.00000000</v>
  </separator>
  <separator name="orbital magnetization" >
   <i type="logical" name="NUCIND"> F  </i>
   <v name="MAGPOS">      0.00000000      0.00000000      0.00000000</v>
   <i type="logical" name="LNICSALL"> T  </i>
   <i type="logical" name="ORBITALMAG"> F  </i>
   <i type="logical" name="LMAGBLOCH"> F  </i>
   <i type="logical" name="LCHIMAG"> F  </i>
   <i type="logical" name="LGAUGE"> T  </i>
   <i type="int" name="MAGATOM">     0</i>
   <v name="MAGDIPOL">      0.00000000      0.00000000      0.00000000</v>
   <v name="AVECCONST">      0.00000000      0.00000000      0.00000000</v>
  </separator>
  <separator name="response functions" >
   <i type="logical" name="LADDER"> F  </i>
   <i type="logical" name="LRPAFORCE"> F  </i>
   <i type="logical" name="LFXC"> F  </i>
   <i type="logical" name="LHARTREE"> T  </i>
   <i type="int" name="IBSE">     0</i>
   <v type="int" name="KPOINT">    -1     0     0     0</v>
   <i type="logical" name="LTCTE"> F  </i>
   <i type="logical" name="LTETE"> F  </i>
   <i type="logical" name="LTRIPLET"> F  </i>
   <i type="logical" name="LFXCEPS"> F  </i>
   <i type="logical" name="LFXHEG"> F  </i>
   <i type="int" name="NATURALO">     2</i>
   <i type="logical" name="L2ORDER"> F  </i>
   <i type="logical" name="LMP2LT"> F  </i>
   <i type="logical" name="LUSEW"> F  </i>
   <i name="ENCUTGW">     -2.00000000</i>
   <i name="ENCUTGWSOFT">     -2.00000000</i>
   <i name="ENCUTLF">     -1.00000000</i>
   <i type="int" name="LMAXMP2">    -1</i>
   <i name="SCISSOR">      0.00000000</i>
   <i type="int" name="NOMEGA">     0</i>
   <i type="int" name="NOMEGAR">     0</i>
   <i type="int" name="NBANDSGW">    -1</i>
   <i type="int" name="NBANDSO">    -1</i>
   <i type="int" name="NBANDSV">    -1</i>
   <i type="int" name="NELM">     1</i>
   <i type="int" name="NELMHF">     1</i>
   <i type="int" name="DIM">     3</i>
   <i type="int" name="ANTIRES">     0</i>
   <i name="OMEGAMAX">    -30.00000000</i>
   <i name="OMEGAMIN">    -30.00000000</i>
   <i name="OMEGATL">   -200.00000000</i>
   <i type="int" name="OMEGAGRID">   140</i>
   <i name="CSHIFT">     -0.10000000</i>
   <i type="logical" name="SELFENERGY"> F  </i>
   <i type="logical" name="LSPECTRAL"> F  </i>
   <i type="logical" name="LSPECTRALGW"> F  </i>
   <i type="logical" name="LSINGLES"> F  </i>
   <i type="logical" name="LFERMIGW"> F  </i>
   <i type="logical" name="ODDONLYGW"> F  </i>
   <i type="logical" name="EVENONLYGW"> F  </i>
   <i type="int" name="NKREDLFX">     1</i>
   <i type="int" name="NKREDLFY">     1</i>
   <i type="int" name="NKREDLFZ">     1</i>
   <i type="int" name="MAXMEM">  2800</i>
   <i type="int" name="TELESCOPE">     0</i>
   <i type="int" name="TAUPAR">     1</i>
   <i type="int" name="OMEGAPAR">    -1</i>
   <i name="LAMBDA">      1.00000000</i>
  </separator>
  <separator name="External order field" >
   <i name="OFIELD_KAPPA">      0.00000000</i>
   <v name="OFIELD_K">      0.00000000      0.00000000      0.00000000</v>
   <i name="OFIELD_Q6_NEAR">      0.00000000</i>
   <i name="OFIELD_Q6_FAR">      0.00000000</i>
   <i name="OFIELD_A">      0.00000000</i>
  </separator>
 </parameters>
 <atominfo>
  <atoms>      27 </atoms>
  <types>       2 </types>
  <array name="atoms" >
   <dimension dim="1">ion</dimension>
   <field type="string">element</field>
   <field type="int">atomtype</field>
   <set>
    <rc><c>W </c><c>   1</c></rc>
    <rc><c>W </c><c>   1</c></rc>
    <rc><c>W </c><c>   1</c></rc>
    <rc><c>W </c><c>   1</c></rc>
    <rc><c>W </c><c>   1</c></rc>
    <rc><c>W </c><c>   1</c></rc>
    <rc><c>W </c><c>   1</c></rc>
    <rc><c>W </c><c>   1</c></rc>
    <rc><c>W </c><c>   1</c></rc>
    <rc><c>Se</c><c>   2</c></rc>
    <rc><c>Se</c><c>   2</c></rc>
    <rc><c>Se</c><c>   2</c></rc>
    <rc><c>Se</c><c>   2</c></rc>
    <rc><c>Se</c><c>   2</c></rc>
    <rc><c>Se</c><c>   2</c></rc>
    <rc><c>Se</c><c>   2</c></rc>
    <rc><c>Se</c><c>   2</c></rc>
    <rc><c>Se</c><c>   2</c></rc>
    <rc><c>Se</c><c>   2</c></rc>
    <rc><c>Se</c><c>   2</c></rc>
    <rc><c>Se</c><c>   2</c></rc>
    <rc><c>Se</c><c>   2</c></rc>
    <rc><c>Se</c><c>   2</c></rc>
    <rc><c>Se</c><c>   2</c></rc>
    <rc><c>Se</c><c>   2</c></rc>
    <rc><c>Se</c><c>   2</c></rc>
    <rc><c>Se</c><c>   2</c></rc>
   </set>
  </array>
  <array name="atomtypes" >
   <dimension dim="1">type</dimension>
   <field type="int">atomspertype</field>
   <field type="string">element</field>
   <field>mass</field>
   <field>valence</field>
   <field type="string">pseudopotential</field>
   <set>
    <rc><c>   9</c><c>W </c><c>    183.85000000</c><c>      6.00000000</c><c> PAW_PBE W 08Apr2002                    </c></rc>
    <rc><c>  18</c><c>Se</c><c>     78.96000000</c><c>      6.00000000</c><c> PAW_PBE Se 06Sep2000                   </c></rc>
   </set>
  </array>
 </atominfo>
 <structure name="initialpos" >
  <crystal>
   <varray name="basis" >
    <v>       9.84600000       0.00000000       0.00000000 </v>
    <v>       4.92300000       8.52144000       0.00000000 </v>
    <v>       0.00000000       0.00000000      20.00000000 </v>
   </varray>
   <i name="volume">   1678.04196480 </i>
   <varray name="rec_basis" >
    <v>       0.10156409      -0.05867553       0.00000000 </v>
    <v>       0.00000000       0.11735106       0.00000000 </v>
    <v>       0.00000000       0.00000000       0.05000000 </v>
   </varray>
  </crystal>
  <varray name="positions" >
   <v>       0.33330000       0.00006700       0.00000000 </v>
   <v>       0.66663300       0.00006700       0.00000000 </v>
   <v>       0.99996700       0.00006700       0.00000000 </v>
   <v>       0.33330000       0.33340000       0.00000000 </v>
   <v>       0.66663300       0.33340000       0.00000000 </v>
   <v>       0.99996700       0.33340000       0.00000000 </v>
   <v>       0.33330000       0.66673300       0.00000000 </v>
   <v>       0.66663300       0.66673300       0.00000000 </v>
   <v>       0.99996700       0.66673300       0.00000000 </v>
   <v>       0.11109200       0.11114900       0.91595900 </v>
   <v>       0.44442600       0.11114900       0.91545900 </v>
   <v>       0.77775900       0.11114900       0.91545900 </v>
   <v>       0.11109200       0.44448200       0.91545900 </v>
   <v>       0.44442600       0.44448200       0.91545900 </v>
   <v>       0.77775900       0.44448200       0.91545900 </v>
   <v>       0.11109200       0.77781500       0.91545900 </v>
   <v>       0.44442600       0.77781500       0.91545900 </v>
   <v>       0.77775900       0.77781500       0.91545900 </v>
   <v>       0.11109200       0.11114900       0.08454100 </v>
   <v>       0.44442600       0.11114900       0.08454100 </v>
   <v>       0.77775900       0.11114900       0.08454100 </v>
   <v>       0.11109200       0.44448200       0.08454100 </v>
   <v>       0.44442600       0.44448200       0.08454100 </v>
   <v>       0.77775900       0.44448200       0.08454100 </v>
   <v>       0.11109200       0.77781500       0.08454100 </v>
   <v>       0.44442600       0.77781500       0.08454100 </v>
   <v>       0.77775900       0.77781500       0.08454100 </v>
  </varray>
 </structure>
 <calculation>
  <scstep>
   <time name="dav">  144.25  144.60</time>
   <time name="total">  144.67  145.05</time>
   <energy>
    <i name="alphaZ">    206.49012646 </i>
    <i name="ewald">  19429.41661732 </i>
    <i name="hartreedc"> -25379.43148136 </i>
    <i name="XCdc">   -439.15061696 </i>
    <i name="pawpsdc">   3546.74135395 </i>
    <i name="pawaedc">  -2766.52518036 </i>
    <i name="eentropy">     -0.00053094 </i>
    <i name="bandstr">    350.63077552 </i>
    <i name="atom">   6466.84281893 </i>
    <i name="e_fr_energy">   1415.01388255 </i>
    <i name="e_wo_entrp">   1415.01441349 </i>
    <i name="e_0_energy">   1415.01414802 </i>
   </energy>
  </scstep>
  <scstep>
   <time name="dav">  211.51  212.06</time>
   <time name="total">  211.52  212.06</time>
   <energy>
    <i name="e_fr_energy">     19.70045558 </i>
    <i name="e_wo_entrp">     19.70045558 </i>
    <i name="e_0_energy">     19.70045558 </i>
   </energy>
  </scstep>
  <scstep>
   <time name="dav">  163.44  163.86</time>
   <time name="total">  163.44  163.86</time>
   <energy>
    <i name="e_fr_energy">   -195.02708221 </i>
    <i name="e_wo_entrp">   -195.02708221 </i>
    <i name="e_0_energy">   -195.02708221 </i>
   </energy>
  </scstep>
  <scstep>
   <time name="dav">  179.33  179.79</time>
   <time name="total">  179.34  179.80</time>
   <energy>
    <i name="e_fr_energy">   -203.86208165 </i>
    <i name="e_wo_entrp">   -203.86208165 </i>
    <i name="e_0_energy">   -203.86208165 </i>
   </energy>
  </scstep>
  <scstep>
   <time name="dav">  199.53  200.04</time>
   <time name="total">  207.35  207.88</time>
   <energy>
    <i name="e_fr_energy">   -204.16222525 </i>
    <i name="e_wo_entrp">   -204.16222525 </i>
    <i name="e_0_energy">   -204.16222525 </i>
   </energy>
  </scstep>
  <scstep>
   <time name="dav">  190.56  191.02</time>
   <time name="total">  198.94  199.45</time>
   <energy>
    <i name="e_fr_energy">   -196.81928551 </i>
    <i name="e_wo_entrp">   -196.81928551 </i>
    <i name="e_0_energy">   -196.81928551 </i>
   </energy>
  </scstep>
  <scstep>
   <time name="dav">  184.41  184.86</time>
   <time name="total">  192.81  193.30</time>
   <energy>
    <i name="e_fr_energy">   -195.22053641 </i>
    <i name="e_wo_entrp">   -195.22053641 </i>
    <i name="e_0_energy">   -195.22053641 </i>
   </energy>
  </scstep>
  <scstep>
   <time name="dav">  164.19  164.59</time>
   <time name="total">  172.60  173.04</time>
   <energy>
    <i name="e_fr_energy">   -194.74667068 </i>
    <i name="e_wo_entrp">   -194.74667068 </i>
    <i name="e_0_energy">   -194.74667068 </i>
   </energy>
  </scstep>
  <scstep>
   <time name="dav">  191.34  191.81</time>
   <time name="total">  199.71  200.22</time>
   <energy>
    <i name="e_fr_energy">   -194.73057749 </i>
    <i name="e_wo_entrp">   -194.73057749 </i>
    <i name="e_0_energy">   -194.73057749 </i>
   </energy>
  </scstep>
  <scstep>
   <time name="dav">  189.54  190.00</time>
   <time name="total">  197.90  198.41</time>
   <energy>
    <i name="e_fr_energy">   -194.70195984 </i>
    <i name="e_wo_entrp">   -194.70195984 </i>
    <i name="e_0_energy">   -194.70195984 </i>
   </energy>
  </scstep>
  <scstep>
   <time name="dav">  192.74  193.22</time>
   <time name="total">  200.83  201.34</time>
   <energy>
    <i name="e_fr_energy">   -194.69623759 </i>
    <i name="e_wo_entrp">   -194.69623759 </i>
    <i name="e_0_energy">   -194.69623759 </i>
   </energy>
  </scstep>
  <scstep>
   <time name="dav">  193.49  193.97</time>
   <time name="total">  201.58  202.10</time>
   <energy>
    <i name="e_fr_energy">   -194.69185467 </i>
    <i name="e_wo_entrp">   -194.69185467 </i>
    <i name="e_0_energy">   -194.69185467 </i>
   </energy>
  </scstep>
  <scstep>
   <time name="dav">  168.74  169.15</time>
   <time name="total">  176.82  177.28</time>
   <energy>
    <i name="e_fr_energy">   -194.68079219 </i>
    <i name="e_wo_entrp">   -194.68079219 </i>
    <i name="e_0_energy">   -194.68079219 </i>
   </energy>
  </scstep>
  <scstep>
   <time name="dav">  185.18  185.63</time>
   <time name="total">  193.25  193.75</time>
   <energy>
    <i name="e_fr_energy">   -194.67865951 </i>
    <i name="e_wo_entrp">   -194.67865951 </i>
    <i name="e_0_energy">   -194.67865951 </i>
   </energy>
  </scstep>
  <scstep>
   <time name="dav">  168.54  168.96</time>
   <time name="total">  176.66  177.11</time>
   <energy>
    <i name="e_fr_energy">   -194.67429004 </i>
    <i name="e_wo_entrp">   -194.67429004 </i>
    <i name="e_0_energy">   -194.67429004 </i>
   </energy>
  </scstep>
  <scstep>
   <time name="dav">  169.09  169.50</time>
   <time name="total">  177.16  177.62</time>
   <energy>
    <i name="e_fr_energy">   -194.67537709 </i>
    <i name="e_wo_entrp">   -194.67537709 </i>
    <i name="e_0_energy">   -194.67537709 </i>
   </energy>
  </scstep>
  <scstep>
   <time name="dav">  173.11  173.53</time>
   <time name="total">  181.17  181.63</time>
   <energy>
    <i name="e_fr_energy">   -194.68195243 </i>
    <i name="e_wo_entrp">   -194.68195243 </i>
    <i name="e_0_energy">   -194.68195243 </i>
   </energy>
  </scstep>
  <scstep>
   <time name="dav">  173.12  173.55</time>
   <time name="total">  181.25  181.72</time>
   <energy>
    <i name="e_fr_energy">   -194.68616527 </i>
    <i name="e_wo_entrp">   -194.68616527 </i>
    <i name="e_0_energy">   -194.68616527 </i>
   </energy>
  </scstep>
  <scstep>
   <time name="dav">  174.56  175.00</time>
   <time name="total">  182.68  183.15</time>
   <energy>
    <i name="e_fr_energy">   -194.68901923 </i>
    <i name="e_wo_entrp">   -194.68901923 </i>
    <i name="e_0_energy">   -194.68901923 </i>
   </energy>
  </scstep>
  <scstep>
   <time name="dav">  180.42  180.87</time>
   <time name="total">  188.47  188.96</time>
   <energy>
    <i name="e_fr_energy">   -194.69016365 </i>
    <i name="e_wo_entrp">   -194.69016365 </i>
    <i name="e_0_energy">   -194.69016365 </i>
   </energy>
  </scstep>
  <scstep>
   <time name="dav">  171.38  171.80</time>
   <time name="total">  178.96  179.42</time>
   <energy>
    <i name="e_fr_energy">   -194.69084494 </i>
    <i name="e_wo_entrp">   -194.69084494 </i>
    <i name="e_0_energy">   -194.69084494 </i>
   </energy>
  </scstep>
  <scstep>
   <time name="dav">  173.64  174.07</time>
   <time name="total">  182.05  182.51</time>
   <energy>
    <i name="e_fr_energy">   -194.69102079 </i>
    <i name="e_wo_entrp">   -194.69102079 </i>
    <i name="e_0_energy">   -194.69102079 </i>
   </energy>
  </scstep>
  <scstep>
   <time name="dav">  169.03  169.44</time>
   <time name="total">  177.43  177.89</time>
   <energy>
    <i name="e_fr_energy">   -194.69108344 </i>
    <i name="e_wo_entrp">   -194.69108344 </i>
    <i name="e_0_energy">   -194.69108344 </i>
   </energy>
  </scstep>
  <scstep>
   <time name="dav">  174.64  175.07</time>
   <time name="total">  183.06  183.53</time>
   <energy>
    <i name="e_fr_energy">   -194.69109529 </i>
    <i name="e_wo_entrp">   -194.69109529 </i>
    <i name="e_0_energy">   -194.69109529 </i>
   </energy>
  </scstep>
  <scstep>
   <time name="dav">  169.23  169.65</time>
   <time name="total">  177.56  178.02</time>
   <energy>
    <i name="e_fr_energy">   -194.69109982 </i>
    <i name="e_wo_entrp">   -194.69109982 </i>
    <i name="e_0_energy">   -194.69109982 </i>
   </energy>
  </scstep>
  <scstep>
   <time name="dav">  169.32  169.73</time>
   <time name="total">  177.49  177.94</time>
   <energy>
    <i name="e_fr_energy">   -194.69110425 </i>
    <i name="e_wo_entrp">   -194.69110425 </i>
    <i name="e_0_energy">   -194.69110425 </i>
   </energy>
  </scstep>
  <scstep>
   <time name="dav">  174.41  174.83</time>
   <time name="total">  182.70  183.16</time>
   <energy>
    <i name="e_fr_energy">   -194.69110496 </i>
    <i name="e_wo_entrp">   -194.69110496 </i>
    <i name="e_0_energy">   -194.69110496 </i>
   </energy>
  </scstep>
  <scstep>
   <time name="dav">  148.91  149.27</time>
   <time name="total">  157.15  157.55</time>
   <energy>
    <i name="e_fr_energy">   -194.69110543 </i>
    <i name="e_wo_entrp">   -194.69110543 </i>
    <i name="e_0_energy">   -194.69110543 </i>
   </energy>
  </scstep>
  <scstep>
   <time name="dav">  149.79  150.16</time>
   <time name="total">  158.05  158.45</time>
   <energy>
    <i name="e_fr_energy">   -194.69110567 </i>
    <i name="e_wo_entrp">   -194.69110567 </i>
    <i name="e_0_energy">   -194.69110567 </i>
   </energy>
  </scstep>
  <scstep>
   <time name="dav">  133.93  134.25</time>
   <time name="total">  142.18  142.55</time>
   <energy>
    <i name="e_fr_energy">   -194.69110570 </i>
    <i name="e_wo_entrp">   -194.69110570 </i>
    <i name="e_0_energy">   -194.69110570 </i>
   </energy>
  </scstep>
  <scstep>
   <time name="dav">  127.62  127.93</time>
   <time name="total">  135.84  136.20</time>
   <energy>
    <i name="e_fr_energy">   -194.69110572 </i>
    <i name="e_wo_entrp">   -194.69110572 </i>
    <i name="e_0_energy">   -194.69110572 </i>
   </energy>
  </scstep>
  <scstep>
   <time name="dav">  132.01  132.33</time>
   <time name="total">  132.39  132.73</time>
   <energy>
    <i name="alphaZ">    206.49012646 </i>
    <i name="ewald">  19429.41661732 </i>
    <i name="hartreedc"> -25490.33083399 </i>
    <i name="XCdc">   -429.50970044 </i>
    <i name="pawpsdc">   4195.75189109 </i>
    <i name="pawaedc">  -3429.73872465 </i>
    <i name="eentropy">     -0.00000000 </i>
    <i name="bandstr">  -1143.61330044 </i>
    <i name="atom">   6466.84281893 </i>
    <i name="e_fr_energy">   -194.69110573 </i>
    <i name="e_wo_entrp">   -194.69110573 </i>
    <i name="e_0_energy">   -194.69110573 </i>
   </energy>
  </scstep>
  <structure>
   <crystal>
    <varray name="basis" >
     <v>       9.84600000       0.00000000       0.00000000 </v>
     <v>       4.92300000       8.52144000       0.00000000 </v>
     <v>       0.00000000       0.00000000      20.00000000 </v>
    </varray>
    <i name="volume">   1678.04196480 </i>
    <varray name="rec_basis" >
     <v>       0.10156409      -0.05867553       0.00000000 </v>
     <v>       0.00000000       0.11735106       0.00000000 </v>
     <v>       0.00000000       0.00000000       0.05000000 </v>
    </varray>
   </crystal>
   <varray name="positions" >
    <v>       0.33330000       0.00006700       0.00000000 </v>
    <v>       0.66663300       0.00006700       0.00000000 </v>
    <v>       0.99996700       0.00006700       0.00000000 </v>
    <v>       0.33330000       0.33340000       0.00000000 </v>
    <v>       0.66663300       0.33340000       0.00000000 </v>
    <v>       0.99996700       0.33340000       0.00000000 </v>
    <v>       0.33330000       0.66673300       0.00000000 </v>
    <v>       0.66663300       0.66673300       0.00000000 </v>
    <v>       0.99996700       0.66673300       0.00000000 </v>
    <v>       0.11109200       0.11114900       0.91595900 </v>
    <v>       0.44442600       0.11114900       0.91545900 </v>
    <v>       0.77775900       0.11114900       0.91545900 </v>
    <v>       0.11109200       0.44448200       0.91545900 </v>
    <v>       0.44442600       0.44448200       0.91545900 </v>
    <v>       0.77775900       0.44448200       0.91545900 </v>
    <v>       0.11109200       0.77781500       0.91545900 </v>
    <v>       0.44442600       0.77781500       0.91545900 </v>
    <v>       0.77775900       0.77781500       0.91545900 </v>
    <v>       0.11109200       0.11114900       0.08454100 </v>
    <v>       0.44442600       0.11114900       0.08454100 </v>
    <v>       0.77775900       0.11114900       0.08454100 </v>
    <v>       0.11109200       0.44448200       0.08454100 </v>
    <v>       0.44442600       0.44448200       0.08454100 </v>
    <v>       0.77775900       0.44448200       0.08454100 </v>
    <v>       0.11109200       0.77781500       0.08454100 </v>
    <v>       0.44442600       0.77781500       0.08454100 </v>
    <v>       0.77775900       0.77781500       0.08454100 </v>
   </varray>
  </structure>
  <varray name="forces" >
   <v>       0.03290933      -0.01904777       0.04474051 </v>
   <v>       0.00000000       0.00017027       0.00109048 </v>
   <v>      -0.03290933      -0.01904777       0.04474051 </v>
   <v>       0.00120577       0.00072970       0.00241763 </v>
   <v>      -0.00120577       0.00072970       0.00241763 </v>
   <v>       0.00000000       0.03798785       0.04480936 </v>
   <v>       0.00000000      -0.00139878       0.00241753 </v>
   <v>      -0.00012837      -0.00012754       0.00108395 </v>
   <v>       0.00012837      -0.00012754       0.00108395 </v>
   <v>       0.00000000      -0.00009610      -0.14120820 </v>
   <v>      -0.00126467       0.00002045      -0.00323415 </v>
   <v>       0.00126467       0.00002045      -0.00323415 </v>
   <v>      -0.00055926      -0.00110331      -0.00324466 </v>
   <v>       0.00000000       0.00000882       0.00021522 </v>
   <v>       0.00055926      -0.00110331      -0.00324466 </v>
   <v>       0.00071158       0.00111581      -0.00323187 </v>
   <v>      -0.00071158       0.00111581      -0.00323187 </v>
   <v>       0.00000000       0.00003958       0.00029387 </v>
   <v>       0.00000000      -0.00001118       0.01446640 </v>
   <v>       0.00157776       0.00143892       0.00050717 </v>
   <v>      -0.00157776       0.00143892       0.00050717 </v>
   <v>       0.00209354       0.00065266       0.00051030 </v>
   <v>       0.00000000       0.00000861      -0.00104834 </v>
   <v>      -0.00209354       0.00065266       0.00051030 </v>
   <v>       0.00051329      -0.00205281       0.00049753 </v>
   <v>      -0.00051329      -0.00205281       0.00049753 </v>
   <v>       0.00000000       0.00003872      -0.00112913 </v>
  </varray>
  <varray name="stress" >
   <v>       8.02814819       0.00000000       0.00000000 </v>
   <v>       0.00000000       8.36727442       0.00015330 </v>
   <v>       0.00000000       0.00015330       0.27516123 </v>
  </varray>
  <energy>
   <i name="e_fr_energy">   -194.69110573 </i>
   <i name="e_wo_entrp">   -194.69110573 </i>
   <i name="e_0_energy">     -0.00000000 </i>
  </energy>
  <time name="totalsc"> 5892.98 5908.20</time>
  <eigenvalues>
   <array>
    <dimension dim="1">band</dimension>
    <dimension dim="2">kpoint</dimension>
    <dimension dim="3">spin</dimension>
    <field>eigene</field>
    <field>occ</field>
    <set>
     <set comment="spin 1">
      <set comment="kpoint 1">
       <r>  -16.5498    1.0000 </r>
       <r>  -15.3667    1.0000 </r>
       <r>  -15.1861    1.0000 </r>
       <r>  -15.1768    1.0000 </r>
       <r>  -15.1768    1.0000 </r>
       <r>  -15.1767    1.0000 </r>
       <r>  -15.1755    1.0000 </r>
       <r>  -15.1751    1.0000 </r>
       <r>  -14.6296    1.0000 </r>
       <r>  -14.6262    1.0000 </r>
       <r>  -14.6261    1.0000 </r>
       <r>  -14.6260    1.0000 </r>
       <r>  -14.6247    1.0000 </r>
       <r>  -14.6243    1.0000 </r>
       <r>  -14.2438    1.0000 </r>
       <r>  -14.2404    1.0000 </r>
       <r>  -14.1224    1.0000 </r>
       <r>  -14.1204    1.0000 </r>
       <r>   -8.0059    1.0000 </r>
       <r>   -7.2292    1.0000 </r>
       <r>   -7.2289    1.0000 </r>
       <r>   -7.2279    1.0000 </r>
       <r>   -7.2246    1.0000 </r>
       <r>   -7.2238    1.0000 </r>
       <r>   -7.2226    1.0000 </r>
       <r>   -7.1682    1.0000 </r>
       <r>   -7.1682    1.0000 </r>
       <r>   -7.0488    1.0000 </r>
       <r>   -7.0488    1.0000 </r>
       <r>   -6.2103    1.0000 </r>
       <r>   -6.2069    1.0000 </r>
       <r>   -6.2056    1.0000 </r>
       <r>   -6.2052    1.0000 </r>
       <r>   -6.2045    1.0000 </r>
       <r>   -6.2029    1.0000 </r>
       <r>   -6.1644    1.0000 </r>
       <r>   -6.1643    1.0000 </r>
       <r>   -6.1595    1.0000 </r>
       <r>   -6.1591    1.0000 </r>
       <r>   -6.1588    1.0000 </r>
       <r>   -6.1578    1.0000 </r>
       <r>   -6.1572    1.0000 </r>
       <r>   -6.1565    1.0000 </r>
       <r>   -5.5041    1.0000 </r>
       <r>   -5.5019    1.0000 </r>
       <r>   -5.1234    1.0000 </r>
       <r>   -5.1234    1.0000 </r>
       <r>   -4.3790    1.0000 </r>
       <r>   -4.3739    1.0000 </r>
       <r>   -4.3735    1.0000 </r>
       <r>   -4.3685    1.0000 </r>
       <r>   -4.3673    1.0000 </r>
       <r>   -4.3671    1.0000 </r>
       <r>   -4.1771    1.0000 </r>
       <r>   -4.1755    1.0000 </r>
       <r>   -4.0494    1.0000 </r>
       <r>   -4.0491    1.0000 </r>
       <r>   -4.0423    1.0000 </r>
       <r>   -3.7918    1.0000 </r>
       <r>   -3.7918    1.0000 </r>
       <r>   -3.7906    1.0000 </r>
       <r>   -3.7901    1.0000 </r>
       <r>   -3.7896    1.0000 </r>
       <r>   -3.7837    1.0000 </r>
       <r>   -3.0444    1.0000 </r>
       <r>   -3.0438    1.0000 </r>
       <r>   -3.0431    1.0000 </r>
       <r>   -3.0426    1.0000 </r>
       <r>   -3.0413    1.0000 </r>
       <r>   -3.0390    1.0000 </r>
       <r>   -2.9188    1.0000 </r>
       <r>   -2.9140    1.0000 </r>
       <r>   -2.9096    1.0000 </r>
       <r>   -2.9058    1.0000 </r>
       <r>   -2.9047    1.0000 </r>
       <r>   -2.9008    1.0000 </r>
       <r>   -2.8999    1.0000 </r>
       <r>   -2.8999    1.0000 </r>
       <r>   -2.2347    1.0000 </r>
       <r>   -1.7755    1.0000 </r>
       <r>   -1.7755    1.0000 </r>
       <r>   -0.0883    0.0000 </r>
       <r>   -0.0883    0.0000 </r>
       <r>    0.3237    0.0000 </r>
       <r>    0.3240    0.0000 </r>
       <r>    0.3244    0.0000 </r>
       <r>    0.3274    0.0000 </r>
       <r>    0.3275    0.0000 </r>
       <r>    0.3279    0.0000 </r>
       <r>    0.5357    0.0000 </r>
       <r>    0.5373    0.0000 </r>
       <r>    0.5384    0.0000 </r>
       <r>    0.5387    0.0000 </r>
       <r>    0.5404    0.0000 </r>
       <r>    0.5415    0.0000 </r>
       <r>    0.9528    0.0000 </r>
       <r>    0.9528    0.0000 </r>
       <r>    1.2287    0.0000 </r>
       <r>    1.2324    0.0000 </r>
       <r>    1.3731    0.0000 </r>
       <r>    1.3915    0.0000 </r>
       <r>    1.4523    0.0000 </r>
      </set>
      <set comment="kpoint 2">
       <r>  -16.5461    1.0000 </r>
       <r>  -15.3646    1.0000 </r>
       <r>  -15.2778    1.0000 </r>
       <r>  -15.2268    1.0000 </r>
       <r>  -15.2231    1.0000 </r>
       <r>  -15.1287    1.0000 </r>
       <r>  -15.1249    1.0000 </r>
       <r>  -15.0814    1.0000 </r>
       <r>  -14.6782    1.0000 </r>
       <r>  -14.6513    1.0000 </r>
       <r>  -14.6492    1.0000 </r>
       <r>  -14.6008    1.0000 </r>
       <r>  -14.5984    1.0000 </r>
       <r>  -14.5770    1.0000 </r>
       <r>  -14.2472    1.0000 </r>
       <r>  -14.2438    1.0000 </r>
       <r>  -14.1243    1.0000 </r>
       <r>  -14.1223    1.0000 </r>
       <r>   -8.0009    1.0000 </r>
       <r>   -7.3599    1.0000 </r>
       <r>   -7.2903    1.0000 </r>
       <r>   -7.2889    1.0000 </r>
       <r>   -7.1648    1.0000 </r>
       <r>   -7.1644    1.0000 </r>
       <r>   -7.1601    1.0000 </r>
       <r>   -7.1587    1.0000 </r>
       <r>   -7.1030    1.0000 </r>
       <r>   -7.0669    1.0000 </r>
       <r>   -7.0666    1.0000 </r>
       <r>   -6.2874    1.0000 </r>
       <r>   -6.2471    1.0000 </r>
       <r>   -6.2281    1.0000 </r>
       <r>   -6.2260    1.0000 </r>
       <r>   -6.2231    1.0000 </r>
       <r>   -6.2220    1.0000 </r>
       <r>   -6.1821    1.0000 </r>
       <r>   -6.1797    1.0000 </r>
       <r>   -6.1590    1.0000 </r>
       <r>   -6.1397    1.0000 </r>
       <r>   -6.1396    1.0000 </r>
       <r>   -6.0915    1.0000 </r>
       <r>   -6.0903    1.0000 </r>
       <r>   -6.0239    1.0000 </r>
       <r>   -5.5016    1.0000 </r>
       <r>   -5.4994    1.0000 </r>
       <r>   -5.1255    1.0000 </r>
       <r>   -5.1252    1.0000 </r>
       <r>   -4.4297    1.0000 </r>
       <r>   -4.4247    1.0000 </r>
       <r>   -4.4177    1.0000 </r>
       <r>   -4.3642    1.0000 </r>
       <r>   -4.3576    1.0000 </r>
       <r>   -4.3041    1.0000 </r>
       <r>   -4.1715    1.0000 </r>
       <r>   -4.1699    1.0000 </r>
       <r>   -4.0603    1.0000 </r>
       <r>   -4.0575    1.0000 </r>
       <r>   -4.0398    1.0000 </r>
       <r>   -3.8306    1.0000 </r>
       <r>   -3.7984    1.0000 </r>
       <r>   -3.7959    1.0000 </r>
       <r>   -3.7527    1.0000 </r>
       <r>   -3.7506    1.0000 </r>
       <r>   -3.7437    1.0000 </r>
       <r>   -3.0945    1.0000 </r>
       <r>   -3.0926    1.0000 </r>
       <r>   -3.0874    1.0000 </r>
       <r>   -3.0852    1.0000 </r>
       <r>   -3.0533    1.0000 </r>
       <r>   -3.0169    1.0000 </r>
       <r>   -2.9633    1.0000 </r>
       <r>   -2.9217    1.0000 </r>
       <r>   -2.9146    1.0000 </r>
       <r>   -2.8886    1.0000 </r>
       <r>   -2.8853    1.0000 </r>
       <r>   -2.8465    1.0000 </r>
       <r>   -2.8431    1.0000 </r>
       <r>   -2.8377    1.0000 </r>
       <r>   -2.2352    1.0000 </r>
       <r>   -1.7858    1.0000 </r>
       <r>   -1.7856    1.0000 </r>
       <r>   -0.0758    0.0000 </r>
       <r>   -0.0752    0.0000 </r>
       <r>    0.2628    0.0000 </r>
       <r>    0.2789    0.0000 </r>
       <r>    0.2798    0.0000 </r>
       <r>    0.3413    0.0000 </r>
       <r>    0.3423    0.0000 </r>
       <r>    0.3945    0.0000 </r>
       <r>    0.5421    0.0000 </r>
       <r>    0.5441    0.0000 </r>
       <r>    0.5488    0.0000 </r>
       <r>    0.5523    0.0000 </r>
       <r>    0.5549    0.0000 </r>
       <r>    0.5561    0.0000 </r>
       <r>    0.9578    0.0000 </r>
       <r>    0.9578    0.0000 </r>
       <r>    1.2177    0.0000 </r>
       <r>    1.2385    0.0000 </r>
       <r>    1.3487    0.0000 </r>
       <r>    1.3716    0.0000 </r>
       <r>    1.3943    0.0000 </r>
      </set>
      <set comment="kpoint 3">
       <r>  -16.5347    1.0000 </r>
       <r>  -15.3781    1.0000 </r>
       <r>  -15.3583    1.0000 </r>
       <r>  -15.2704    1.0000 </r>
       <r>  -15.2668    1.0000 </r>
       <r>  -15.0751    1.0000 </r>
       <r>  -15.0712    1.0000 </r>
       <r>  -14.9882    1.0000 </r>
       <r>  -14.7307    1.0000 </r>
       <r>  -14.6737    1.0000 </r>
       <r>  -14.6717    1.0000 </r>
       <r>  -14.5730    1.0000 </r>
       <r>  -14.5705    1.0000 </r>
       <r>  -14.5296    1.0000 </r>
       <r>  -14.2572    1.0000 </r>
       <r>  -14.2538    1.0000 </r>
       <r>  -14.1301    1.0000 </r>
       <r>  -14.1281    1.0000 </r>
       <r>   -7.9860    1.0000 </r>
       <r>   -7.4937    1.0000 </r>
       <r>   -7.3501    1.0000 </r>
       <r>   -7.3488    1.0000 </r>
       <r>   -7.1521    1.0000 </r>
       <r>   -7.1515    1.0000 </r>
       <r>   -7.1151    1.0000 </r>
       <r>   -7.1146    1.0000 </r>
       <r>   -7.0937    1.0000 </r>
       <r>   -7.0922    1.0000 </r>
       <r>   -7.0049    1.0000 </r>
       <r>   -6.4085    1.0000 </r>
       <r>   -6.2860    1.0000 </r>
       <r>   -6.2853    1.0000 </r>
       <r>   -6.2651    1.0000 </r>
       <r>   -6.2450    1.0000 </r>
       <r>   -6.2428    1.0000 </r>
       <r>   -6.1544    1.0000 </r>
       <r>   -6.1520    1.0000 </r>
       <r>   -6.1133    1.0000 </r>
       <r>   -6.0748    1.0000 </r>
       <r>   -6.0745    1.0000 </r>
       <r>   -6.0216    1.0000 </r>
       <r>   -6.0202    1.0000 </r>
       <r>   -5.8850    1.0000 </r>
       <r>   -5.4925    1.0000 </r>
       <r>   -5.4903    1.0000 </r>
       <r>   -5.1312    1.0000 </r>
       <r>   -5.1305    1.0000 </r>
       <r>   -4.4988    1.0000 </r>
       <r>   -4.4923    1.0000 </r>
       <r>   -4.4840    1.0000 </r>
       <r>   -4.3892    1.0000 </r>
       <r>   -4.3833    1.0000 </r>
       <r>   -4.2342    1.0000 </r>
       <r>   -4.1552    1.0000 </r>
       <r>   -4.1535    1.0000 </r>
       <r>   -4.0961    1.0000 </r>
       <r>   -4.0824    1.0000 </r>
       <r>   -4.0287    1.0000 </r>
       <r>   -3.8656    1.0000 </r>
       <r>   -3.7864    1.0000 </r>
       <r>   -3.7841    1.0000 </r>
       <r>   -3.6927    1.0000 </r>
       <r>   -3.6852    1.0000 </r>
       <r>   -3.6829    1.0000 </r>
       <r>   -3.1824    1.0000 </r>
       <r>   -3.1809    1.0000 </r>
       <r>   -3.1792    1.0000 </r>
       <r>   -3.1767    1.0000 </r>
       <r>   -3.0479    1.0000 </r>
       <r>   -3.0294    1.0000 </r>
       <r>   -2.9755    1.0000 </r>
       <r>   -2.9419    1.0000 </r>
       <r>   -2.9112    1.0000 </r>
       <r>   -2.8329    1.0000 </r>
       <r>   -2.8309    1.0000 </r>
       <r>   -2.7958    1.0000 </r>
       <r>   -2.7600    1.0000 </r>
       <r>   -2.7551    1.0000 </r>
       <r>   -2.2368    1.0000 </r>
       <r>   -1.8151    1.0000 </r>
       <r>   -1.8146    1.0000 </r>
       <r>   -0.0393    0.0000 </r>
       <r>   -0.0382    0.0000 </r>
       <r>    0.2076    0.0000 </r>
       <r>    0.2172    0.0000 </r>
       <r>    0.2181    0.0000 </r>
       <r>    0.3287    0.0000 </r>
       <r>    0.3308    0.0000 </r>
       <r>    0.4682    0.0000 </r>
       <r>    0.5528    0.0000 </r>
       <r>    0.5550    0.0000 </r>
       <r>    0.5742    0.0000 </r>
       <r>    0.5781    0.0000 </r>
       <r>    0.6008    0.0000 </r>
       <r>    0.6017    0.0000 </r>
       <r>    0.9727    0.0000 </r>
       <r>    0.9729    0.0000 </r>
       <r>    1.1837    0.0000 </r>
       <r>    1.2606    0.0000 </r>
       <r>    1.2818    0.0000 </r>
       <r>    1.2942    0.0000 </r>
       <r>    1.3431    0.0000 </r>
      </set>
      <set comment="kpoint 4">
       <r>  -16.5159    1.0000 </r>
       <r>  -15.4784    1.0000 </r>
       <r>  -15.3479    1.0000 </r>
       <r>  -15.3100    1.0000 </r>
       <r>  -15.3065    1.0000 </r>
       <r>  -15.0190    1.0000 </r>
       <r>  -15.0151    1.0000 </r>
       <r>  -14.9000    1.0000 </r>
       <r>  -14.7836    1.0000 </r>
       <r>  -14.6940    1.0000 </r>
       <r>  -14.6921    1.0000 </r>
       <r>  -14.5439    1.0000 </r>
       <r>  -14.5412    1.0000 </r>
       <r>  -14.4852    1.0000 </r>
       <r>  -14.2739    1.0000 </r>
       <r>  -14.2704    1.0000 </r>
       <r>  -14.1397    1.0000 </r>
       <r>  -14.1376    1.0000 </r>
       <r>   -7.9612    1.0000 </r>
       <r>   -7.6224    1.0000 </r>
       <r>   -7.4049    1.0000 </r>
       <r>   -7.4037    1.0000 </r>
       <r>   -7.1804    1.0000 </r>
       <r>   -7.1797    1.0000 </r>
       <r>   -7.1317    1.0000 </r>
       <r>   -7.1308    1.0000 </r>
       <r>   -7.0280    1.0000 </r>
       <r>   -7.0266    1.0000 </r>
       <r>   -6.9529    1.0000 </r>
       <r>   -6.5205    1.0000 </r>
       <r>   -6.3468    1.0000 </r>
       <r>   -6.3462    1.0000 </r>
       <r>   -6.2584    1.0000 </r>
       <r>   -6.2561    1.0000 </r>
       <r>   -6.2395    1.0000 </r>
       <r>   -6.1239    1.0000 </r>
       <r>   -6.1215    1.0000 </r>
       <r>   -6.0732    1.0000 </r>
       <r>   -5.9877    1.0000 </r>
       <r>   -5.9873    1.0000 </r>
       <r>   -5.9490    1.0000 </r>
       <r>   -5.9474    1.0000 </r>
       <r>   -5.7436    1.0000 </r>
       <r>   -5.4712    1.0000 </r>
       <r>   -5.4692    1.0000 </r>
       <r>   -5.1393    1.0000 </r>
       <r>   -5.1382    1.0000 </r>
       <r>   -4.5856    1.0000 </r>
       <r>   -4.5794    1.0000 </r>
       <r>   -4.5333    1.0000 </r>
       <r>   -4.4419    1.0000 </r>
       <r>   -4.4367    1.0000 </r>
       <r>   -4.1598    1.0000 </r>
       <r>   -4.1551    1.0000 </r>
       <r>   -4.1293    1.0000 </r>
       <r>   -4.1277    1.0000 </r>
       <r>   -4.1222    1.0000 </r>
       <r>   -4.0099    1.0000 </r>
       <r>   -3.8956    1.0000 </r>
       <r>   -3.7670    1.0000 </r>
       <r>   -3.7649    1.0000 </r>
       <r>   -3.6349    1.0000 </r>
       <r>   -3.5983    1.0000 </r>
       <r>   -3.5964    1.0000 </r>
       <r>   -3.2856    1.0000 </r>
       <r>   -3.2840    1.0000 </r>
       <r>   -3.2797    1.0000 </r>
       <r>   -3.2764    1.0000 </r>
       <r>   -3.0995    1.0000 </r>
       <r>   -3.0283    1.0000 </r>
       <r>   -2.9755    1.0000 </r>
       <r>   -2.9212    1.0000 </r>
       <r>   -2.9070    1.0000 </r>
       <r>   -2.7776    1.0000 </r>
       <r>   -2.7761    1.0000 </r>
       <r>   -2.7516    1.0000 </r>
       <r>   -2.6800    1.0000 </r>
       <r>   -2.6756    1.0000 </r>
       <r>   -2.2399    1.0000 </r>
       <r>   -1.8595    1.0000 </r>
       <r>   -1.8588    1.0000 </r>
       <r>    0.0164    0.0000 </r>
       <r>    0.0178    0.0000 </r>
       <r>    0.1509    0.0000 </r>
       <r>    0.1521    0.0000 </r>
       <r>    0.1620    0.0000 </r>
       <r>    0.3077    0.0000 </r>
       <r>    0.3102    0.0000 </r>
       <r>    0.5452    0.0000 </r>
       <r>    0.5686    0.0000 </r>
       <r>    0.5738    0.0000 </r>
       <r>    0.6010    0.0000 </r>
       <r>    0.6048    0.0000 </r>
       <r>    0.6591    0.0000 </r>
       <r>    0.6611    0.0000 </r>
       <r>    0.9973    0.0000 </r>
       <r>    0.9975    0.0000 </r>
       <r>    1.1317    0.0000 </r>
       <r>    1.1842    0.0000 </r>
       <r>    1.2033    0.0000 </r>
       <r>    1.2696    0.0000 </r>
       <r>    1.2878    0.0000 </r>
      </set>
      <set comment="kpoint 5">
       <r>  -16.4896    1.0000 </r>
       <r>  -15.5779    1.0000 </r>
       <r>  -15.3454    1.0000 </r>
       <r>  -15.3418    1.0000 </r>
       <r>  -15.3333    1.0000 </r>
       <r>  -14.9609    1.0000 </r>
       <r>  -14.9569    1.0000 </r>
       <r>  -14.8365    1.0000 </r>
       <r>  -14.8182    1.0000 </r>
       <r>  -14.7120    1.0000 </r>
       <r>  -14.7102    1.0000 </r>
       <r>  -14.5135    1.0000 </r>
       <r>  -14.5108    1.0000 </r>
       <r>  -14.4445    1.0000 </r>
       <r>  -14.2969    1.0000 </r>
       <r>  -14.2934    1.0000 </r>
       <r>  -14.1528    1.0000 </r>
       <r>  -14.1506    1.0000 </r>
       <r>   -7.9267    1.0000 </r>
       <r>   -7.7422    1.0000 </r>
       <r>   -7.4535    1.0000 </r>
       <r>   -7.4525    1.0000 </r>
       <r>   -7.2518    1.0000 </r>
       <r>   -7.2511    1.0000 </r>
       <r>   -7.1038    1.0000 </r>
       <r>   -7.1027    1.0000 </r>
       <r>   -6.9657    1.0000 </r>
       <r>   -6.9639    1.0000 </r>
       <r>   -6.9565    1.0000 </r>
       <r>   -6.6220    1.0000 </r>
       <r>   -6.4065    1.0000 </r>
       <r>   -6.4058    1.0000 </r>
       <r>   -6.2676    1.0000 </r>
       <r>   -6.2651    1.0000 </r>
       <r>   -6.1598    1.0000 </r>
       <r>   -6.0911    1.0000 </r>
       <r>   -6.0887    1.0000 </r>
       <r>   -6.0403    1.0000 </r>
       <r>   -5.9013    1.0000 </r>
       <r>   -5.9005    1.0000 </r>
       <r>   -5.8739    1.0000 </r>
       <r>   -5.8722    1.0000 </r>
       <r>   -5.6014    1.0000 </r>
       <r>   -5.4267    1.0000 </r>
       <r>   -5.4250    1.0000 </r>
       <r>   -5.1482    1.0000 </r>
       <r>   -5.1468    1.0000 </r>
       <r>   -4.6760    1.0000 </r>
       <r>   -4.6702    1.0000 </r>
       <r>   -4.5768    1.0000 </r>
       <r>   -4.5122    1.0000 </r>
       <r>   -4.5076    1.0000 </r>
       <r>   -4.2356    1.0000 </r>
       <r>   -4.1760    1.0000 </r>
       <r>   -4.0954    1.0000 </r>
       <r>   -4.0935    1.0000 </r>
       <r>   -4.0814    1.0000 </r>
       <r>   -3.9836    1.0000 </r>
       <r>   -3.9210    1.0000 </r>
       <r>   -3.7484    1.0000 </r>
       <r>   -3.7465    1.0000 </r>
       <r>   -3.5717    1.0000 </r>
       <r>   -3.5029    1.0000 </r>
       <r>   -3.5012    1.0000 </r>
       <r>   -3.4024    1.0000 </r>
       <r>   -3.4012    1.0000 </r>
       <r>   -3.3784    1.0000 </r>
       <r>   -3.3749    1.0000 </r>
       <r>   -3.1727    1.0000 </r>
       <r>   -3.0212    1.0000 </r>
       <r>   -2.9971    1.0000 </r>
       <r>   -2.9052    1.0000 </r>
       <r>   -2.8563    1.0000 </r>
       <r>   -2.7278    1.0000 </r>
       <r>   -2.7266    1.0000 </r>
       <r>   -2.7136    1.0000 </r>
       <r>   -2.6076    1.0000 </r>
       <r>   -2.6036    1.0000 </r>
       <r>   -2.2451    1.0000 </r>
       <r>   -1.9142    1.0000 </r>
       <r>   -1.9134    1.0000 </r>
       <r>    0.0846    0.0000 </r>
       <r>    0.0858    0.0000 </r>
       <r>    0.0868    0.0000 </r>
       <r>    0.0875    0.0000 </r>
       <r>    0.1270    0.0000 </r>
       <r>    0.2908    0.0000 </r>
       <r>    0.2935    0.0000 </r>
       <r>    0.5874    0.0000 </r>
       <r>    0.6009    0.0000 </r>
       <r>    0.6241    0.0000 </r>
       <r>    0.6254    0.0000 </r>
       <r>    0.6289    0.0000 </r>
       <r>    0.7201    0.0000 </r>
       <r>    0.7231    0.0000 </r>
       <r>    1.0308    0.0000 </r>
       <r>    1.0312    0.0000 </r>
       <r>    1.0648    0.0000 </r>
       <r>    1.0687    0.0000 </r>
       <r>    1.1052    0.0000 </r>
       <r>    1.1831    0.0000 </r>
       <r>    1.1836    0.0000 </r>
      </set>
      <set comment="kpoint 6">
       <r>  -16.4561    1.0000 </r>
       <r>  -15.6757    1.0000 </r>
       <r>  -15.3760    1.0000 </r>
       <r>  -15.3725    1.0000 </r>
       <r>  -15.3148    1.0000 </r>
       <r>  -14.9014    1.0000 </r>
       <r>  -14.8973    1.0000 </r>
       <r>  -14.8886    1.0000 </r>
       <r>  -14.7445    1.0000 </r>
       <r>  -14.7275    1.0000 </r>
       <r>  -14.7260    1.0000 </r>
       <r>  -14.4823    1.0000 </r>
       <r>  -14.4795    1.0000 </r>
       <r>  -14.4082    1.0000 </r>
       <r>  -14.3259    1.0000 </r>
       <r>  -14.3224    1.0000 </r>
       <r>  -14.1694    1.0000 </r>
       <r>  -14.1671    1.0000 </r>
       <r>   -7.8828    1.0000 </r>
       <r>   -7.8503    1.0000 </r>
       <r>   -7.4950    1.0000 </r>
       <r>   -7.4942    1.0000 </r>
       <r>   -7.3222    1.0000 </r>
       <r>   -7.3214    1.0000 </r>
       <r>   -7.0690    1.0000 </r>
       <r>   -7.0676    1.0000 </r>
       <r>   -7.0053    1.0000 </r>
       <r>   -6.9077    1.0000 </r>
       <r>   -6.9061    1.0000 </r>
       <r>   -6.7116    1.0000 </r>
       <r>   -6.4655    1.0000 </r>
       <r>   -6.4647    1.0000 </r>
       <r>   -6.2727    1.0000 </r>
       <r>   -6.2699    1.0000 </r>
       <r>   -6.0567    1.0000 </r>
       <r>   -6.0541    1.0000 </r>
       <r>   -6.0367    1.0000 </r>
       <r>   -6.0148    1.0000 </r>
       <r>   -5.8371    1.0000 </r>
       <r>   -5.8359    1.0000 </r>
       <r>   -5.7969    1.0000 </r>
       <r>   -5.7951    1.0000 </r>
       <r>   -5.4601    1.0000 </r>
       <r>   -5.3454    1.0000 </r>
       <r>   -5.3441    1.0000 </r>
       <r>   -5.1561    1.0000 </r>
       <r>   -5.1543    1.0000 </r>
       <r>   -4.7644    1.0000 </r>
       <r>   -4.7590    1.0000 </r>
       <r>   -4.6143    1.0000 </r>
       <r>   -4.5927    1.0000 </r>
       <r>   -4.5885    1.0000 </r>
       <r>   -4.3354    1.0000 </r>
       <r>   -4.2412    1.0000 </r>
       <r>   -4.0555    1.0000 </r>
       <r>   -4.0536    1.0000 </r>
       <r>   -3.9995    1.0000 </r>
       <r>   -3.9503    1.0000 </r>
       <r>   -3.9420    1.0000 </r>
       <r>   -3.7355    1.0000 </r>
       <r>   -3.7336    1.0000 </r>
       <r>   -3.5328    1.0000 </r>
       <r>   -3.5315    1.0000 </r>
       <r>   -3.5034    1.0000 </r>
       <r>   -3.4713    1.0000 </r>
       <r>   -3.4678    1.0000 </r>
       <r>   -3.4075    1.0000 </r>
       <r>   -3.4057    1.0000 </r>
       <r>   -3.2481    1.0000 </r>
       <r>   -3.0777    1.0000 </r>
       <r>   -2.9580    1.0000 </r>
       <r>   -2.9084    1.0000 </r>
       <r>   -2.7841    1.0000 </r>
       <r>   -2.6845    1.0000 </r>
       <r>   -2.6835    1.0000 </r>
       <r>   -2.6815    1.0000 </r>
       <r>   -2.5438    1.0000 </r>
       <r>   -2.5402    1.0000 </r>
       <r>   -2.2532    1.0000 </r>
       <r>   -1.9747    1.0000 </r>
       <r>   -1.9738    1.0000 </r>
       <r>    0.0255    0.0000 </r>
       <r>    0.0267    0.0000 </r>
       <r>    0.1050    0.0000 </r>
       <r>    0.1588    0.0000 </r>
       <r>    0.1607    0.0000 </r>
       <r>    0.2840    0.0000 </r>
       <r>    0.2868    0.0000 </r>
       <r>    0.6084    0.0000 </r>
       <r>    0.6357    0.0000 </r>
       <r>    0.6445    0.0000 </r>
       <r>    0.6478    0.0000 </r>
       <r>    0.7052    0.0000 </r>
       <r>    0.7792    0.0000 </r>
       <r>    0.7830    0.0000 </r>
       <r>    0.9370    0.0000 </r>
       <r>    0.9979    0.0000 </r>
       <r>    1.0248    0.0000 </r>
       <r>    1.0728    0.0000 </r>
       <r>    1.0737    0.0000 </r>
       <r>    1.0965    0.0000 </r>
       <r>    1.0970    0.0000 </r>
      </set>
      <set comment="kpoint 7">
       <r>  -16.4154    1.0000 </r>
       <r>  -15.7708    1.0000 </r>
       <r>  -15.4019    1.0000 </r>
       <r>  -15.3984    1.0000 </r>
       <r>  -15.2923    1.0000 </r>
       <r>  -14.9398    1.0000 </r>
       <r>  -14.8409    1.0000 </r>
       <r>  -14.8368    1.0000 </r>
       <r>  -14.7408    1.0000 </r>
       <r>  -14.7393    1.0000 </r>
       <r>  -14.6800    1.0000 </r>
       <r>  -14.4504    1.0000 </r>
       <r>  -14.4476    1.0000 </r>
       <r>  -14.3769    1.0000 </r>
       <r>  -14.3606    1.0000 </r>
       <r>  -14.3571    1.0000 </r>
       <r>  -14.1890    1.0000 </r>
       <r>  -14.1866    1.0000 </r>
       <r>   -7.9443    1.0000 </r>
       <r>   -7.8298    1.0000 </r>
       <r>   -7.5286    1.0000 </r>
       <r>   -7.5280    1.0000 </r>
       <r>   -7.3870    1.0000 </r>
       <r>   -7.3862    1.0000 </r>
       <r>   -7.0798    1.0000 </r>
       <r>   -7.0279    1.0000 </r>
       <r>   -7.0264    1.0000 </r>
       <r>   -6.8575    1.0000 </r>
       <r>   -6.8554    1.0000 </r>
       <r>   -6.7881    1.0000 </r>
       <r>   -6.5242    1.0000 </r>
       <r>   -6.5233    1.0000 </r>
       <r>   -6.2740    1.0000 </r>
       <r>   -6.2708    1.0000 </r>
       <r>   -6.0209    1.0000 </r>
       <r>   -6.0183    1.0000 </r>
       <r>   -5.9962    1.0000 </r>
       <r>   -5.8876    1.0000 </r>
       <r>   -5.8042    1.0000 </r>
       <r>   -5.8026    1.0000 </r>
       <r>   -5.7191    1.0000 </r>
       <r>   -5.7172    1.0000 </r>
       <r>   -5.3211    1.0000 </r>
       <r>   -5.2239    1.0000 </r>
       <r>   -5.2228    1.0000 </r>
       <r>   -5.1610    1.0000 </r>
       <r>   -5.1589    1.0000 </r>
       <r>   -4.8470    1.0000 </r>
       <r>   -4.8419    1.0000 </r>
       <r>   -4.6779    1.0000 </r>
       <r>   -4.6741    1.0000 </r>
       <r>   -4.6456    1.0000 </r>
       <r>   -4.4525    1.0000 </r>
       <r>   -4.3164    1.0000 </r>
       <r>   -4.0116    1.0000 </r>
       <r>   -4.0096    1.0000 </r>
       <r>   -3.9590    1.0000 </r>
       <r>   -3.9152    1.0000 </r>
       <r>   -3.9093    1.0000 </r>
       <r>   -3.7305    1.0000 </r>
       <r>   -3.7287    1.0000 </r>
       <r>   -3.6759    1.0000 </r>
       <r>   -3.6747    1.0000 </r>
       <r>   -3.5553    1.0000 </r>
       <r>   -3.5519    1.0000 </r>
       <r>   -3.4310    1.0000 </r>
       <r>   -3.3247    1.0000 </r>
       <r>   -3.3179    1.0000 </r>
       <r>   -3.3163    1.0000 </r>
       <r>   -3.1433    1.0000 </r>
       <r>   -2.9197    1.0000 </r>
       <r>   -2.9153    1.0000 </r>
       <r>   -2.7081    1.0000 </r>
       <r>   -2.6557    1.0000 </r>
       <r>   -2.6480    1.0000 </r>
       <r>   -2.6469    1.0000 </r>
       <r>   -2.4880    1.0000 </r>
       <r>   -2.4847    1.0000 </r>
       <r>   -2.2654    1.0000 </r>
       <r>   -2.0370    1.0000 </r>
       <r>   -2.0359    1.0000 </r>
       <r>   -0.0285    0.0000 </r>
       <r>   -0.0273    0.0000 </r>
       <r>    0.0979    0.0000 </r>
       <r>    0.2315    0.0000 </r>
       <r>    0.2335    0.0000 </r>
       <r>    0.2895    0.0000 </r>
       <r>    0.2923    0.0000 </r>
       <r>    0.6295    0.0000 </r>
       <r>    0.6596    0.0000 </r>
       <r>    0.6627    0.0000 </r>
       <r>    0.6776    0.0000 </r>
       <r>    0.7838    0.0000 </r>
       <r>    0.8044    0.0000 </r>
       <r>    0.8343    0.0000 </r>
       <r>    0.8389    0.0000 </r>
       <r>    0.9300    0.0000 </r>
       <r>    0.9518    0.0000 </r>
       <r>    1.0126    0.0000 </r>
       <r>    1.0135    0.0000 </r>
       <r>    1.1227    0.0000 </r>
       <r>    1.1257    0.0000 </r>
      </set>
      <set comment="kpoint 8">
       <r>  -16.3677    1.0000 </r>
       <r>  -15.8626    1.0000 </r>
       <r>  -15.4228    1.0000 </r>
       <r>  -15.4194    1.0000 </r>
       <r>  -15.2659    1.0000 </r>
       <r>  -14.9895    1.0000 </r>
       <r>  -14.7802    1.0000 </r>
       <r>  -14.7761    1.0000 </r>
       <r>  -14.7513    1.0000 </r>
       <r>  -14.7500    1.0000 </r>
       <r>  -14.6265    1.0000 </r>
       <r>  -14.4183    1.0000 </r>
       <r>  -14.4154    1.0000 </r>
       <r>  -14.4005    1.0000 </r>
       <r>  -14.3970    1.0000 </r>
       <r>  -14.3509    1.0000 </r>
       <r>  -14.2115    1.0000 </r>
       <r>  -14.2090    1.0000 </r>
       <r>   -8.0220    1.0000 </r>
       <r>   -7.7682    1.0000 </r>
       <r>   -7.5534    1.0000 </r>
       <r>   -7.5530    1.0000 </r>
       <r>   -7.4439    1.0000 </r>
       <r>   -7.4431    1.0000 </r>
       <r>   -7.1676    1.0000 </r>
       <r>   -6.9813    1.0000 </r>
       <r>   -6.9797    1.0000 </r>
       <r>   -6.8506    1.0000 </r>
       <r>   -6.8160    1.0000 </r>
       <r>   -6.8135    1.0000 </r>
       <r>   -6.5831    1.0000 </r>
       <r>   -6.5820    1.0000 </r>
       <r>   -6.2724    1.0000 </r>
       <r>   -6.2685    1.0000 </r>
       <r>   -5.9855    1.0000 </r>
       <r>   -5.9825    1.0000 </r>
       <r>   -5.9816    1.0000 </r>
       <r>   -5.7966    1.0000 </r>
       <r>   -5.7947    1.0000 </r>
       <r>   -5.7247    1.0000 </r>
       <r>   -5.6425    1.0000 </r>
       <r>   -5.6405    1.0000 </r>
       <r>   -5.1858    1.0000 </r>
       <r>   -5.1611    1.0000 </r>
       <r>   -5.1588    1.0000 </r>
       <r>   -5.0720    1.0000 </r>
       <r>   -5.0710    1.0000 </r>
       <r>   -4.9215    1.0000 </r>
       <r>   -4.9168    1.0000 </r>
       <r>   -4.7628    1.0000 </r>
       <r>   -4.7595    1.0000 </r>
       <r>   -4.6710    1.0000 </r>
       <r>   -4.5843    1.0000 </r>
       <r>   -4.4005    1.0000 </r>
       <r>   -3.9724    1.0000 </r>
       <r>   -3.9657    1.0000 </r>
       <r>   -3.9635    1.0000 </r>
       <r>   -3.8637    1.0000 </r>
       <r>   -3.8311    1.0000 </r>
       <r>   -3.8299    1.0000 </r>
       <r>   -3.8267    1.0000 </r>
       <r>   -3.7345    1.0000 </r>
       <r>   -3.7327    1.0000 </r>
       <r>   -3.6272    1.0000 </r>
       <r>   -3.6240    1.0000 </r>
       <r>   -3.4011    1.0000 </r>
       <r>   -3.3560    1.0000 </r>
       <r>   -3.2398    1.0000 </r>
       <r>   -3.2381    1.0000 </r>
       <r>   -3.2166    1.0000 </r>
       <r>   -2.9407    1.0000 </r>
       <r>   -2.8740    1.0000 </r>
       <r>   -2.6352    1.0000 </r>
       <r>   -2.6318    1.0000 </r>
       <r>   -2.6183    1.0000 </r>
       <r>   -2.6175    1.0000 </r>
       <r>   -2.4386    1.0000 </r>
       <r>   -2.4357    1.0000 </r>
       <r>   -2.2830    1.0000 </r>
       <r>   -2.0981    1.0000 </r>
       <r>   -2.0969    1.0000 </r>
       <r>   -0.0741    0.0000 </r>
       <r>   -0.0728    0.0000 </r>
       <r>    0.1075    0.0000 </r>
       <r>    0.2962    0.0000 </r>
       <r>    0.2981    0.0000 </r>
       <r>    0.3066    0.0000 </r>
       <r>    0.3095    0.0000 </r>
       <r>    0.6489    0.0000 </r>
       <r>    0.6706    0.0000 </r>
       <r>    0.6721    0.0000 </r>
       <r>    0.6747    0.0000 </r>
       <r>    0.7256    0.0000 </r>
       <r>    0.8581    0.0000 </r>
       <r>    0.8698    0.0000 </r>
       <r>    0.8849    0.0000 </r>
       <r>    0.8884    0.0000 </r>
       <r>    0.8901    0.0000 </r>
       <r>    0.9368    0.0000 </r>
       <r>    0.9376    0.0000 </r>
       <r>    1.1657    0.0000 </r>
       <r>    1.1778    0.0000 </r>
      </set>
      <set comment="kpoint 9">
       <r>  -16.3133    1.0000 </r>
       <r>  -15.9505    1.0000 </r>
       <r>  -15.4386    1.0000 </r>
       <r>  -15.4352    1.0000 </r>
       <r>  -15.2359    1.0000 </r>
       <r>  -15.0372    1.0000 </r>
       <r>  -14.7595    1.0000 </r>
       <r>  -14.7581    1.0000 </r>
       <r>  -14.7197    1.0000 </r>
       <r>  -14.7157    1.0000 </r>
       <r>  -14.5852    1.0000 </r>
       <r>  -14.4455    1.0000 </r>
       <r>  -14.4417    1.0000 </r>
       <r>  -14.3858    1.0000 </r>
       <r>  -14.3830    1.0000 </r>
       <r>  -14.3310    1.0000 </r>
       <r>  -14.2364    1.0000 </r>
       <r>  -14.2338    1.0000 </r>
       <r>   -8.0819    1.0000 </r>
       <r>   -7.6985    1.0000 </r>
       <r>   -7.5689    1.0000 </r>
       <r>   -7.5685    1.0000 </r>
       <r>   -7.4911    1.0000 </r>
       <r>   -7.4904    1.0000 </r>
       <r>   -7.2611    1.0000 </r>
       <r>   -6.9304    1.0000 </r>
       <r>   -6.9287    1.0000 </r>
       <r>   -6.8982    1.0000 </r>
       <r>   -6.7845    1.0000 </r>
       <r>   -6.7815    1.0000 </r>
       <r>   -6.6422    1.0000 </r>
       <r>   -6.6409    1.0000 </r>
       <r>   -6.2689    1.0000 </r>
       <r>   -6.2645    1.0000 </r>
       <r>   -5.9749    1.0000 </r>
       <r>   -5.9481    1.0000 </r>
       <r>   -5.9458    1.0000 </r>
       <r>   -5.8051    1.0000 </r>
       <r>   -5.8031    1.0000 </r>
       <r>   -5.5708    1.0000 </r>
       <r>   -5.5691    1.0000 </r>
       <r>   -5.5551    1.0000 </r>
       <r>   -5.1549    1.0000 </r>
       <r>   -5.1523    1.0000 </r>
       <r>   -5.0551    1.0000 </r>
       <r>   -4.9864    1.0000 </r>
       <r>   -4.9821    1.0000 </r>
       <r>   -4.9017    1.0000 </r>
       <r>   -4.9006    1.0000 </r>
       <r>   -4.8420    1.0000 </r>
       <r>   -4.8391    1.0000 </r>
       <r>   -4.7284    1.0000 </r>
       <r>   -4.6900    1.0000 </r>
       <r>   -4.4925    1.0000 </r>
       <r>   -3.9970    1.0000 </r>
       <r>   -3.9958    1.0000 </r>
       <r>   -3.9819    1.0000 </r>
       <r>   -3.9197    1.0000 </r>
       <r>   -3.9176    1.0000 </r>
       <r>   -3.8108    1.0000 </r>
       <r>   -3.7477    1.0000 </r>
       <r>   -3.7457    1.0000 </r>
       <r>   -3.7375    1.0000 </r>
       <r>   -3.6840    1.0000 </r>
       <r>   -3.6812    1.0000 </r>
       <r>   -3.4768    1.0000 </r>
       <r>   -3.2961    1.0000 </r>
[...]
       <r>   -5.8639    1.0000 </r>
       <r>   -5.8629    1.0000 </r>
       <r>   -5.5892    1.0000 </r>
       <r>   -5.3575    1.0000 </r>
       <r>   -5.1344    1.0000 </r>
       <r>   -5.1317    1.0000 </r>
       <r>   -5.1297    1.0000 </r>
       <r>   -5.1276    1.0000 </r>
       <r>   -5.0678    1.0000 </r>
       <r>   -5.0673    1.0000 </r>
       <r>   -5.0284    1.0000 </r>
       <r>   -4.8517    1.0000 </r>
       <r>   -4.7532    1.0000 </r>
       <r>   -4.7524    1.0000 </r>
       <r>   -4.7226    1.0000 </r>
       <r>   -4.5105    1.0000 </r>
       <r>   -4.5087    1.0000 </r>
       <r>   -4.3620    1.0000 </r>
       <r>   -4.3600    1.0000 </r>
       <r>   -3.9880    1.0000 </r>
       <r>   -3.8553    1.0000 </r>
       <r>   -3.8539    1.0000 </r>
       <r>   -3.8353    1.0000 </r>
       <r>   -3.7711    1.0000 </r>
       <r>   -3.7695    1.0000 </r>
       <r>   -3.6734    1.0000 </r>
       <r>   -3.6633    1.0000 </r>
       <r>   -3.6581    1.0000 </r>
       <r>   -3.5424    1.0000 </r>
       <r>   -3.5387    1.0000 </r>
       <r>   -3.1536    1.0000 </r>
       <r>   -3.0858    1.0000 </r>
       <r>   -3.0815    1.0000 </r>
       <r>   -3.0647    1.0000 </r>
       <r>   -2.8486    1.0000 </r>
       <r>   -2.5829    1.0000 </r>
       <r>   -2.5720    1.0000 </r>
       <r>   -2.5508    1.0000 </r>
       <r>   -2.4056    1.0000 </r>
       <r>   -2.4029    1.0000 </r>
       <r>   -2.3041    1.0000 </r>
       <r>   -2.3024    1.0000 </r>
       <r>   -2.2680    1.0000 </r>
       <r>   -2.2662    1.0000 </r>
       <r>   -0.1540    0.0000 </r>
       <r>   -0.1270    0.0000 </r>
       <r>    0.2879    0.0000 </r>
       <r>    0.2898    0.0000 </r>
       <r>    0.3432    0.0000 </r>
       <r>    0.3441    0.0000 </r>
       <r>    0.4286    0.0000 </r>
       <r>    0.4292    0.0000 </r>
       <r>    0.6599    0.0000 </r>
       <r>    0.6835    0.0000 </r>
       <r>    0.7162    0.0000 </r>
       <r>    0.7675    0.0000 </r>
       <r>    0.7696    0.0000 </r>
       <r>    0.7709    0.0000 </r>
       <r>    0.8495    0.0000 </r>
       <r>    0.9162    0.0000 </r>
       <r>    0.9191    0.0000 </r>
       <r>    1.0076    0.0000 </r>
       <r>    1.0396    0.0000 </r>
       <r>    1.0671    0.0000 </r>
       <r>    1.0793    0.0000 </r>
      </set>
     </set>
    </set>
   </array>
  </eigenvalues>
  <separator name="orbital magnetization" >
   <v name="MAGDIPOLOUT">      0.00000000      0.00000000      0.00000000</v>
  </separator>
  <dos>
   <i name="efermi">     -1.72359631 </i>
   <total>
    <array>
     <dimension dim="1">gridpoints</dimension>
     <dimension dim="2">spin</dimension>
     <field>energy</field>
     <field>total</field>
     <field>integrated</field>
     <set>
      <set comment="spin 1">
       <r>   -17.4500     0.0000     0.0000 </r>
       <r>   -17.3839     0.0000     0.0000 </r>
       <r>   -17.3179     0.0000     0.0000 </r>
       <r>   -17.2519     0.0000     0.0000 </r>
       <r>   -17.1859     0.0000     0.0000 </r>
       <r>   -17.1199     0.0000     0.0000 </r>
       <r>   -17.0539     0.0000     0.0000 </r>
       <r>   -16.9879     0.0000     0.0000 </r>
       <r>   -16.9219     0.0000     0.0000 </r>
       <r>   -16.8559     0.0000     0.0000 </r>
       <r>   -16.7899     0.0000     0.0000 </r>
       <r>   -16.7239     0.0000     0.0000 </r>
       <r>   -16.6579     0.0000     0.0000 </r>
       <r>   -16.5919     0.0000     0.0000 </r>
       <r>   -16.5258     1.5815     0.1044 </r>
       <r>   -16.4598     4.3659     0.3926 </r>
       <r>   -16.3938     4.5863     0.6956 </r>
       <r>   -16.3278     4.1986     0.9731 </r>
       <r>   -16.2618     4.9147     1.2975 </r>
       <r>   -16.1958     4.7253     1.6096 </r>
       <r>   -16.1298     4.7420     1.9232 </r>
       <r>   -16.0638     4.9004     2.2472 </r>
       <r>   -15.9978     4.6441     2.5539 </r>
       <r>   -15.9318     5.2551     2.9009 </r>
       <r>   -15.8658     4.4856     3.1974 </r>
       <r>   -15.7998     4.8040     3.5147 </r>
       <r>   -15.7338     5.3166     3.8667 </r>
       <r>   -15.6677     5.9401     4.2588 </r>
       <r>   -15.6017     5.7997     4.6420 </r>
       <r>   -15.5357     4.9362     4.9680 </r>
       <r>   -15.4697     5.6881     5.3434 </r>
       <r>   -15.4037     6.5712     5.7772 </r>
       <r>   -15.3377     9.6740     6.4162 </r>
       <r>   -15.2717    13.7253     7.3238 </r>
       <r>   -15.2057    15.0170     8.3165 </r>
       <r>   -15.1397    15.8339     9.3619 </r>
       <r>   -15.0737    16.1809    10.4301 </r>
       <r>   -15.0077    15.8387    11.4761 </r>
       <r>   -14.9417    17.4096    12.6257 </r>
       <r>   -14.8757    18.8862    13.8729 </r>
       <r>   -14.8096    20.1858    15.2068 </r>
       <r>   -14.7436    21.3065    16.6134 </r>
       <r>   -14.6776    22.2240    18.0829 </r>
       <r>   -14.6116    26.7348    19.8487 </r>
       <r>   -14.5456    32.2654    21.9795 </r>
       <r>   -14.4796    38.2044    24.5033 </r>
       <r>   -14.4136    31.3107    26.5738 </r>
       <r>   -14.3476    36.8921    29.0107 </r>
       <r>   -14.2816    47.2587    32.1317 </r>
       <r>   -14.2156    31.1155    34.1888 </r>
       <r>   -14.1496    19.8984    35.5048 </r>
       <r>   -14.0836     7.4678    36.0000 </r>
       <r>   -14.0175     0.0000    36.0000 </r>
       <r>   -13.9515     0.0000    36.0000 </r>
       <r>   -13.8855     0.0000    36.0000 </r>
       <r>   -13.8195     0.0000    36.0000 </r>
       <r>   -13.7535     0.0000    36.0000 </r>
       <r>   -13.6875     0.0000    36.0000 </r>
       <r>   -13.6215     0.0000    36.0000 </r>
       <r>   -13.5555     0.0000    36.0000 </r>
       <r>   -13.4895     0.0000    36.0000 </r>
       <r>   -13.4235     0.0000    36.0000 </r>
       <r>   -13.3575     0.0000    36.0000 </r>
       <r>   -13.2915     0.0000    36.0000 </r>
       <r>   -13.2255     0.0000    36.0000 </r>
       <r>   -13.1594     0.0000    36.0000 </r>
       <r>   -13.0934     0.0000    36.0000 </r>
       <r>   -13.0274     0.0000    36.0000 </r>
       <r>   -12.9614     0.0000    36.0000 </r>
       <r>   -12.8954     0.0000    36.0000 </r>
       <r>   -12.8294     0.0000    36.0000 </r>
       <r>   -12.7634     0.0000    36.0000 </r>
       <r>   -12.6974     0.0000    36.0000 </r>
       <r>   -12.6314     0.0000    36.0000 </r>
       <r>   -12.5654     0.0000    36.0000 </r>
       <r>   -12.4994     0.0000    36.0000 </r>
       <r>   -12.4334     0.0000    36.0000 </r>
       <r>   -12.3674     0.0000    36.0000 </r>
       <r>   -12.3013     0.0000    36.0000 </r>
       <r>   -12.2353     0.0000    36.0000 </r>
       <r>   -12.1693     0.0000    36.0000 </r>
       <r>   -12.1033     0.0000    36.0000 </r>
       <r>   -12.0373     0.0000    36.0000 </r>
       <r>   -11.9713     0.0000    36.0000 </r>
       <r>   -11.9053     0.0000    36.0000 </r>
       <r>   -11.8393     0.0000    36.0000 </r>
       <r>   -11.7733     0.0000    36.0000 </r>
       <r>   -11.7073     0.0000    36.0000 </r>
       <r>   -11.6413     0.0000    36.0000 </r>
       <r>   -11.5753     0.0000    36.0000 </r>
       <r>   -11.5093     0.0000    36.0000 </r>
       <r>   -11.4432     0.0000    36.0000 </r>
       <r>   -11.3772     0.0000    36.0000 </r>
       <r>   -11.3112     0.0000    36.0000 </r>
       <r>   -11.2452     0.0000    36.0000 </r>
       <r>   -11.1792     0.0000    36.0000 </r>
       <r>   -11.1132     0.0000    36.0000 </r>
       <r>   -11.0472     0.0000    36.0000 </r>
       <r>   -10.9812     0.0000    36.0000 </r>
       <r>   -10.9152     0.0000    36.0000 </r>
       <r>   -10.8492     0.0000    36.0000 </r>
       <r>   -10.7832     0.0000    36.0000 </r>
       <r>   -10.7172     0.0000    36.0000 </r>
       <r>   -10.6512     0.0000    36.0000 </r>
       <r>   -10.5851     0.0000    36.0000 </r>
       <r>   -10.5191     0.0000    36.0000 </r>
       <r>   -10.4531     0.0000    36.0000 </r>
       <r>   -10.3871     0.0000    36.0000 </r>
       <r>   -10.3211     0.0000    36.0000 </r>
       <r>   -10.2551     0.0000    36.0000 </r>
       <r>   -10.1891     0.0000    36.0000 </r>
       <r>   -10.1231     0.0000    36.0000 </r>
       <r>   -10.0571     0.0000    36.0000 </r>
       <r>    -9.9911     0.0000    36.0000 </r>
       <r>    -9.9251     0.0000    36.0000 </r>
       <r>    -9.8591     0.0000    36.0000 </r>
       <r>    -9.7930     0.0000    36.0000 </r>
       <r>    -9.7270     0.0000    36.0000 </r>
       <r>    -9.6610     0.0000    36.0000 </r>
       <r>    -9.5950     0.0000    36.0000 </r>
       <r>    -9.5290     0.0000    36.0000 </r>
       <r>    -9.4630     0.0000    36.0000 </r>
       <r>    -9.3970     0.0000    36.0000 </r>
       <r>    -9.3310     0.0000    36.0000 </r>
       <r>    -9.2650     0.0000    36.0000 </r>
       <r>    -9.1990     0.0000    36.0000 </r>
       <r>    -9.1330     0.0000    36.0000 </r>
       <r>    -9.0670     0.0000    36.0000 </r>
       <r>    -9.0010     0.0000    36.0000 </r>
       <r>    -8.9349     0.0000    36.0000 </r>
       <r>    -8.8689     0.0000    36.0000 </r>
       <r>    -8.8029     0.0000    36.0000 </r>
       <r>    -8.7369     0.0000    36.0000 </r>
       <r>    -8.6709     0.0000    36.0000 </r>
       <r>    -8.6049     0.0000    36.0000 </r>
       <r>    -8.5389     0.0000    36.0000 </r>
       <r>    -8.4729     0.0000    36.0000 </r>
       <r>    -8.4069     0.0000    36.0000 </r>
       <r>    -8.3409     0.0000    36.0000 </r>
       <r>    -8.2749     0.0000    36.0000 </r>
       <r>    -8.2089     0.0000    36.0000 </r>
       <r>    -8.1429     0.4409    36.0291 </r>
       <r>    -8.0768     6.6425    36.4676 </r>
       <r>    -8.0108     7.8349    36.9848 </r>
       <r>    -7.9448    10.4502    37.6753 </r>
       <r>    -7.8788    10.8964    38.3956 </r>
       <r>    -7.8128    11.3157    39.1437 </r>
       <r>    -7.7468    10.4482    39.8345 </r>
       <r>    -7.6808    12.5579    40.6636 </r>
       <r>    -7.6148    12.9735    41.5214 </r>
       <r>    -7.5488    13.6522    42.4239 </r>
       <r>    -7.4828    12.8751    43.2752 </r>
       <r>    -7.4168    12.6487    44.1104 </r>
       <r>    -7.3508    17.3384    45.2551 </r>
       <r>    -7.2848    22.1467    46.7175 </r>
       <r>    -7.2187    18.5283    47.9419 </r>
       <r>    -7.1527    16.2804    49.0182 </r>
       <r>    -7.0867    22.6794    50.5172 </r>
       <r>    -7.0207    25.9134    52.2290 </r>
       <r>    -6.9547    31.1888    54.2888 </r>
       <r>    -6.8887    39.2386    56.8814 </r>
       <r>    -6.8227    23.9996    58.4679 </r>
       <r>    -6.7567    19.5346    59.7590 </r>
       <r>    -6.6907    11.2640    60.5031 </r>
       <r>    -6.6247     8.9348    61.0930 </r>
       <r>    -6.5587     9.1077    61.6953 </r>
       <r>    -6.4927     5.8850    62.0857 </r>
       <r>    -6.4267     6.4284    62.5100 </r>
       <r>    -6.3606     6.6616    62.9497 </r>
       <r>    -6.2946     7.6977    63.4579 </r>
       <r>    -6.2286    31.5220    65.5386 </r>
       <r>    -6.1626    23.3514    67.0822 </r>
       <r>    -6.0966    23.5223    68.6357 </r>
       <r>    -6.0306    25.4285    70.3155 </r>
       <r>    -5.9646    39.8019    72.9444 </r>
       <r>    -5.8986    41.8968    75.7118 </r>
       <r>    -5.8326    37.2534    78.1725 </r>
       <r>    -5.7666    34.3883    80.4441 </r>
       <r>    -5.7006     9.9086    81.0989 </r>
       <r>    -5.6346     7.4753    81.5933 </r>
       <r>    -5.5686     6.3215    82.0114 </r>
       <r>    -5.5025     7.5780    82.5121 </r>
       <r>    -5.4365    12.7496    83.3541 </r>
       <r>    -5.3705    11.2597    84.0982 </r>
       <r>    -5.3045     9.1290    84.7019 </r>
       <r>    -5.2385    14.1436    85.6359 </r>
       <r>    -5.1725    32.2059    87.7629 </r>
       <r>    -5.1065    44.5622    90.7048 </r>
       <r>    -5.0405    28.1858    92.5674 </r>
       <r>    -4.9745    22.3754    94.0458 </r>
       <r>    -4.9085    24.2189    95.6466 </r>
       <r>    -4.8425    20.6593    97.0118 </r>
       <r>    -4.7765    20.4878    98.3658 </r>
       <r>    -4.7104    28.1381   100.2241 </r>
       <r>    -4.6444    23.0985   101.7502 </r>
       <r>    -4.5784    18.1729   102.9509 </r>
       <r>    -4.5124    18.5715   104.1774 </r>
       <r>    -4.4464    14.9429   105.1642 </r>
       <r>    -4.3804    12.0670   105.9619 </r>
       <r>    -4.3144    16.1362   107.0282 </r>
       <r>    -4.2484    12.8573   107.8777 </r>
       <r>    -4.1824    10.8790   108.5965 </r>
       <r>    -4.1164    22.1245   110.0584 </r>
       <r>    -4.0504    17.6771   111.2263 </r>
       <r>    -3.9844    30.2909   113.2262 </r>
       <r>    -3.9184    53.0530   116.7298 </r>
       <r>    -3.8523    33.4348   118.9403 </r>
       <r>    -3.7863    36.6657   121.3613 </r>
       <r>    -3.7203    28.5431   123.2465 </r>
       <r>    -3.6543    28.2126   125.1116 </r>
       <r>    -3.5883    32.5001   127.2597 </r>
       <r>    -3.5223    32.1298   129.3832 </r>
       <r>    -3.4563    27.8706   131.2250 </r>
       <r>    -3.3903    23.4025   132.7716 </r>
       <r>    -3.3243    21.7781   134.2119 </r>
       <r>    -3.2583    24.1434   135.8056 </r>
       <r>    -3.1923    16.7214   136.9118 </r>
       <r>    -3.1263    19.6437   138.2092 </r>
       <r>    -3.0603    21.3676   139.6199 </r>
       <r>    -2.9942    19.3137   140.8968 </r>
       <r>    -2.9282    19.4361   142.1800 </r>
       <r>    -2.8622    30.0995   144.1674 </r>
       <r>    -2.7962     9.0796   144.7685 </r>
       <r>    -2.7302    10.5499   145.4660 </r>
       <r>    -2.6642    15.5909   146.4956 </r>
       <r>    -2.5982    26.3237   148.2344 </r>
       <r>    -2.5322    34.4980   150.5124 </r>
       <r>    -2.4662    29.5769   152.4658 </r>
       <r>    -2.4002    27.8167   154.3030 </r>
       <r>    -2.3342    26.9284   156.0822 </r>
       <r>    -2.2682    24.6117   157.7078 </r>
       <r>    -2.2022    23.4025   159.2539 </r>
       <r>    -2.1361    11.2874   160.0001 </r>
       <r>    -2.0701     8.6979   160.5751 </r>
       <r>    -2.0041     6.7125   161.0191 </r>
       <r>    -1.9381     5.2346   161.3650 </r>
       <r>    -1.8721     4.3755   161.6539 </r>
       <r>    -1.8061     3.7483   161.9014 </r>
       <r>    -1.7401     1.4942   162.0000 </r>
       <r>    -1.6741     0.0000   162.0000 </r>
       <r>    -1.6081     0.0000   162.0000 </r>
       <r>    -1.5421     0.0000   162.0000 </r>
       <r>    -1.4761     0.0000   162.0000 </r>
       <r>    -1.4101     0.0000   162.0000 </r>
       <r>    -1.3441     0.0000   162.0000 </r>
       <r>    -1.2780     0.0000   162.0000 </r>
       <r>    -1.2120     0.0000   162.0000 </r>
       <r>    -1.1460     0.0000   162.0000 </r>
       <r>    -1.0800     0.0000   162.0000 </r>
       <r>    -1.0140     0.0000   162.0000 </r>
       <r>    -0.9480     0.0000   162.0000 </r>
       <r>    -0.8820     0.0000   162.0000 </r>
       <r>    -0.8160     0.0000   162.0000 </r>
       <r>    -0.7500     0.0000   162.0000 </r>
       <r>    -0.6840     0.0000   162.0000 </r>
       <r>    -0.6180     0.0000   162.0000 </r>
       <r>    -0.5520     0.0000   162.0000 </r>
       <r>    -0.4860     0.0000   162.0000 </r>
       <r>    -0.4199     0.0000   162.0000 </r>
       <r>    -0.3539     0.0000   162.0000 </r>
       <r>    -0.2879     0.0000   162.0000 </r>
       <r>    -0.2219     0.0000   162.0000 </r>
       <r>    -0.1559     0.4145   162.0274 </r>
       <r>    -0.0899    12.6956   162.8654 </r>
       <r>    -0.0239    17.5821   164.0275 </r>
       <r>     0.0421    20.6791   165.3949 </r>
       <r>     0.1081    30.1743   167.3885 </r>
       <r>     0.1741    26.3800   169.1302 </r>
       <r>     0.2401    23.1856   170.6630 </r>
       <r>     0.3061    26.5035   172.4132 </r>
       <r>     0.3722    21.6101   173.8425 </r>
       <r>     0.4382    19.5405   175.1346 </r>
       <r>     0.5042    15.5798   176.1638 </r>
       <r>     0.5702    21.8302   177.6054 </r>
       <r>     0.6362    37.9549   180.1141 </r>
       <r>     0.7022    62.2994   184.2282 </r>
       <r>     0.7682    46.0478   187.2711 </r>
       <r>     0.8342    43.3463   190.1360 </r>
       <r>     0.9002    37.4270   192.6097 </r>
       <r>     0.9662    39.1645   195.1967 </r>
       <r>     1.0322    47.4537   198.3312 </r>
       <r>     1.0982    35.8496   200.7005 </r>
       <r>     1.1642    25.6979   202.3983 </r>
       <r>     1.2303    13.4511   203.2866 </r>
       <r>     1.2963     6.5584   203.7195 </r>
       <r>     1.3623     3.2366   203.9344 </r>
       <r>     1.4283     0.9227   203.9955 </r>
       <r>     1.4943     0.0687   204.0000 </r>
       <r>     1.5603     0.0000   204.0000 </r>
       <r>     1.6263     0.0000   204.0000 </r>
       <r>     1.6923     0.0000   204.0000 </r>
       <r>     1.7583     0.0000   204.0000 </r>
       <r>     1.8243     0.0000   204.0000 </r>
       <r>     1.8903     0.0000   204.0000 </r>
       <r>     1.9563     0.0000   204.0000 </r>
       <r>     2.0223     0.0000   204.0000 </r>
       <r>     2.0884     0.0000   204.0000 </r>
       <r>     2.1544     0.0000   204.0000 </r>
       <r>     2.2204     0.0000   204.0000 </r>
       <r>     2.2864     0.0000   204.0000 </r>
       <r>     2.3524     0.0000   204.0000 </r>
      </set>
     </set>
    </array>
   </total>
  </dos>
 </calculation>
 <structure name="finalpos" >
  <crystal>
   <varray name="basis" >
    <v>       9.84600000       0.00000000       0.00000000 </v>
    <v>       4.92300000       8.52144000       0.00000000 </v>
    <v>       0.00000000       0.00000000      20.00000000 </v>
   </varray>
   <i name="volume">   1678.04196480 </i>
   <varray name="rec_basis" >
    <v>       0.10156409      -0.05867553       0.00000000 </v>
    <v>       0.00000000       0.11735106       0.00000000 </v>
    <v>       0.00000000       0.00000000       0.05000000 </v>
   </varray>
  </crystal>
  <varray name="positions" >
   <v>       0.33330000       0.00006700       0.00000000 </v>
   <v>       0.66663300       0.00006700       0.00000000 </v>
   <v>       0.99996700       0.00006700       0.00000000 </v>
   <v>       0.33330000       0.33340000       0.00000000 </v>
   <v>       0.66663300       0.33340000       0.00000000 </v>
   <v>       0.99996700       0.33340000       0.00000000 </v>
   <v>       0.33330000       0.66673300       0.00000000 </v>
   <v>       0.66663300       0.66673300       0.00000000 </v>
   <v>       0.99996700       0.66673300       0.00000000 </v>
   <v>       0.11109200       0.11114900       0.91595900 </v>
   <v>       0.44442600       0.11114900       0.91545900 </v>
   <v>       0.77775900       0.11114900       0.91545900 </v>
   <v>       0.11109200       0.44448200       0.91545900 </v>
   <v>       0.44442600       0.44448200       0.91545900 </v>
   <v>       0.77775900       0.44448200       0.91545900 </v>
   <v>       0.11109200       0.77781500       0.91545900 </v>
   <v>       0.44442600       0.77781500       0.91545900 </v>
   <v>       0.77775900       0.77781500       0.91545900 </v>
   <v>       0.11109200       0.11114900       0.08454100 </v>
   <v>       0.44442600       0.11114900       0.08454100 </v>
   <v>       0.77775900       0.11114900       0.08454100 </v>
   <v>       0.11109200       0.44448200       0.08454100 </v>
   <v>       0.44442600       0.44448200       0.08454100 </v>
   <v>       0.77775900       0.44448200       0.08454100 </v>
   <v>       0.11109200       0.77781500       0.08454100 </v>
   <v>       0.44442600       0.77781500       0.08454100 </v>
   <v>       0.77775900       0.77781500       0.08454100 </v>
  </varray>
 </structure>
</modeling>
