   4   4   0   0
  0.2619380E+02  0.2459512E-09  0.2459512E-09  0.2000000E-08  0.5000000E-15
  1.000000000000000E-004
  CAR 
 C-4                                     
     11.75060979    -22.34463235  301     -1.21978858      1.00000000
    -22.345  0.0000E+00  0.0000E+00
    -22.231  0.0000E+00  0.0000E+00
    -22.117  0.0000E+00  0.0000E+00
    -22.004  0.0000E+00  0.0000E+00
    -21.890  0.0000E+00  0.0000E+00
    -21.776  0.0000E+00  0.0000E+00
    -21.663  0.0000E+00  0.0000E+00
    -21.549  0.0000E+00  0.0000E+00
    -21.435  0.0000E+00  0.0000E+00
    -21.322  0.0000E+00  0.0000E+00
    -21.208  0.0000E+00  0.0000E+00
    -21.094  0.0000E+00  0.0000E+00
    -20.981  0.0000E+00  0.0000E+00
    -20.867  0.0000E+00  0.0000E+00
    -20.754  0.1113E-02  0.1265E-03
    -20.640  0.5500E-03  0.8562E-03
    -20.526  0.5986E-02  0.2154E-02
    -20.413  0.6086E-02  0.2846E-02
    -20.299  0.4534E-02  0.4030E-02
    -20.185  0.1420E-08  0.4195E-02
    -20.072  0.1783E-01  0.6222E-02
    -19.958  0.4258E-05  0.6236E-02
    -19.844  0.0000E+00  0.6916E-02
    -19.731  0.1197E-01  0.8277E-02
    -19.617  0.1197E-01  0.9637E-02
    -19.503  0.2200E-12  0.9637E-02
    -19.390  0.5986E-02  0.1032E-01
    -19.276  0.1775E-01  0.1233E-01
    -19.162  0.6141E-05  0.1236E-01
    -19.049  0.0000E+00  0.1372E-01
    -18.935  0.3323E-18  0.1372E-01
    -18.821  0.1129E-01  0.1500E-01
    -18.708  0.9474E-02  0.1684E-01
    -18.594  0.0000E+00  0.1712E-01
    -18.481  0.1196E-01  0.1848E-01
    -18.367  0.0000E+00  0.1848E-01
    -18.253  0.1217E-02  0.1862E-01
    -18.140  0.1796E-01  0.2120E-01
    -18.026  0.1100E-01  0.2245E-01
    -17.912  0.0000E+00  0.2256E-01
    -17.799  0.1089E-03  0.2257E-01
    -17.685  0.0000E+00  0.2392E-01
    -17.571  0.8396E-02  0.2488E-01
    -17.458  0.1160E-01  0.2660E-01
    -17.344  0.2993E-02  0.2732E-01
    -17.230  0.1197E-01  0.2868E-01
    -17.117  0.0000E+00  0.2868E-01
    -17.003  0.1239E-07  0.2868E-01
    -16.889  0.6001E-02  0.3005E-01
    -16.776  0.1197E-01  0.3209E-01
    -16.662  0.9037E-02  0.3311E-01
    -16.548  0.5973E-02  0.3413E-01
    -16.435  0.1112E-02  0.3425E-01
    -16.321  0.0000E+00  0.3549E-01
    -16.207  0.0000E+00  0.3549E-01
    -16.094  0.8280E-02  0.3643E-01
    -15.980  0.9223E-02  0.3926E-01
    -15.867  0.1638E-15  0.3957E-01
    -15.753  0.1197E-01  0.4093E-01
    -15.639  0.5322E-14  0.4161E-01
    -15.526  0.1197E-01  0.4297E-01
    -15.412  0.5986E-02  0.4365E-01
    -15.298  0.3606E-04  0.4365E-01
    -15.185  0.1799E-01  0.4638E-01
    -15.071  0.0000E+00  0.4773E-01
    -14.957  0.0000E+00  0.4773E-01
    -14.844  0.0000E+00  0.4773E-01
    -14.730  0.0000E+00  0.4773E-01
    -14.616  0.5986E-02  0.4841E-01
    -14.503  0.2674E-03  0.4844E-01
    -14.389  0.5986E-02  0.5045E-01
    -14.275  0.1018E-03  0.5047E-01
    -14.162  0.5985E-02  0.5181E-01
    -14.048  0.5986E-02  0.5317E-01
    -13.934  0.0000E+00  0.5317E-01
    -13.821  0.3235E-02  0.5354E-01
    -13.707  0.2993E-01  0.5703E-01
    -13.594  0.0000E+00  0.5703E-01
    -13.480  0.1197E-01  0.5839E-01
    -13.366  0.1197E-01  0.5975E-01
    -13.253  0.3737E-02  0.6018E-01
    -13.139  0.3971E-02  0.6088E-01
    -13.025  0.0000E+00  0.6315E-01
    -12.912  0.0000E+00  0.6315E-01
    -12.798  0.1191E-01  0.6451E-01
    -12.684  0.5987E-02  0.6519E-01
    -12.571  0.0000E+00  0.6655E-01
    -12.457  0.7664E-03  0.6664E-01
    -12.343  0.0000E+00  0.6791E-01
    -12.230  0.1188E-03  0.6793E-01
    -12.116  0.3073E-05  0.6927E-01
    -12.002  0.1035E-02  0.7007E-01
    -11.889  0.0000E+00  0.7132E-01
    -11.775  0.4447E-02  0.7182E-01
    -11.661  0.0000E+00  0.7290E-01
    -11.548  0.0000E+00  0.7290E-01
    -11.434  0.2394E-01  0.7562E-01
    -11.321  0.6568E-02  0.7637E-01
    -11.207  0.0000E+00  0.7766E-01
    -11.093  0.5985E-02  0.7834E-01
    -10.980  0.0000E+00  0.7834E-01
    -10.866  0.1745E-02  0.7854E-01
    -10.752  0.1926E-01  0.8121E-01
    -10.639  0.1197E-01  0.8379E-01
    -10.525  0.0000E+00  0.8379E-01
    -10.411  0.3217E-02  0.8415E-01
    -10.298  0.0000E+00  0.8515E-01
    -10.184  0.1199E-01  0.8651E-01
    -10.070  0.0000E+00  0.8787E-01
     -9.957  0.0000E+00  0.8787E-01
     -9.843  0.1843E-01  0.8996E-01
     -9.729  0.1197E-01  0.9195E-01
     -9.616  0.4773E-04  0.9196E-01
     -9.502  0.1215E-01  0.9401E-01
     -9.388  0.0000E+00  0.9535E-01
     -9.275  0.0000E+00  0.9535E-01
     -9.161  0.0000E+00  0.9535E-01
     -9.047  0.2138E-01  0.9778E-01
     -8.934  0.2444E-01  0.1015E+00
     -8.820  0.5982E-02  0.1026E+00
     -8.707  0.8628E-02  0.1043E+00
     -8.593  0.2445E-02  0.1046E+00
     -8.479  0.2095E-01  0.1070E+00
     -8.366  0.2095E-01  0.1094E+00
     -8.252  0.1197E-01  0.1121E+00
     -8.138  0.2136E-01  0.1146E+00
     -8.025  0.4978E-02  0.1171E+00
     -7.911  0.2095E-01  0.1196E+00
     -7.797  0.5990E-02  0.1203E+00
     -7.684  0.1797E-01  0.1240E+00
     -7.570  0.3965E-01  0.1299E+00
     -7.456  0.1126E-01  0.1314E+00
     -7.343  0.1185E-01  0.1329E+00
     -7.229  0.2687E-01  0.1370E+00
     -7.115  0.2738E-02  0.1383E+00
     -7.002  0.1661E-01  0.1409E+00
     -6.888  0.5675E-02  0.1430E+00
     -6.774  0.5986E-02  0.1438E+00
     -6.661  0.1506E-01  0.1455E+00
     -6.547  0.2934E-01  0.1495E+00
     -6.434  0.5986E-02  0.1512E+00
     -6.320  0.1197E-01  0.1526E+00
     -6.206  0.9222E-12  0.1533E+00
     -6.093  0.2394E-01  0.1560E+00
     -5.979  0.2034E-01  0.1583E+00
     -5.865  0.5986E-02  0.1594E+00
     -5.752  0.1464E-01  0.1614E+00
     -5.638  0.3319E-02  0.1618E+00
     -5.524  0.1679E-01  0.1654E+00
     -5.411  0.5986E-02  0.1669E+00
     -5.297  0.5986E-02  0.1676E+00
     -5.183  0.5986E-02  0.1683E+00
     -5.070  0.2666E-01  0.1713E+00
     -4.956  0.2097E-01  0.1737E+00
     -4.842  0.5985E-02  0.1751E+00
     -4.729  0.5986E-02  0.1757E+00
     -4.615  0.1198E-01  0.1771E+00
     -4.501  0.5984E-02  0.1785E+00
     -4.388  0.1495E-01  0.1802E+00
     -4.274  0.1534E-01  0.1826E+00
     -4.161  0.7984E-02  0.1840E+00
     -4.047  0.5986E-02  0.1848E+00
     -3.933  0.6539E-02  0.1856E+00
     -3.820  0.3864E-03  0.1862E+00
     -3.706  0.2992E-02  0.1872E+00
     -3.592  0.1157E-01  0.1885E+00
     -3.479  0.2076E-01  0.1916E+00
     -3.365  0.1197E-01  0.1937E+00
     -3.251  0.1994E-15  0.1937E+00
     -3.138  0.2993E-02  0.1940E+00
     -3.024  0.2993E-02  0.1943E+00
     -2.910  0.5986E-02  0.1950E+00
     -2.797  0.1215E-01  0.1964E+00
     -2.683  0.6302E-02  0.1974E+00
     -2.569  0.0000E+00  0.1977E+00
     -2.456  0.1048E-09  0.1977E+00
     -2.342  0.2994E-02  0.1981E+00
     -2.228  0.0000E+00  0.1984E+00
     -2.115  0.0000E+00  0.1984E+00
     -2.001  0.5986E-02  0.1991E+00
     -1.887  0.5986E-02  0.1998E+00
     -1.774  0.0000E+00  0.1998E+00
     -1.660  0.0000E+00  0.1998E+00
     -1.547  0.0000E+00  0.1998E+00
     -1.433  0.0000E+00  0.1998E+00
     -1.319  0.4430E-18  0.1998E+00
     -1.206  0.1995E-02  0.2000E+00
     -1.092  0.1995E-02  0.2002E+00
     -0.978  0.0000E+00  0.2002E+00
     -0.865  0.0000E+00  0.2002E+00
     -0.751  0.0000E+00  0.2002E+00
     -0.637  0.0000E+00  0.2002E+00
     -0.524  0.2189E-04  0.2002E+00
     -0.410  0.3238E-02  0.2013E+00
     -0.296  0.0000E+00  0.2016E+00
     -0.183  0.2993E-02  0.2019E+00
     -0.069  0.2993E-02  0.2023E+00
      0.045  0.0000E+00  0.2023E+00
      0.158  0.2856E-08  0.2023E+00
      0.272  0.1796E-01  0.2043E+00
      0.386  0.1850E-01  0.2064E+00
      0.499  0.8505E-02  0.2077E+00
      0.613  0.8685E-02  0.2087E+00
      0.726  0.8978E-02  0.2098E+00
      0.840  0.1197E-01  0.2111E+00
      0.954  0.1142E-01  0.2124E+00
      1.067  0.5987E-02  0.2132E+00
      1.181  0.4719E-02  0.2144E+00
      1.295  0.2993E-02  0.2155E+00
      1.408  0.2952E-02  0.2165E+00
      1.522  0.0000E+00  0.2166E+00
      1.636  0.5985E-02  0.2172E+00
      1.749  0.6075E-02  0.2179E+00
      1.863  0.7091E-10  0.2186E+00
      1.977  0.1247E-01  0.2200E+00
      2.090  0.8978E-02  0.2214E+00
      2.204  0.6026E-02  0.2221E+00
      2.318  0.5978E-02  0.2231E+00
      2.431  0.1046E-01  0.2243E+00
      2.545  0.3504E-02  0.2252E+00
      2.659  0.2993E-02  0.2259E+00
      2.772  0.9149E-02  0.2269E+00
      2.886  0.1193E-01  0.2289E+00
      2.999  0.7698E-02  0.2298E+00
      3.113  0.1421E-01  0.2326E+00
      3.227  0.5986E-02  0.2334E+00
      3.340  0.8440E-02  0.2343E+00
      3.454  0.1428E-01  0.2364E+00
      3.568  0.5985E-02  0.2371E+00
      3.681  0.1792E-01  0.2392E+00
      3.795  0.8919E-02  0.2402E+00
      3.909  0.8978E-02  0.2412E+00
      4.022  0.1981E-01  0.2435E+00
      4.136  0.1197E-01  0.2457E+00
      4.250  0.2993E-02  0.2471E+00
      4.363  0.1496E-01  0.2488E+00
      4.477  0.2939E-02  0.2498E+00
      4.591  0.1073E-01  0.2524E+00
      4.704  0.8980E-02  0.2539E+00
      4.818  0.7319E-02  0.2554E+00
      4.932  0.1123E-01  0.2572E+00
      5.045  0.1197E-01  0.2593E+00
      5.159  0.2083E-01  0.2617E+00
      5.273  0.7986E-02  0.2629E+00
      5.386  0.2024E-01  0.2653E+00
      5.500  0.1025E-01  0.2666E+00
      5.613  0.2578E-07  0.2671E+00
      5.727  0.1197E-01  0.2692E+00
      5.841  0.0000E+00  0.2695E+00
      5.954  0.8599E-02  0.2705E+00
      6.068  0.1352E-01  0.2724E+00
      6.182  0.2990E-17  0.2726E+00
      6.295  0.1545E-01  0.2743E+00
      6.409  0.1961E-02  0.2758E+00
      6.523  0.2194E-01  0.2785E+00
      6.636  0.1796E-01  0.2807E+00
      6.750  0.5986E-02  0.2814E+00
      6.864  0.1607E-11  0.2814E+00
      6.977  0.5986E-02  0.2821E+00
      7.091  0.5986E-02  0.2828E+00
      7.205  0.1419E-01  0.2844E+00
      7.318  0.1496E-01  0.2865E+00
      7.432  0.5986E-02  0.2872E+00
      7.546  0.6345E-03  0.2873E+00
      7.659  0.0000E+00  0.2879E+00
      7.773  0.0000E+00  0.2879E+00
      7.886  0.2568E-02  0.2882E+00
      8.000  0.5986E-02  0.2889E+00
      8.114  0.4224E-12  0.2889E+00
      8.227  0.1801E-01  0.2909E+00
      8.341  0.3493E-06  0.2916E+00
      8.455  0.2824E-16  0.2923E+00
      8.568  0.5986E-02  0.2930E+00
      8.682  0.0000E+00  0.2930E+00
      8.796  0.0000E+00  0.2930E+00
      8.909  0.2930E-04  0.2930E+00
      9.023  0.9411E-03  0.2938E+00
      9.137  0.1251E-01  0.2952E+00
      9.250  0.1120E-10  0.2955E+00
      9.364  0.5986E-02  0.2961E+00
      9.478  0.7292E-02  0.2977E+00
      9.591  0.1132E-04  0.2978E+00
      9.705  0.5819E-02  0.2988E+00
      9.819  0.6628E-10  0.2989E+00
      9.932  0.1185E-02  0.2990E+00
     10.046  0.0000E+00  0.2997E+00
     10.159  0.7599E-11  0.2997E+00
     10.273  0.2993E-02  0.3000E+00
     10.387  0.0000E+00  0.3000E+00
     10.500  0.0000E+00  0.3000E+00
     10.614  0.0000E+00  0.3000E+00
     10.728  0.0000E+00  0.3000E+00
     10.841  0.0000E+00  0.3000E+00
     10.955  0.0000E+00  0.3000E+00
     11.069  0.0000E+00  0.3000E+00
     11.182  0.0000E+00  0.3000E+00
     11.296  0.0000E+00  0.3000E+00
     11.410  0.0000E+00  0.3000E+00
     11.523  0.0000E+00  0.3000E+00
     11.637  0.0000E+00  0.3000E+00
     11.751  0.0000E+00  0.3000E+00
