    4    4   80    1
  0.2619380E+02  0.2459512E-09  0.2459512E-09  0.2000000E-08  0.5000000E-15
  1.000000000000000E-004
  CAR 
 C-4                                     
     16     48     12
 
  0.3742002E-15  0.3742002E-15  0.1262379E-14  0.2267574E-02
    1      -20.794849   1.000000
    2      -20.783101   1.000000
    3       -8.973248   1.000000
    4       -8.791489   1.000000
    5       -4.242147   1.000000
    6       -4.242089   1.000000
    7       -4.241678   1.000000
    8       -4.241620   1.000000
    9        1.931236   0.000000
   10        2.490437   0.000000
   11        3.113964   0.000000
   12        4.001042   0.000000
 
  0.4761905E-01  0.3771171E-15  0.1262379E-14  0.1360544E-01
    1      -20.740990   1.000000
    2      -20.729290   1.000000
    3       -8.908572   1.000000
    4       -8.727337   1.000000
    5       -4.463086   1.000000
    6       -4.462440   1.000000
    7       -4.359018   1.000000
    8       -4.358476   1.000000
    9        2.003307   0.000000
   10        2.563647   0.000000
   11        3.187310   0.000000
   12        4.073401   0.000000
 
  0.9523810E-01  0.3768972E-15  0.1262379E-14  0.1360544E-01
    1      -20.579590   1.000000
    2      -20.568038   1.000000
    3       -8.715012   1.000000
    4       -8.535388   1.000000
    5       -5.083157   1.000000
    6       -5.082119   1.000000
    7       -4.678873   1.000000
    8       -4.678200   1.000000
    9        2.219582   0.000000
   10        2.783233   0.000000
   11        3.407274   0.000000
   12        4.290280   0.000000
 
  0.1428571E+00  0.3593300E-15  0.1262379E-14  0.1360544E-01
    1      -20.311214   1.000000
    2      -20.299913   1.000000
    3       -8.394289   1.000000
    4       -8.217364   1.000000
    5       -6.002807   1.000000
    6       -6.001245   1.000000
    7       -5.130562   1.000000
    8       -5.129779   1.000000
    9        2.580025   0.000000
   10        3.148904   0.000000
   11        3.773458   0.000000
   12        4.650830   0.000000
 
  0.1904762E+00  0.3695184E-15  0.1262379E-14  0.1360544E-01
    1      -19.936861   1.000000
    2      -19.925921   1.000000
    3       -7.949460   1.000000
    4       -7.776487   1.000000
    5       -7.115691   1.000000
    6       -7.113612   1.000000
    7       -5.639364   1.000000
    8       -5.638494   1.000000
    9        3.084147   0.000000
   10        3.659745   0.000000
   11        4.284488   0.000000
   12        5.151988   0.000000
 
  0.2380952E+00  0.1267399E-14  0.1262379E-14  0.1360544E-01
    1      -19.458048   1.000000
    2      -19.447552   1.000000
    3       -8.335645   1.000000
    4       -8.332943   1.000000
    5       -7.385800   1.000000
    6       -7.218164   1.000000
    7       -6.146406   1.000000
    8       -6.145458   1.000000
    9        3.730779   0.000000
   10        4.312416   0.000000
   11        4.932962   0.000000
   12        5.759024   0.000000
 
  0.2857143E+00  0.3625559E-15  0.1262379E-14  0.1360544E-01
    1      -18.877037   1.000000
    2      -18.867066   1.000000
    3       -9.599922   1.000000
    4       -9.596545   1.000000
    5       -6.712325   1.000000
    6       -6.610814   1.000000
    7       -6.609791   1.000000
    8       -6.551710   1.000000
    9        4.515696   0.000000
   10        4.974378   0.000000
   11        4.981422   0.000000
   12        5.269436   0.000000
 
  0.3333333E+00  0.3588666E-15  0.1262379E-14  0.1360544E-01
    1      -18.197310   1.000000
    2      -18.187919   1.000000
    3      -10.863911   1.000000
    4      -10.859791   1.000000
    5       -7.005737   1.000000
    6       -7.004680   1.000000
    7       -5.945392   1.000000
    8       -5.793944   1.000000
    9        3.665316   0.000000
   10        3.780363   0.000000
   11        5.440270   0.000000
   12        6.065305   0.000000
 
  0.3809524E+00  0.3551772E-15  0.1262379E-14  0.1360544E-01
    1      -17.424995   1.000000
    2      -17.416244   1.000000
    3      -12.094105   1.000000
    4      -12.089257   1.000000
    5       -7.313922   1.000000
    6       -7.312826   1.000000
    7       -5.118509   1.000000
    8       -4.979046   1.000000
    9        2.375166   0.000000
   10        2.507175   0.000000
   11        6.310468   0.000000
   12        6.406195   0.000000
 
  0.4285714E+00  0.3810475E-15  0.1262379E-14  0.1360544E-01
    1      -16.575224   1.000000
    2      -16.567142   1.000000
    3      -13.257770   1.000000
    4      -13.252206   1.000000
    5       -7.524560   1.000000
    6       -7.523440   1.000000
    7       -4.311323   1.000000
    8       -4.187487   1.000000
    9        1.241155   0.000000
   10        1.392785   0.000000
   11        6.287434   0.000000
   12        6.308974   0.000000
 
  0.4761905E+00  0.3496025E-15  0.1262379E-14  0.1360544E-01
    1      -15.730160   1.000000
    2      -15.722637   1.000000
    3      -14.262221   1.000000
    4      -14.256070   1.000000
    5       -7.631315   1.000000
    6       -7.630191   1.000000
    7       -3.730672   1.000000
    8       -3.622793   1.000000
    9        0.492091   0.000000
   10        0.661981   0.000000
   11        6.237855   0.000000
   12        6.255885   0.000000
 
  0.9523810E-01  0.4761905E-01  0.1262379E-14  0.1360544E-01
    1      -20.633359   1.000000
    2      -20.621758   1.000000
    3       -8.779458   1.000000
    4       -8.599279   1.000000
    5       -4.868202   1.000000
    6       -4.867294   1.000000
    7       -4.592880   1.000000
    8       -4.592249   1.000000
    9        2.147498   0.000000
   10        2.710056   0.000000
   11        3.333975   0.000000
   12        4.218031   0.000000
 
  0.1428571E+00  0.4761905E-01  0.1262379E-14  0.2721088E-01
    1      -20.418475   1.000000
    2      -20.407073   1.000000
    3       -8.522273   1.000000
    4       -8.344266   1.000000
    5       -5.605232   1.000000
    6       -5.603936   1.000000
    7       -5.012043   1.000000
    8       -5.011218   1.000000
    9        2.435960   0.000000
   10        3.002750   0.000000
   11        3.627125   0.000000
   12        4.506862   0.000000
 
  0.1904762E+00  0.4761905E-01  0.1262379E-14  0.2721088E-01
    1      -20.097114   1.000000
    2      -20.086019   1.000000
    3       -8.139369   1.000000
    4       -7.964702   1.000000
    5       -6.591565   1.000000
    6       -6.589757   1.000000
    7       -5.523052   1.000000
    8       -5.522067   1.000000
    9        2.868450   0.000000
   10        3.441215   0.000000
   11        4.066039   0.000000
   12        4.938453   0.000000
 
  0.2380952E+00  0.4761905E-01  0.1262379E-14  0.2721088E-01
    1      -19.670532   1.000000
    2      -19.659841   1.000000
    3       -7.736666   1.000000
    4       -7.734290   1.000000
    5       -7.634776   1.000000
    6       -7.464731   1.000000
    7       -6.052957   1.000000
    8       -6.051871   1.000000
    9        3.444178   0.000000
   10        4.023885   0.000000
   11        4.648049   0.000000
   12        5.505471   0.000000
 
  0.2857143E+00  0.4761905E-01  0.1262379E-14  0.2721088E-01
    1      -19.140606   1.000000
    2      -19.130405   1.000000
    3       -8.964937   1.000000
    4       -8.961933   1.000000
    5       -7.015355   1.000000
    6       -6.851446   1.000000
    7       -6.552864   1.000000
    8       -6.551704   1.000000
    9        4.161388   0.000000
   10        4.740670   0.000000
   11        5.317970   0.000000
   12        5.669091   0.000000
 
  0.3333333E+00  0.4761905E-01  0.1262379E-14  0.2721088E-01
    1      -18.510162   1.000000
    2      -18.500514   1.000000
    3      -10.220495   1.000000
    4      -10.216780   1.000000
    5       -6.991233   1.000000
    6       -6.990011   1.000000
    7       -6.292990   1.000000
    8       -6.137091   1.000000
    9        4.294607   0.000000
   10        4.396608   0.000000
   11        5.020361   0.000000
   12        5.644928   0.000000
 
  0.3809524E+00  0.4761905E-01  0.1262379E-14  0.2721088E-01
    1      -17.783746   1.000000
    2      -17.774699   1.000000
    3      -11.462703   1.000000
    4      -11.458242   1.000000
    5       -7.347931   1.000000
    6       -7.346653   1.000000
    7       -5.490490   1.000000
    8       -5.345047   1.000000
    9        2.986899   0.000000
   10        3.105913   0.000000
   11        6.000643   0.000000
   12        6.591611   0.000000
 
  0.4285714E+00  0.4761905E-01  0.1262379E-14  0.2721088E-01
    1      -16.970485   1.000000
    2      -16.962107   1.000000
    3      -12.658722   1.000000
    4      -12.653554   1.000000
    5       -7.610223   1.000000
    6       -7.608938   1.000000
    7       -4.658076   1.000000
    8       -4.526285   1.000000
    9        1.764703   0.000000
   10        1.902465   0.000000
   11        6.559331   0.000000
   12        6.596437   0.000000
 
  0.4761905E+00  0.4761905E-01  0.1262379E-14  0.2721088E-01
    1      -16.101082   1.000000
    2      -16.093341   1.000000
    3      -13.763157   1.000000
    4      -13.757289   1.000000
    5       -7.770385   1.000000
    6       -7.769082   1.000000
    7       -3.923825   1.000000
    8       -3.808820   1.000000
    9        0.786431   0.000000
   10        0.944376   0.000000
   11        6.499286   0.000000
   12        6.519657   0.000000
 
 -0.4761905E+00  0.4761905E-01  0.1262379E-14  0.1360544E-01
    1      -15.482006   1.000000
    2      -15.474620   1.000000
    3      -14.461427   1.000000
    4      -14.455197   1.000000
    5       -7.824201   1.000000
    6       -7.822904   1.000000
    7       -3.592556   1.000000
    8       -3.487884   1.000000
    9        0.372154   0.000000
   10        0.541690   0.000000
   11        6.473771   0.000000
   12        6.492800   0.000000
 
  0.1904762E+00  0.9523810E-01  0.1262379E-14  0.1360544E-01
    1      -20.150605   1.000000
    2      -20.139456   1.000000
    3       -8.202861   1.000000
    4       -8.027612   1.000000
    5       -6.347569   1.000000
    6       -6.345937   1.000000
    7       -5.552633   1.000000
    8       -5.551540   1.000000
    9        2.796647   0.000000
   10        3.368385   0.000000
   11        3.993198   0.000000
   12        4.867129   0.000000
 
  0.2380952E+00  0.9523810E-01  0.1262379E-14  0.2721088E-01
    1      -19.777022   1.000000
    2      -19.766234   1.000000
    3       -7.759874   1.000000
    4       -7.588623   1.000000
    5       -7.290613   1.000000
    6       -7.288555   1.000000
    7       -6.161426   1.000000
    8       -6.160111   1.000000
    9        3.301112   0.000000
   10        3.879328   0.000000
   11        4.504316   0.000000
   12        5.368917   0.000000
 
  0.2857143E+00  0.9523810E-01  0.1262379E-14  0.2721088E-01
    1      -19.299330   1.000000
    2      -19.288987   1.000000
    3       -8.390729   1.000000
    4       -8.388107   1.000000
    5       -7.198535   1.000000
    6       -7.032675   1.000000
    7       -6.738544   1.000000
    8       -6.737050   1.000000
    9        3.948163   0.000000
   10        4.532759   0.000000
   11        5.153894   0.000000
   12        5.942882   0.000000
 
  0.3333333E+00  0.9523810E-01  0.1262379E-14  0.2721088E-01
    1      -18.719912   1.000000
    2      -18.710084   1.000000
    3       -9.578823   1.000000
    4       -9.575540   1.000000
    5       -7.244386   1.000000
    6       -7.242786   1.000000
    7       -6.527615   1.000000
    8       -6.368781   1.000000
    9        4.728343   0.000000
   10        4.823305   0.000000
   11        4.886747   0.000000
   12        5.360529   0.000000
 
  0.3809524E+00  0.9523810E-01  0.1262379E-14  0.2721088E-01
    1      -18.042425   1.000000
    2      -18.033176   1.000000
    3      -10.794961   1.000000
    4      -10.790972   1.000000
    5       -7.662574   1.000000
    6       -7.660897   1.000000
    7       -5.763006   1.000000
    8       -5.613264   1.000000
    9        3.541586   0.000000
   10        3.640320   0.000000
   11        5.662035   0.000000
   12        6.281502   0.000000
 
  0.4285714E+00  0.9523810E-01  0.1262379E-14  0.2721088E-01
    1      -17.273242   1.000000
    2      -17.264633   1.000000
    3      -11.994599   1.000000
    4      -11.989879   1.000000
    5       -7.983392   1.000000
    6       -7.981678   1.000000
    7       -4.936846   1.000000
    8       -4.798889   1.000000
    9        2.296137   0.000000
   10        2.413253   0.000000
   11        6.708136   0.000000
   12        7.268735   0.000000
 
  0.4761905E+00  0.9523810E-01  0.1262379E-14  0.2721088E-01
    1      -16.427974   1.000000
    2      -16.420010   1.000000
    3      -13.138268   1.000000
    4      -13.132811   1.000000
    5       -8.200534   1.000000
    6       -8.198756   1.000000
    7       -4.125974   1.000000
    8       -4.003182   1.000000
    9        1.188905   0.000000
   10        1.326096   0.000000
   11        7.206687   0.000000
   12        7.240697   0.000000
 
 -0.4761905E+00  0.9523810E-01  0.1262379E-14  0.2721088E-01
    1      -15.589377   1.000000
    2      -15.582003   1.000000
    3      -14.129245   1.000000
    4      -14.123198   1.000000
    5       -8.310031   1.000000
    6       -8.308258   1.000000
    7       -3.535917   1.000000
    8       -3.428796   1.000000
    9        0.445717   0.000000
   10        0.601136   0.000000
   11        7.164734   0.000000
   12        7.188731   0.000000
 
  0.2857143E+00  0.1428571E+00  0.1262379E-14  0.1360544E-01
    1      -19.352330   1.000000
    2      -19.341938   1.000000
    3       -8.105935   1.000000
    4       -8.103530   1.000000
    5       -7.259793   1.000000
    6       -7.093296   1.000000
    7       -6.900564   1.000000
    8       -6.898855   1.000000
    9        3.877056   0.000000
   10        4.462141   0.000000
   11        5.086691   0.000000
   12        5.940458   0.000000
 
  0.3333333E+00  0.1428571E+00  0.1262379E-14  0.2721088E-01
    1      -18.825125   1.000000
    2      -18.815213   1.000000
    3       -9.072650   1.000000
    4       -9.069745   1.000000
    5       -7.577408   1.000000
    6       -7.575398   1.000000
    7       -6.645772   1.000000
    8       -6.485496   1.000000
    9        4.594466   0.000000
   10        5.130810   0.000000
   11        5.152810   0.000000
   12        5.230766   0.000000
 
  0.3809524E+00  0.1428571E+00  0.1262379E-14  0.2721088E-01
    1      -18.198520   1.000000
    2      -18.189148   1.000000
    3      -10.164614   1.000000
    4      -10.161101   1.000000
    5       -8.120386   1.000000
    6       -8.118195   1.000000
    7       -5.929061   1.000000
    8       -5.776764   1.000000
    9        3.949525   0.000000
   10        4.025832   0.000000
   11        5.451620   0.000000
   12        6.057501   0.000000
 
  0.4285714E+00  0.1428571E+00  0.1262379E-14  0.2721088E-01
    1      -17.477483   1.000000
    2      -17.468719   1.000000
    3      -11.310374   1.000000
    4      -11.306170   1.000000
    5       -8.531562   1.000000
    6       -8.529281   1.000000
    7       -5.130695   1.000000
    8       -4.988582   1.000000
    9        2.750804   0.000000
   10        2.843852   0.000000
   11        6.442803   0.000000
   12        7.059588   0.000000
 
  0.4761905E+00  0.1428571E+00  0.1262379E-14  0.2721088E-01
    1      -16.671886   1.000000
    2      -16.663753   1.000000
    3      -12.448083   1.000000
    4      -12.443117   1.000000
    5       -8.821366   1.000000
    6       -8.818996   1.000000
    7       -4.296422   1.000000
    8       -4.167360   1.000000
    9        1.607817   0.000000
   10        1.719347   0.000000
   11        7.554355   0.000000
   12        8.159143   0.000000
 
 -0.4761905E+00  0.1428571E+00  0.1262379E-14  0.2721088E-01
    1      -15.813361   1.000000
    2      -15.805874   1.000000
    3      -13.515881   1.000000
    4      -13.510226   1.000000
    5       -8.994341   1.000000
    6       -8.991941   1.000000
    7       -3.546968   1.000000
    8       -3.433734   1.000000
    9        0.663476   0.000000
   10        0.794530   0.000000
   11        8.196700   0.000000
   12        8.240923   0.000000
 
 -0.4285714E+00  0.1428571E+00  0.1262379E-14  0.1360544E-01
    1      -15.205658   1.000000
    2      -15.198547   1.000000
    3      -14.194883   1.000000
    4      -14.188861   1.000000
    5       -9.051940   1.000000
    6       -9.049533   1.000000
    7       -3.198950   1.000000
    8       -3.095823   1.000000
    9        0.248836   0.000000
   10        0.391244   0.000000
   11        8.179801   0.000000
   12        8.215025   0.000000
 
  0.3809524E+00  0.1904762E+00  0.1262379E-14  0.1360544E-01
    1      -18.250682   1.000000
    2      -18.241278   1.000000
    3       -9.835053   1.000000
    4       -9.831831   1.000000
    5       -8.399796   1.000000
    6       -8.397314   1.000000
    7       -5.984822   1.000000
    8       -5.831669   1.000000
    9        4.103866   0.000000
   10        4.169444   0.000000
   11        5.380766   0.000000
   12        5.980111   0.000000
 
  0.4285714E+00  0.1904762E+00  0.1262379E-14  0.2721088E-01
    1      -17.580247   1.000000
    2      -17.571397   1.000000
    3      -10.745106   1.000000
    4      -10.741349   1.000000
    5       -9.047959   1.000000
    6       -9.045160   1.000000
    7       -5.229841   1.000000
    8       -5.085666   1.000000
    9        3.021999   0.000000
   10        3.096949   0.000000
   11        6.302696   0.000000
   12        6.907522   0.000000
 
  0.4761905E+00  0.1904762E+00  0.1262379E-14  0.2721088E-01
    1      -16.821108   1.000000
    2      -16.812860   1.000000
    3      -11.771210   1.000000
    4      -11.766760   1.000000
    5       -9.487854   1.000000
    6       -9.484879   1.000000
    7       -4.408312   1.000000
    8       -4.275291   1.000000
    9        1.933265   0.000000
   10        2.021384   0.000000
   11        7.352659   0.000000
   12        7.958129   0.000000
 
 -0.4761905E+00  0.1904762E+00  0.1262379E-14  0.2721088E-01
    1      -15.990000   1.000000
    2      -15.982413   1.000000
    3      -12.819865   1.000000
    4      -12.814708   1.000000
    5       -9.759151   1.000000
    6       -9.756103   1.000000
    7       -3.585632   1.000000
    8       -3.466404   1.000000
    9        0.920046   0.000000
   10        1.024278   0.000000
   11        8.509514   0.000000
   12        9.095752   0.000000
 
 -0.4285714E+00  0.1904762E+00  0.1262379E-14  0.2721088E-01
    1      -15.169802   1.000000
    2      -15.162801   1.000000
    3      -13.758939   1.000000
    4      -13.753166   1.000000
    5       -9.889682   1.000000
    6       -9.886595   1.000000
    7       -2.957978   1.000000
    8       -2.853210   1.000000
    9        0.192882   0.000000
   10        0.313047   0.000000
   11        9.396105   0.000000
   12        9.473511   0.000000
 
  0.4761905E+00  0.2380952E+00  0.1262379E-14  0.1360544E-01
    1      -16.871231   1.000000
    2      -16.862951   1.000000
    3      -11.400253   1.000000
    4      -11.396137   1.000000
    5       -9.860656   1.000000
    6       -9.857351   1.000000
    7       -4.447112   1.000000
    8       -4.312767   1.000000
    9        2.057955   0.000000
   10        2.136104   0.000000
   11        7.282304   0.000000
   12        7.878900   0.000000
 
 -0.4761905E+00  0.2380952E+00  0.1262379E-14  0.2721088E-01
    1      -16.082841   1.000000
    2      -16.075207   1.000000
    3      -12.214742   1.000000
    4      -12.210052   1.000000
    5      -10.408584   1.000000
    6      -10.405008   1.000000
    7       -3.614865   1.000000
    8       -3.492177   1.000000
    9        1.092345   0.000000
   10        1.178285   0.000000
   11        8.368330   0.000000
   12        8.927605   0.000000
 
 -0.4285714E+00  0.2380952E+00  0.1262379E-14  0.2721088E-01
    1      -15.247592   1.000000
    2      -15.240591   1.000000
    3      -13.120917   1.000000
    4      -13.115599   1.000000
    5      -10.693787   1.000000
    6      -10.690084   1.000000
    7       -2.825806   1.000000
    8       -2.716546   1.000000
    9        0.220552   0.000000
   10        0.318115   0.000000
   11        9.291978   0.000000
   12        9.691362   0.000000
 
 -0.3809524E+00  0.2380952E+00  0.1262379E-14  0.1360544E-01
    1      -14.654154   1.000000
    2      -14.647572   1.000000
    3      -13.747703   1.000000
    4      -13.741945   1.000000
    5      -10.781032   1.000000
    6      -10.777300   1.000000
    7       -2.417621   1.000000
    8       -2.317622   1.000000
    9       -0.215847   0.000000
   10       -0.109490   0.000000
   11        9.406902   0.000000
   12       10.200826   0.000000
 
 -0.4285714E+00  0.2857143E+00  0.1262379E-14  0.1360544E-01
    1      -15.282207   1.000000
    2      -15.275200   1.000000
    3      -12.741449   1.000000
    4      -12.736414   1.000000
    5      -11.123873   1.000000
    6      -11.119826   1.000000
    7       -2.785701   1.000000
    8       -2.674206   1.000000
    9        0.244245   0.000000
   10        0.332081   0.000000
   11        9.141815   0.000000
   12        9.610130   0.000000
 
 -0.3809524E+00  0.2857143E+00  0.1262379E-14  0.2721088E-01
    1      -14.490399   1.000000
    2      -14.483998   1.000000
    3      -13.405622   1.000000
    4      -13.400098   1.000000
    5      -11.478835   1.000000
    6      -11.474588   1.000000
    7       -2.042374   1.000000
    8       -1.941806   1.000000
    9       -0.504712   0.000000
   10       -0.410755   0.000000
   11        9.122872   0.000000
   12        9.945362   0.000000
 
 -0.3333333E+00  0.3333333E+00  0.1262379E-14  0.4535147E-02
    1      -13.830554   1.000000
    2      -13.830521   1.000000
    3      -13.824676   1.000000
    4      -13.824643   1.000000
    5      -11.820626   1.000000
    6      -11.816128   1.000000
    7       -1.261802   1.000000
    8       -1.261775   1.000000
    9       -1.166833   0.000000
   10       -1.166807   0.000000
   11        9.011795   0.000000
   12        9.855845   0.000000
