       N       E                     dE             d eps       ncg     rms          rms(c)
DAV:   1     0.113069792378E+03    0.11307E+03   -0.87317E+03  1152   0.149E+03
DAV:   2    -0.320499833693E+02   -0.14512E+03   -0.13261E+03  1884   0.205E+02
DAV:   3    -0.394610069311E+02   -0.74110E+01   -0.74110E+01  1572   0.674E+01
DAV:   4    -0.395218455051E+02   -0.60839E-01   -0.60838E-01  2040   0.624E+00
DAV:   5    -0.395218984522E+02   -0.52947E-04   -0.52947E-04  1740   0.200E-01    0.790E+00
DAV:   6    -0.376276147817E+02    0.18943E+01   -0.19026E+00  1824   0.935E+00    0.415E+00
DAV:   7    -0.369340011180E+02    0.69361E+00   -0.21662E+00  1980   0.969E+00    0.715E-01
DAV:   8    -0.369283926333E+02    0.56085E-02   -0.17172E-02  1752   0.118E+00    0.108E-01
DAV:   9    -0.369252581142E+02    0.31345E-02   -0.20054E-03  1836   0.302E-01    0.748E-02
DAV:  10    -0.369202883078E+02    0.49698E-02   -0.34570E-03  1548   0.316E-01    0.516E-02
DAV:  11    -0.369166695504E+02    0.36188E-02   -0.25342E-03  1260   0.257E-01    0.348E-02
DAV:  12    -0.369152556542E+02    0.14139E-02   -0.88597E-04  1404   0.146E-01    0.304E-02
DAV:  13    -0.369158909949E+02   -0.63534E-03   -0.43676E-04  1560   0.135E-01    0.244E-02
DAV:  14    -0.369173069548E+02   -0.14160E-02   -0.57064E-04  1572   0.104E-01    0.144E-02
DAV:  15    -0.369175747575E+02   -0.26780E-03   -0.96283E-05  1548   0.587E-02    0.792E-03
DAV:  16    -0.369177334469E+02   -0.15869E-03   -0.87892E-06  1644   0.296E-02    0.171E-03
DAV:  17    -0.369177613667E+02   -0.27920E-04   -0.13446E-06  1656   0.681E-03    0.848E-04
DAV:  18    -0.369177688886E+02   -0.75219E-05   -0.16600E-07  1452   0.281E-03    0.227E-04
DAV:  19    -0.369177695408E+02   -0.65217E-06   -0.37794E-08  1656   0.128E-03    0.109E-04
DAV:  20    -0.369177695405E+02    0.28285E-09   -0.21302E-09  1704   0.386E-04
   1 F= -.36917770E+02 E0= -.36917770E+02  d E =-.369178E+02
       N       E                     dE             d eps       ncg     rms          rms(c)
DAV:   1    -0.369177695564E+02   -0.15612E-07   -0.37335E-10  1512   0.132E-04    0.814E-06
DAV:   2    -0.369177695595E+02   -0.31000E-08   -0.16188E-11  1644   0.268E-05    0.609E-06
DAV:   3    -0.369177695636E+02   -0.40731E-08   -0.32668E-11  1416   0.266E-05    0.410E-06
DAV:   4    -0.369177695643E+02   -0.73635E-09   -0.12022E-12  1536   0.102E-05    0.398E-06
DAV:   5    -0.369177695646E+02   -0.35220E-09   -0.33163E-12  1392   0.804E-06
   2 F= -.36917770E+02 E0= -.36917770E+02  d E =-.241566E-07
       N       E                     dE             d eps       ncg     rms          rms(c)
DAV:   1    -0.369177695647E+02   -0.39472E-09   -0.60529E-13  1488   0.598E-06    0.394E-06
DAV:   2    -0.369177695647E+02   -0.45475E-11   -0.44238E-13  1692   0.110E-06    0.394E-06
DAV:   3    -0.369177695647E+02   -0.20464E-11    0.12366E-14  1368   0.102E-06    0.394E-06
DAV:   4    -0.369177695647E+02   -0.11369E-11    0.18446E-13  1272   0.919E-07    0.394E-06
DAV:   5    -0.369177695647E+02    0.52296E-11   -0.37009E-13  1380   0.163E-06
   3 F= -.36917770E+02 E0= -.36917770E+02  d E =-.242017E-07
       N       E                     dE             d eps       ncg     rms          rms(c)
DAV:   1    -0.369177695647E+02    0.52296E-11   -0.10758E-12  1296   0.106E-05    0.394E-06
DAV:   2    -0.369177695647E+02    0.00000E+00   -0.64515E-13  1416   0.148E-06    0.394E-06
DAV:   3    -0.369177695647E+02   -0.18190E-11    0.24136E-13  1212   0.742E-07    0.393E-06
DAV:   4    -0.369177695647E+02   -0.25011E-11    0.75223E-13  1368   0.286E-07    0.393E-06
DAV:   5    -0.369177695647E+02    0.63665E-11    0.12362E-12  1200   0.862E-07
   4 F= -.36917770E+02 E0= -.36917770E+02  d E =-.241996E-07
       N       E                     dE             d eps       ncg     rms          rms(c)
DAV:   1    -0.369177695647E+02    0.10232E-10   -0.62702E-12  1356   0.211E-05    0.396E-06
DAV:   2    -0.369177695647E+02   -0.11369E-12    0.78323E-13   924   0.290E-06    0.394E-06
DAV:   3    -0.369177695647E+02   -0.17053E-11    0.18265E-13   876   0.115E-06    0.393E-06
DAV:   4    -0.369177695647E+02   -0.11369E-11    0.17175E-13   744   0.470E-07    0.393E-06
DAV:   5    -0.369177695647E+02    0.34106E-12   -0.75123E-15   708   0.198E-07
   5 F= -.36917770E+02 E0= -.36917770E+02  d E =-.241984E-07
       N       E                     dE             d eps       ncg     rms          rms(c)
DAV:   1    -0.369177695647E+02    0.29559E-11   -0.24856E-11   648   0.421E-05    0.403E-06
DAV:   2    -0.369177695647E+02    0.22737E-12   -0.10908E-12   648   0.990E-06    0.397E-06
DAV:   3    -0.369177695647E+02    0.11369E-11    0.25268E-13   660   0.304E-06    0.394E-06
DAV:   4    -0.369177695647E+02    0.13642E-11    0.28120E-13   648   0.115E-06    0.393E-06
DAV:   5    -0.369177695647E+02    0.11369E-11    0.17935E-13   672   0.610E-07
   6 F= -.36917770E+02 E0= -.36917770E+02  d E =-.241919E-07
       N       E                     dE             d eps       ncg     rms          rms(c)
DAV:   1    -0.369177695647E+02   -0.79581E-11   -0.98242E-11   624   0.843E-05    0.430E-06
DAV:   2    -0.369177695647E+02    0.11369E-12   -0.21257E-12   648   0.200E-05    0.408E-06
DAV:   3    -0.369177695647E+02   -0.26148E-11    0.58771E-13   648   0.604E-06    0.395E-06
DAV:   4    -0.369177695647E+02    0.10232E-11   -0.12580E-13   660   0.239E-06    0.393E-06
DAV:   5    -0.369177695647E+02   -0.12506E-11    0.40109E-13   612   0.118E-06
   7 F= -.36917770E+02 E0= -.36917770E+02  d E =-.242037E-07
       N       E                     dE             d eps       ncg     rms          rms(c)
DAV:   1    -0.369177695647E+02    0.53433E-11   -0.39485E-10   612   0.169E-04    0.525E-06
DAV:   2    -0.369177695647E+02   -0.22737E-12   -0.12457E-11   816   0.404E-05    0.454E-06
DAV:   3    -0.369177695647E+02   -0.10232E-11   -0.66573E-13   816   0.109E-05    0.398E-06
DAV:   4    -0.369177695647E+02   -0.28422E-11    0.32057E-13   624   0.378E-06    0.394E-06
DAV:   5    -0.369177695647E+02    0.27285E-11    0.93027E-14   588   0.195E-06
   8 F= -.36917770E+02 E0= -.36917770E+02  d E =-.241985E-07
       N       E                     dE             d eps       ncg     rms          rms(c)
DAV:   1    -0.369177695647E+02    0.90949E-11   -0.16123E-09   984   0.337E-04    0.819E-06
DAV:   2    -0.369177695647E+02    0.11369E-12   -0.21157E-11   804   0.473E-05    0.597E-06
DAV:   3    -0.369177695647E+02   -0.26148E-11   -0.43040E-12   948   0.173E-05    0.402E-06
DAV:   4    -0.369177695647E+02    0.34106E-11   -0.14680E-12   612   0.722E-06    0.395E-06
DAV:   5    -0.369177695647E+02    0.10232E-11    0.47776E-13   576   0.278E-06
   9 F= -.36917770E+02 E0= -.36917770E+02  d E =-.241902E-07
       N       E                     dE             d eps       ncg     rms          rms(c)
DAV:   1    -0.369177695647E+02   -0.17508E-10   -0.65005E-09  1152   0.674E-04    0.153E-05
DAV:   2    -0.369177695647E+02   -0.73896E-11   -0.44229E-11  1044   0.672E-05    0.958E-06
DAV:   3    -0.369177695647E+02    0.10118E-10   -0.12212E-11  1224   0.295E-05    0.420E-06
DAV:   4    -0.369177695647E+02    0.38654E-11   -0.12790E-12   768   0.125E-05    0.401E-06
DAV:   5    -0.369177695647E+02    0.34106E-11    0.64605E-13   864   0.410E-06
  10 F= -.36917770E+02 E0= -.36917770E+02  d E =-.241987E-07
       N       E                     dE             d eps       ncg     rms          rms(c)
DAV:   1    -0.369177695647E+02   -0.11141E-10   -0.25999E-08  1152   0.135E-03    0.300E-05
DAV:   2    -0.369177695647E+02   -0.11937E-10   -0.17345E-10  1188   0.134E-04    0.178E-05
DAV:   3    -0.369177695647E+02    0.11482E-10   -0.49863E-11  1344   0.566E-05    0.487E-06
DAV:   4    -0.369177695647E+02    0.65938E-11   -0.70403E-12  1068   0.239E-05    0.420E-06
DAV:   5    -0.369177695647E+02    0.40927E-11   -0.32305E-14  1176   0.681E-06
  11 F= -.36917770E+02 E0= -.36917770E+02  d E =-.242030E-07
