 vasp.5.4.4.18Apr17-6-g9f103f2a35 (build May 31 2018 21:15:54) complex          
  
 executed on          c7_intel_O1 date 2020.08.17  20:03:14
 running on   36 total cores
 distrk:  each k-point on   36 cores,    1 groups
 distr:  one band on NCORES_PER_BAND=   6 cores,    6 groups


--------------------------------------------------------------------------------------------------------


 INCAR:
 POTCAR:   PAW_PBE C 08Apr2002                    
 POTCAR:   PAW_PBE C 08Apr2002                    
   VRHFIN =C: s2p2                                                              
   LEXCH  = PE                                                                  
   EATOM  =   147.1560 eV,   10.8157 Ry                                         
                                                                                
   TITEL  = PAW_PBE C 08Apr2002                                                 
   LULTRA =        F    use ultrasoft PP ?                                      
   IUNSCR =        0    unscreen: 0-lin 1-nonlin 2-no                           
   RPACOR =     .000    partial core radius                                     
   POMASS =   12.011; ZVAL   =    4.000    mass and valenz                      
   RCORE  =    1.500    outmost cutoff radius                                   
   RWIGS  =    1.630; RWIGS  =     .863    wigner-seitz radius (au A)           
   ENMAX  =  400.000; ENMIN  =  300.000 eV                                      
   ICORE  =        2    local potential                                         
   LCOR   =        T    correct aug charges                                     
   LPAW   =        T    paw PP                                                  
   EAUG   =  644.873                                                            
   DEXC   =     .000                                                            
   RMAX   =    2.266    core radius for proj-oper                               
   RAUG   =    1.300    factor for augmentation sphere                          
   RDEP   =    1.501    radius for radial grids                                 
   RDEPT  =    1.300    core radius for aug-charge                              
   QCUT   =   -5.516; QGAM   =   11.032    optimization parameters              
                                                                                
   Description                                                                  
     l     E      TYP  RCUT    TYP  RCUT                                        
     0   .000     23  1.200                                                     
     0   .000     23  1.200                                                     
     1   .000     23  1.500                                                     
     1  2.500     23  1.500                                                     
     2   .000      7  1.500                                                     
  local pseudopotential read in
  atomic valenz-charges read in
  non local Contribution for L=           0  read in
    real space projection operators read in
  non local Contribution for L=           0  read in
    real space projection operators read in
  non local Contribution for L=           1  read in
    real space projection operators read in
  non local Contribution for L=           1  read in
    real space projection operators read in
    PAW grid and wavefunctions read in
 
   number of l-projection  operators is LMAX  =           4
   number of lm-projection operators is LMMAX =           8
 
 PAW_PBE C 08Apr2002                    :
 energy of atom  1       EATOM= -147.1560
 kinetic energy error for atom=    0.0016 (will be added to EATOM!!)
 
 
 POSCAR: C2_bilayer                              
  positions in direct lattice
  velocities in cartesian coordinates
 exchange correlation table for  LEXCH =        8
   RHO(1)=    0.500       N(1)  =     2000
   RHO(2)=  100.500       N(2)  =     4000
 


--------------------------------------------------------------------------------------------------------


 ion  position               nearest neighbor table
   1  0.000  0.000  0.000-   2 1.42   2 1.42   2 1.42
   2  0.333  0.333  0.000-   1 1.42   1 1.42   1 1.42
   3  0.000  0.000  0.222-   4 1.42   4 1.42   4 1.42
   4  0.333  0.333  0.222-   3 1.42   3 1.42   3 1.42
 
  LATTYP: Found a hexagonal cell.
 ALAT       =     2.4595120000
 C/A-ratio  =     8.1316944174
  
  Lattice vectors:
  
 A1 = (   0.0000000000,  -2.4595120000,   0.0000000000)
 A2 = (  -2.1300000000,   1.2297560000,   0.0000000000)
 A3 = (   0.0000000000,   0.0000000000, -20.0000000000)


Analysis of symmetry for initial positions (statically):
=====================================================================
 Subroutine PRICEL returns:
 Original cell was already a primitive cell.
 

 Routine SETGRP: Setting up the symmetry group for a 
 hexagonal supercell.


 Subroutine GETGRP returns: Found 24 space group operations
 (whereof  6 operations were pure point group operations)
 out of a pool of 24 trial point group operations.


The static configuration has the point symmetry C_3v.
 The point group associated with its full space group is D_6h.


Analysis of symmetry for dynamics (positions and initial velocities):
=====================================================================
 Subroutine PRICEL returns:
 Original cell was already a primitive cell.
 

 Routine SETGRP: Setting up the symmetry group for a 
 hexagonal supercell.


 Subroutine GETGRP returns: Found 24 space group operations
 (whereof  6 operations were pure point group operations)
 out of a pool of 24 trial point group operations.


The dynamic configuration has the point symmetry C_3v.
 The point group associated with its full space group is D_6h.


Analysis of constrained symmetry for selective dynamics:
=====================================================================
 Subroutine PRICEL returns:
 Original cell was already a primitive cell.
 

 Routine SETGRP: Setting up the symmetry group for a 
 hexagonal supercell.


 Subroutine GETGRP returns: Found 12 space group operations
 (whereof  6 operations were pure point group operations)
 out of a pool of 24 trial point group operations.


The constrained configuration has the point symmetry C_3v.
 The point group associated with its full space group is C_6v.


 Subroutine INISYM returns: Found 12 space group operations
 (whereof  6 operations are pure point group operations),
 and found     1 'primitive' translations

 
 
 KPOINTS: C-4                                     

Automatic generation of k-mesh.
Space group operators:
 irot       det(A)        alpha          n_x          n_y          n_z        tau_x        tau_y        tau_z
    1     1.000000     0.000000     1.000000     0.000000     0.000000     0.000000     0.000000     0.000000
    2     1.000000   120.000000     0.000000     0.000000     1.000000     0.000000     0.000000     0.000000
    3     1.000000   120.000000     0.000000     0.000000    -1.000000     0.000000     0.000000     0.000000
    4    -1.000000   180.000000    -0.000000     1.000000     0.000000     0.000000     0.000000     0.000000
    5    -1.000000   180.000000     0.866025    -0.500000     0.000000     0.000000     0.000000     0.000000
    6    -1.000000   180.000000     0.866025     0.500000     0.000000     0.000000     0.000000     0.000000
    7     1.000000    60.000000     0.000000     0.000000     1.000000     0.333333    -0.666667     0.000000
    8     1.000000   180.000000     0.000000     0.000000     1.000000     0.333333    -0.666667     0.000000
    9     1.000000    60.000000     0.000000     0.000000    -1.000000     0.333333    -0.666667     0.000000
   10    -1.000000   180.000000     0.500000    -0.866025     0.000000     0.333333    -0.666667     0.000000
   11    -1.000000   180.000000     1.000000     0.000000     0.000000     0.333333    -0.666667     0.000000
   12    -1.000000   180.000000    -0.500000    -0.866025     0.000000     0.333333    -0.666667     0.000000
 
 Subroutine IBZKPT returns following result:
 ===========================================
 
 Found     48 irreducible k-points:
 
 Following reciprocal coordinates:
            Coordinates               Weight
  0.000000  0.000000  0.000000      1.000000
  0.047619  0.000000  0.000000      6.000000
  0.095238  0.000000  0.000000      6.000000
  0.142857  0.000000  0.000000      6.000000
  0.190476  0.000000  0.000000      6.000000
  0.238095  0.000000  0.000000      6.000000
  0.285714  0.000000  0.000000      6.000000
  0.333333  0.000000  0.000000      6.000000
  0.380952  0.000000  0.000000      6.000000
  0.428571  0.000000  0.000000      6.000000
  0.476190  0.000000  0.000000      6.000000
  0.095238  0.047619  0.000000      6.000000
  0.142857  0.047619  0.000000     12.000000
  0.190476  0.047619  0.000000     12.000000
  0.238095  0.047619  0.000000     12.000000
  0.285714  0.047619  0.000000     12.000000
  0.333333  0.047619  0.000000     12.000000
  0.380952  0.047619  0.000000     12.000000
  0.428571  0.047619  0.000000     12.000000
  0.476190  0.047619  0.000000     12.000000
 -0.476190  0.047619  0.000000      6.000000
  0.190476  0.095238  0.000000      6.000000
  0.238095  0.095238  0.000000     12.000000
  0.285714  0.095238  0.000000     12.000000
  0.333333  0.095238  0.000000     12.000000
  0.380952  0.095238  0.000000     12.000000
  0.428571  0.095238  0.000000     12.000000
  0.476190  0.095238  0.000000     12.000000
 -0.476190  0.095238  0.000000     12.000000
  0.285714  0.142857  0.000000      6.000000
  0.333333  0.142857  0.000000     12.000000
  0.380952  0.142857  0.000000     12.000000
  0.428571  0.142857  0.000000     12.000000
  0.476190  0.142857  0.000000     12.000000
 -0.476190  0.142857  0.000000     12.000000
 -0.428571  0.142857  0.000000      6.000000
  0.380952  0.190476  0.000000      6.000000
  0.428571  0.190476  0.000000     12.000000
  0.476190  0.190476  0.000000     12.000000
 -0.476190  0.190476  0.000000     12.000000
 -0.428571  0.190476  0.000000     12.000000
  0.476190  0.238095  0.000000      6.000000
 -0.476190  0.238095  0.000000     12.000000
 -0.428571  0.238095  0.000000     12.000000
 -0.380952  0.238095  0.000000      6.000000
 -0.428571  0.285714  0.000000      6.000000
 -0.380952  0.285714  0.000000     12.000000
 -0.333333  0.333333  0.000000      2.000000
 
 Following cartesian coordinates:
            Coordinates               Weight
  0.000000  0.000000  0.000000      1.000000
  0.011178 -0.019361  0.000000      6.000000
  0.022356 -0.038722  0.000000      6.000000
  0.033535 -0.058084  0.000000      6.000000
  0.044713 -0.077445  0.000000      6.000000
  0.055891 -0.096806  0.000000      6.000000
  0.067069 -0.116167  0.000000      6.000000
  0.078247 -0.135528  0.000000      6.000000
  0.089425 -0.154889  0.000000      6.000000
  0.100604 -0.174251  0.000000      6.000000
  0.111782 -0.193612  0.000000      6.000000
  0.033535 -0.019361  0.000000      6.000000
  0.044713 -0.038722  0.000000     12.000000
  0.055891 -0.058084  0.000000     12.000000
  0.067069 -0.077445  0.000000     12.000000
  0.078247 -0.096806  0.000000     12.000000
  0.089425 -0.116167  0.000000     12.000000
  0.100604 -0.135528  0.000000     12.000000
  0.111782 -0.154889  0.000000     12.000000
  0.122960 -0.174251  0.000000     12.000000
 -0.100604  0.212973  0.000000      6.000000
  0.067069 -0.038722  0.000000      6.000000
  0.078247 -0.058084  0.000000     12.000000
  0.089425 -0.077445  0.000000     12.000000
  0.100604 -0.096806  0.000000     12.000000
  0.111782 -0.116167  0.000000     12.000000
  0.122960 -0.135528  0.000000     12.000000
  0.134138 -0.154889  0.000000     12.000000
 -0.089425  0.232334  0.000000     12.000000
  0.100604 -0.058084  0.000000      6.000000
  0.111782 -0.077445  0.000000     12.000000
  0.122960 -0.096806  0.000000     12.000000
  0.134138 -0.116167  0.000000     12.000000
  0.145316 -0.135528  0.000000     12.000000
 -0.078247  0.251695  0.000000     12.000000
 -0.067069  0.232334  0.000000      6.000000
  0.134138 -0.077445  0.000000      6.000000
  0.145316 -0.096806  0.000000     12.000000
  0.156495 -0.116167  0.000000     12.000000
 -0.067069  0.271056  0.000000     12.000000
 -0.055891  0.251695  0.000000     12.000000
  0.167673 -0.096806  0.000000      6.000000
 -0.055891  0.290418  0.000000     12.000000
 -0.044713  0.271056  0.000000     12.000000
 -0.033535  0.251695  0.000000      6.000000
 -0.033535  0.290418  0.000000      6.000000
 -0.022356  0.271056  0.000000     12.000000
  0.000000  0.271056  0.000000      2.000000
 


--------------------------------------------------------------------------------------------------------




 Dimension of arrays:
   k-points           NKPTS =     48   k-points in BZ     NKDIM =     48   number of bands    NBANDS=     12
   number of dos      NEDOS =    301   number of ions     NIONS =      4
   non local maximal  LDIM  =      4   non local SUM 2l+1 LMDIM =      8
   total plane-waves  NPLWV = 110592
   max r-space proj   IRMAX =      1   max aug-charges    IRDMAX=  99836
   dimension x,y,z NGX =    24 NGY =   24 NGZ =  192
   dimension x,y,z NGXF=    48 NGYF=   48 NGZF=  384
   support grid    NGXF=    96 NGYF=   96 NGZF=  768
   ions per type =               4
   NGX,Y,Z   is equivalent  to a cutoff of  16.22, 16.22, 15.96 a.u.
   NGXF,Y,Z  is equivalent  to a cutoff of  32.44, 32.44, 31.92 a.u.

 SYSTEM =  C-4                                     
 POSCAR =  C2_bilayer                              

 Startparameter for this run:
   NWRITE =      2    write-flag & timer
   PREC   = accura    normal or accurate (medium, high low for compatibility)
   ISTART =      0    job   : 0-new  1-cont  2-samecut
   ICHARG =      2    charge: 1-file 2-atom 10-const
   ISPIN  =      1    spin polarized calculation?
   LNONCOLLINEAR =      F non collinear calculations
   LSORBIT =      F    spin-orbit coupling
   INIWAV =      1    electr: 0-lowe 1-rand  2-diag
   LASPH  =      F    aspherical Exc in radial PAW
   METAGGA=      F    non-selfconsistent MetaGGA calc.

 Electronic Relaxation 1
   ENCUT  =  800.0 eV  58.80 Ry    7.67 a.u.   5.67  5.67 46.12*2*pi/ulx,y,z
   ENINI  =  800.0     initial cutoff
   ENAUG  =  644.9 eV  augmentation charge cutoff
   NELM   =     60;   NELMIN=  5; NELMDL= -5     # of ELM steps 
   EDIFF  = 0.1E-07   stopping-criterion for ELM
   LREAL  =      F    real-space projection
   NLSPLINE    = F    spline interpolate recip. space projectors
   LCOMPAT=      F    compatible to vasp.4.4
   GGA_COMPAT  = T    GGA compatible to vasp.4.4-vasp.4.6
   LMAXPAW     = -100 max onsite density
   LMAXMIX     =    2 max onsite mixed and CHGCAR
   VOSKOWN=      0    Vosko Wilk Nusair interpolation
   ROPT   =    0.00000
 Ionic relaxation
   EDIFFG = -.1E-07   stopping-criterion for IOM
   NSW    =     80    number of steps for IOM
   NBLOCK =      1;   KBLOCK =     80    inner block; outer block 
   IBRION =      2    ionic relax: 0-MD 1-quasi-New 2-CG
   NFREE  =      1    steps in history (QN), initial steepest desc. (CG)
   ISIF   =      2    stress and relaxation
   IWAVPR =     11    prediction:  0-non 1-charg 2-wave 3-comb
   ISYM   =      2    0-nonsym 1-usesym 2-fastsym
   LCORR  =      T    Harris-Foulkes like correction to forces

   POTIM  = 0.5000    time-step for ionic-motion
   TEIN   =    0.0    initial temperature
   TEBEG  =    0.0;   TEEND  =   0.0 temperature during run
   SMASS  =  -3.00    Nose mass-parameter (am)
   estimated Nose-frequenzy (Omega)   =  0.10E-29 period in steps =****** mass=  -0.138E-27a.u.
   SCALEE = 1.0000    scale energy and forces
   NPACO  =    256;   APACO  = 16.0  distance and # of slots for P.C.
   PSTRESS=    0.0 pullay stress

  Mass of Ions in am
   POMASS =  12.01
  Ionic Valenz
   ZVAL   =   4.00
  Atomic Wigner-Seitz radii
   RWIGS  =  -1.00
  virtual crystal weights 
   VCA    =   1.00
   NELECT =      16.0000    total number of electrons
   NUPDOWN=      -1.0000    fix difference up-down

 DOS related values:
   EMIN   =  10.00;   EMAX   =-10.00  energy-range for DOS
   EFERMI =   0.00
   ISMEAR =     0;   SIGMA  =   0.01  broadening in eV -4-tet -1-fermi 0-gaus

 Electronic relaxation 2 (details)
   IALGO  =     38    algorithm
   LDIAG  =      T    sub-space diagonalisation (order eigenvalues)
   LSUBROT=      F    optimize rotation matrix (better conditioning)
   TURBO    =      0    0=normal 1=particle mesh
   IRESTART =      0    0=no restart 2=restart with 2 vectors
   NREBOOT  =      0    no. of reboots
   NMIN     =      0    reboot dimension
   EREF     =   0.00    reference energy to select bands
   IMIX   =      4    mixing-type and parameters
     AMIX     =   0.40;   BMIX     =  1.00
     AMIX_MAG =   1.60;   BMIX_MAG =  1.00
     AMIN     =   0.01
     WC   =   100.;   INIMIX=   1;  MIXPRE=   1;  MAXMIX= -45

 Intra band minimization:
   WEIMIN = 0.0010     energy-eigenvalue tresh-hold
   EBREAK =  0.21E-10  absolut break condition
   DEPER  =   0.30     relativ break condition  

   TIME   =   0.40     timestep for ELM

  volume/ion in A,a.u.               =      26.19       176.76
  Fermi-wavevector in a.u.,A,eV,Ry     =   0.875041  1.653589 10.417948  0.765698
  Thomas-Fermi vector in A             =   1.994657
 
 Write flags
   LWAVE        =      F    write WAVECAR
   LDOWNSAMPLE  =      F    k-point downsampling of WAVECAR
   LCHARG       =      T    write CHGCAR
   LVTOT        =      F    write LOCPOT, total local potential
   LVHAR        =      F    write LOCPOT, Hartree potential only
   LELF         =      F    write electronic localiz. function (ELF)
   LORBIT       =      0    0 simple, 1 ext, 2 COOP (PROOUT), +10 PAW based schemes


 Dipole corrections
   LMONO  =      F    monopole corrections only (constant potential shift)
   LDIPOL =      F    correct potential (dipole corrections)
   IDIPOL =      0    1-x, 2-y, 3-z, 4-all directions 
   EPSILON=  1.0000000 bulk dielectric constant

 Exchange correlation treatment:
   GGA     =    --    GGA type
   LEXCH   =     8    internal setting for exchange type
   VOSKOWN=      0    Vosko Wilk Nusair interpolation
   LHFCALC =     F    Hartree Fock is set to
   LHFONE  =     F    Hartree Fock one center treatment
   AEXX    =    0.0000 exact exchange contribution

 Linear response parameters
   LEPSILON=     F    determine dielectric tensor
   LRPA    =     F    only Hartree local field effects (RPA)
   LNABLA  =     F    use nabla operator in PAW spheres
   LVEL    =     F    velocity operator in full k-point grid
   LINTERFAST=   F  fast interpolation
   KINTER  =     0    interpolate to denser k-point grid
   CSHIFT  =0.1000    complex shift for real part using Kramers Kronig
   OMEGAMAX=  -1.0    maximum frequency
   DEG_THRESHOLD= 0.2000000E-02 threshold for treating states as degnerate
   RTIME   =   -0.100 relaxation time in fs
  (WPLASMAI=    0.000 imaginary part of plasma frequency in eV, 0.658/RTIME)
   DFIELD  = 0.0000000 0.0000000 0.0000000 field for delta impulse in time
 
 Orbital magnetization related:
   ORBITALMAG=     F  switch on orbital magnetization
   LCHIMAG   =     F  perturbation theory with respect to B field
   DQ        =  0.001000  dq finite difference perturbation B field
   LLRAUG    =     F  two centre corrections for induced B field



--------------------------------------------------------------------------------------------------------


 conjugate gradient relaxation of ions
   using selective dynamics as specified on POSCAR
 charge density and potential will be updated during run
 non-spin polarized calculation
 Variant of blocked Davidson
 Davidson routine will perform the subspace rotation
 perform sub-space diagonalisation
    after iterative eigenvector-optimisation
 modified Broyden-mixing scheme, WC =      100.0
 initial mixing is a Kerker type mixing with AMIX =  0.4000 and BMIX =      1.0000
 Hartree-type preconditioning will be used
 using additional bands            4
 reciprocal scheme for non local part
 calculate Harris-corrections to forces 
   (improved forces if not selfconsistent)
 use gradient corrections 
 use of overlap-Matrix (Vanderbilt PP)
 Gauss-broadening in eV      SIGMA  =   0.01


--------------------------------------------------------------------------------------------------------


  energy-cutoff  :      800.00
  volume of cell :      104.78
      direct lattice vectors                 reciprocal lattice vectors
     2.130000000 -1.229756000  0.000000000     0.234741784 -0.406584721  0.000000000
     2.130000000  1.229756000  0.000000000     0.234741784  0.406584721  0.000000000
     0.000000000  0.000000000 20.000000000     0.000000000  0.000000000  0.050000000

  length of vectors
     2.459512110  2.459512110 20.000000000     0.469483589  0.469483589  0.050000000


 
 k-points in units of 2pi/SCALE and weight: C-4                                     
   0.00000000  0.00000000  0.00000000       0.002
   0.01117818 -0.01936118  0.00000000       0.014
   0.02235636 -0.03872235  0.00000000       0.014
   0.03353454 -0.05808353  0.00000000       0.014
   0.04471272 -0.07744471  0.00000000       0.014
   0.05589090 -0.09680589  0.00000000       0.014
   0.06706908 -0.11616706  0.00000000       0.014
   0.07824726 -0.13552824  0.00000000       0.014
   0.08942544 -0.15488942  0.00000000       0.014
   0.10060362 -0.17425059  0.00000000       0.014
   0.11178180 -0.19361177  0.00000000       0.014
   0.03353454 -0.01936118  0.00000000       0.014
   0.04471272 -0.03872235  0.00000000       0.027
   0.05589090 -0.05808353  0.00000000       0.027
   0.06706908 -0.07744471  0.00000000       0.027
   0.07824726 -0.09680589  0.00000000       0.027
   0.08942544 -0.11616706  0.00000000       0.027
   0.10060362 -0.13552824  0.00000000       0.027
   0.11178180 -0.15488942  0.00000000       0.027
   0.12295998 -0.17425059  0.00000000       0.027
  -0.10060362  0.21297295  0.00000000       0.014
   0.06706908 -0.03872235  0.00000000       0.014
   0.07824726 -0.05808353  0.00000000       0.027
   0.08942544 -0.07744471  0.00000000       0.027
   0.10060362 -0.09680589  0.00000000       0.027
   0.11178180 -0.11616706  0.00000000       0.027
   0.12295998 -0.13552824  0.00000000       0.027
   0.13413816 -0.15488942  0.00000000       0.027
  -0.08942544  0.23233413  0.00000000       0.027
   0.10060362 -0.05808353  0.00000000       0.014
   0.11178180 -0.07744471  0.00000000       0.027
   0.12295998 -0.09680589  0.00000000       0.027
   0.13413816 -0.11616706  0.00000000       0.027
   0.14531634 -0.13552824  0.00000000       0.027
  -0.07824726  0.25169530  0.00000000       0.027
  -0.06706908  0.23233413  0.00000000       0.014
   0.13413816 -0.07744471  0.00000000       0.014
   0.14531634 -0.09680589  0.00000000       0.027
   0.15649452 -0.11616706  0.00000000       0.027
  -0.06706908  0.27105648  0.00000000       0.027
  -0.05589090  0.25169530  0.00000000       0.027
   0.16767270 -0.09680589  0.00000000       0.014
  -0.05589090  0.29041766  0.00000000       0.027
  -0.04471272  0.27105648  0.00000000       0.027
  -0.03353454  0.25169530  0.00000000       0.014
  -0.03353454  0.29041766  0.00000000       0.014
  -0.02235636  0.27105648  0.00000000       0.027
   0.00000000  0.27105648  0.00000000       0.005
 
 k-points in reciprocal lattice and weights: C-4                                     
   0.00000000  0.00000000  0.00000000       0.002
   0.04761905  0.00000000  0.00000000       0.014
   0.09523810  0.00000000  0.00000000       0.014
   0.14285714  0.00000000  0.00000000       0.014
   0.19047619  0.00000000  0.00000000       0.014
   0.23809524  0.00000000  0.00000000       0.014
   0.28571429  0.00000000  0.00000000       0.014
   0.33333333  0.00000000  0.00000000       0.014
   0.38095238  0.00000000  0.00000000       0.014
   0.42857143  0.00000000  0.00000000       0.014
   0.47619048  0.00000000  0.00000000       0.014
   0.09523810  0.04761905  0.00000000       0.014
   0.14285714  0.04761905  0.00000000       0.027
   0.19047619  0.04761905  0.00000000       0.027
   0.23809524  0.04761905  0.00000000       0.027
   0.28571429  0.04761905  0.00000000       0.027
   0.33333333  0.04761905  0.00000000       0.027
   0.38095238  0.04761905  0.00000000       0.027
   0.42857143  0.04761905  0.00000000       0.027
   0.47619048  0.04761905  0.00000000       0.027
  -0.47619048  0.04761905  0.00000000       0.014
   0.19047619  0.09523810  0.00000000       0.014
   0.23809524  0.09523810  0.00000000       0.027
   0.28571429  0.09523810  0.00000000       0.027
   0.33333333  0.09523810  0.00000000       0.027
   0.38095238  0.09523810  0.00000000       0.027
   0.42857143  0.09523810  0.00000000       0.027
   0.47619048  0.09523810  0.00000000       0.027
  -0.47619048  0.09523810  0.00000000       0.027
   0.28571429  0.14285714  0.00000000       0.014
   0.33333333  0.14285714  0.00000000       0.027
   0.38095238  0.14285714  0.00000000       0.027
   0.42857143  0.14285714  0.00000000       0.027
   0.47619048  0.14285714  0.00000000       0.027
  -0.47619048  0.14285714  0.00000000       0.027
  -0.42857143  0.14285714  0.00000000       0.014
   0.38095238  0.19047619  0.00000000       0.014
   0.42857143  0.19047619  0.00000000       0.027
   0.47619048  0.19047619  0.00000000       0.027
  -0.47619048  0.19047619  0.00000000       0.027
  -0.42857143  0.19047619  0.00000000       0.027
   0.47619048  0.23809524  0.00000000       0.014
  -0.47619048  0.23809524  0.00000000       0.027
  -0.42857143  0.23809524  0.00000000       0.027
  -0.38095238  0.23809524  0.00000000       0.014
  -0.42857143  0.28571429  0.00000000       0.014
  -0.38095238  0.28571429  0.00000000       0.027
  -0.33333333  0.33333333  0.00000000       0.005
 
 position of ions in fractional coordinates (direct lattice) 
   0.00000000  0.00000000  0.00000000
   0.33333300  0.33333300  0.00000000
   0.00000000  0.00000000  0.22193400
   0.33333300  0.33333300  0.22193400
 
 position of ions in cartesian coordinates  (Angst):
   0.00000000  0.00000000  0.00000000
   1.41999858  0.00000000  0.00000000
   0.00000000  0.00000000  4.43868000
   1.41999858  0.00000000  4.43868000
 


--------------------------------------------------------------------------------------------------------


 k-point  1 :   0.0000 0.0000 0.0000  plane waves:    5409
 k-point  2 :   0.0476 0.0000 0.0000  plane waves:    5413
 k-point  3 :   0.0952 0.0000 0.0000  plane waves:    5402
 k-point  4 :   0.1429 0.0000 0.0000  plane waves:    5398
 k-point  5 :   0.1905 0.0000 0.0000  plane waves:    5404
 k-point  6 :   0.2381 0.0000 0.0000  plane waves:    5408
 k-point  7 :   0.2857 0.0000 0.0000  plane waves:    5404
 k-point  8 :   0.3333 0.0000 0.0000  plane waves:    5394
 k-point  9 :   0.3810 0.0000 0.0000  plane waves:    5382
 k-point 10 :   0.4286 0.0000 0.0000  plane waves:    5396
 k-point 11 :   0.4762 0.0000 0.0000  plane waves:    5380
 k-point 12 :   0.0952 0.0476 0.0000  plane waves:    5411
 k-point 13 :   0.1429 0.0476 0.0000  plane waves:    5415
 k-point 14 :   0.1905 0.0476 0.0000  plane waves:    5413
 k-point 15 :   0.2381 0.0476 0.0000  plane waves:    5399
 k-point 16 :   0.2857 0.0476 0.0000  plane waves:    5396
 k-point 17 :   0.3333 0.0476 0.0000  plane waves:    5389
 k-point 18 :   0.3810 0.0476 0.0000  plane waves:    5378
 k-point 19 :   0.4286 0.0476 0.0000  plane waves:    5381
 k-point 20 :   0.4762 0.0476 0.0000  plane waves:    5391
 k-point 21 :  -0.4762 0.0476 0.0000  plane waves:    5394
 k-point 22 :   0.1905 0.0952 0.0000  plane waves:    5403
 k-point 23 :   0.2381 0.0952 0.0000  plane waves:    5409
 k-point 24 :   0.2857 0.0952 0.0000  plane waves:    5419
 k-point 25 :   0.3333 0.0952 0.0000  plane waves:    5384
 k-point 26 :   0.3810 0.0952 0.0000  plane waves:    5369
 k-point 27 :   0.4286 0.0952 0.0000  plane waves:    5364
 k-point 28 :   0.4762 0.0952 0.0000  plane waves:    5382
 k-point 29 :  -0.4762 0.0952 0.0000  plane waves:    5404
 k-point 30 :   0.2857 0.1429 0.0000  plane waves:    5405
 k-point 31 :   0.3333 0.1429 0.0000  plane waves:    5404
 k-point 32 :   0.3810 0.1429 0.0000  plane waves:    5382
 k-point 33 :   0.4286 0.1429 0.0000  plane waves:    5347
 k-point 34 :   0.4762 0.1429 0.0000  plane waves:    5367
 k-point 35 :  -0.4762 0.1429 0.0000  plane waves:    5376
 k-point 36 :  -0.4286 0.1429 0.0000  plane waves:    5400
 k-point 37 :   0.3810 0.1905 0.0000  plane waves:    5390
 k-point 38 :   0.4286 0.1905 0.0000  plane waves:    5358
 k-point 39 :   0.4762 0.1905 0.0000  plane waves:    5365
 k-point 40 :  -0.4762 0.1905 0.0000  plane waves:    5363
 k-point 41 :  -0.4286 0.1905 0.0000  plane waves:    5377
 k-point 42 :   0.4762 0.2381 0.0000  plane waves:    5364
 k-point 43 :  -0.4762 0.2381 0.0000  plane waves:    5368
 k-point 44 :  -0.4286 0.2381 0.0000  plane waves:    5360
 k-point 45 :  -0.3810 0.2381 0.0000  plane waves:    5366
 k-point 46 :  -0.4286 0.2857 0.0000  plane waves:    5362
 k-point 47 :  -0.3810 0.2857 0.0000  plane waves:    5326
 k-point 48 :  -0.3333 0.3333 0.0000  plane waves:    5334

 maximum and minimum number of plane-waves per node :       928      874

 maximum number of plane-waves:      5419
 maximum index in each direction: 
   IXMAX=    6   IYMAX=    5   IZMAX=   46
   IXMIN=   -6   IYMIN=   -5   IZMIN=  -46


 parallel 3D FFT for wavefunctions:
    minimum data exchange during FFTs selected (reduces bandwidth)
 parallel 3D FFT for charge:
    minimum data exchange during FFTs selected (reduces bandwidth)


 total amount of memory used by VASP MPI-rank0    41328. kBytes
=======================================================================

   base      :      30000. kBytes
   nonl-proj :       2822. kBytes
   fftplans  :       4589. kBytes
   grid      :       2514. kBytes
   one-center:          3. kBytes
   wavefun   :       1400. kBytes
 
     INWAV:  cpu time    0.0000: real time    0.0001
 Broyden mixing: mesh for mixing (old mesh)
   NGX = 11   NGY = 11   NGZ = 93
  (NGX  = 48   NGY  = 48   NGZ  =384)
  gives a total of  11253 points

 initial charge density was supplied:
 charge density of overlapping atoms calculated
 number of electron      16.0000000 magnetization 
 keeping initial charge density in first step


--------------------------------------------------------------------------------------------------------


 Maximum index for augmentation-charges         3270 (set IRDMAX)


--------------------------------------------------------------------------------------------------------


 First call to EWALD:  gamma=   0.376
 Maximum number of real-space cells 5x 5x 1
 Maximum number of reciprocal cells 2x 2x10

    FEWALD:  cpu time    0.0013: real time    0.0013


--------------------------------------- Iteration      1(   1)  ---------------------------------------


    POTLOK:  cpu time    0.0203: real time    0.0373
    SETDIJ:  cpu time    0.0095: real time    0.0095
     EDDAV:  cpu time    0.2382: real time    0.2388
       DOS:  cpu time    0.0005: real time    0.0005
    --------------------------------------------
      LOOP:  cpu time    0.2686: real time    0.2862

 eigenvalue-minimisations  :  1152
 total energy-change (2. order) : 0.1130698E+03  (-0.8731683E+03)
 number of electron      16.0000000 magnetization 
 augmentation part       16.0000000 magnetization 

 Free energy of the ion-electron system (eV)
  ---------------------------------------------------
  alpha Z        PSCENC =        12.44266281
  Ewald energy   TEWEN  =      2473.15002607
  -Hartree energ DENC   =     -2934.89885930
  -exchange      EXHF   =         0.00000000
  -V(xc)+E(xc)   XCENC  =        55.19718424
  PAW double counting   =       151.32577238     -155.92769107
  entropy T*S    EENTRO =        -0.00004944
  eigenvalues    EBANDS =       -76.83694712
  atomic energy  EATOM  =       588.61769381
  Solvation  Ediel_sol  =         0.00000000
  ---------------------------------------------------
  free energy    TOTEN  =       113.06979238 eV

  energy without entropy =      113.06984182  energy(sigma->0) =      113.06981710


--------------------------------------------------------------------------------------------------------




--------------------------------------- Iteration      1(   2)  ---------------------------------------


     EDDAV:  cpu time    0.3330: real time    0.3339
       DOS:  cpu time    0.0002: real time    0.0002
    --------------------------------------------
      LOOP:  cpu time    0.3333: real time    0.3341

 eigenvalue-minimisations  :  1884
 total energy-change (2. order) :-0.1451198E+03  (-0.1326129E+03)
 number of electron      16.0000000 magnetization 
 augmentation part       16.0000000 magnetization 

 Free energy of the ion-electron system (eV)
  ---------------------------------------------------
  alpha Z        PSCENC =        12.44266281
  Ewald energy   TEWEN  =      2473.15002607
  -Hartree energ DENC   =     -2934.89885930
  -exchange      EXHF   =         0.00000000
  -V(xc)+E(xc)   XCENC  =        55.19718424
  PAW double counting   =       151.32577238     -155.92769107
  entropy T*S    EENTRO =        -0.00000000
  eigenvalues    EBANDS =      -221.95677231
  atomic energy  EATOM  =       588.61769381
  Solvation  Ediel_sol  =         0.00000000
  ---------------------------------------------------
  free energy    TOTEN  =       -32.04998337 eV

  energy without entropy =      -32.04998337  energy(sigma->0) =      -32.04998337


--------------------------------------------------------------------------------------------------------




--------------------------------------- Iteration      1(   3)  ---------------------------------------


     EDDAV:  cpu time    0.2763: real time    0.2771
       DOS:  cpu time    0.0004: real time    0.0004
    --------------------------------------------
      LOOP:  cpu time    0.2767: real time    0.2775

 eigenvalue-minimisations  :  1572
 total energy-change (2. order) :-0.7411024E+01  (-0.7411024E+01)
 number of electron      16.0000000 magnetization 
 augmentation part       16.0000000 magnetization 

 Free energy of the ion-electron system (eV)
  ---------------------------------------------------
  alpha Z        PSCENC =        12.44266281
  Ewald energy   TEWEN  =      2473.15002607
  -Hartree energ DENC   =     -2934.89885930
  -exchange      EXHF   =         0.00000000
  -V(xc)+E(xc)   XCENC  =        55.19718424
  PAW double counting   =       151.32577238     -155.92769107
  entropy T*S    EENTRO =        -0.00000055
  eigenvalues    EBANDS =      -229.36779532
  atomic energy  EATOM  =       588.61769381
  Solvation  Ediel_sol  =         0.00000000
  ---------------------------------------------------
  free energy    TOTEN  =       -39.46100693 eV

  energy without entropy =      -39.46100638  energy(sigma->0) =      -39.46100666


--------------------------------------------------------------------------------------------------------




--------------------------------------- Iteration      1(   4)  ---------------------------------------


     EDDAV:  cpu time    0.3522: real time    0.3531
       DOS:  cpu time    0.0004: real time    0.0004
    --------------------------------------------
      LOOP:  cpu time    0.3526: real time    0.3535

 eigenvalue-minimisations  :  2040
 total energy-change (2. order) :-0.6083857E-01  (-0.6083847E-01)
 number of electron      16.0000000 magnetization 
 augmentation part       16.0000000 magnetization 

 Free energy of the ion-electron system (eV)
  ---------------------------------------------------
  alpha Z        PSCENC =        12.44266281
  Ewald energy   TEWEN  =      2473.15002607
  -Hartree energ DENC   =     -2934.89885930
  -exchange      EXHF   =         0.00000000
  -V(xc)+E(xc)   XCENC  =        55.19718424
  PAW double counting   =       151.32577238     -155.92769107
  entropy T*S    EENTRO =        -0.00000004
  eigenvalues    EBANDS =      -229.42863440
  atomic energy  EATOM  =       588.61769381
  Solvation  Ediel_sol  =         0.00000000
  ---------------------------------------------------
  free energy    TOTEN  =       -39.52184551 eV

  energy without entropy =      -39.52184546  energy(sigma->0) =      -39.52184548


--------------------------------------------------------------------------------------------------------




--------------------------------------- Iteration      1(   5)  ---------------------------------------


     EDDAV:  cpu time    0.3354: real time    0.3363
       DOS:  cpu time    0.0005: real time    0.0005
    CHARGE:  cpu time    0.0333: real time    0.0333
    MIXING:  cpu time    0.0006: real time    0.0006
    --------------------------------------------
      LOOP:  cpu time    0.3698: real time    0.3707

 eigenvalue-minimisations  :  1740
 total energy-change (2. order) :-0.5294708E-04  (-0.5294696E-04)
 number of electron      16.0000000 magnetization 
 augmentation part        0.4290741 magnetization 

 Broyden mixing:
  rms(total) = 0.78959E+00    rms(broyden)= 0.78958E+00
  rms(prec ) = 0.86043E+00
  weight for this iteration     100.00

 Free energy of the ion-electron system (eV)
  ---------------------------------------------------
  alpha Z        PSCENC =        12.44266281
  Ewald energy   TEWEN  =      2473.15002607
  -Hartree energ DENC   =     -2934.89885930
  -exchange      EXHF   =         0.00000000
  -V(xc)+E(xc)   XCENC  =        55.19718424
  PAW double counting   =       151.32577238     -155.92769107
  entropy T*S    EENTRO =        -0.00000004
  eigenvalues    EBANDS =      -229.42868735
  atomic energy  EATOM  =       588.61769381
  Solvation  Ediel_sol  =         0.00000000
  ---------------------------------------------------
  free energy    TOTEN  =       -39.52189845 eV

  energy without entropy =      -39.52189841  energy(sigma->0) =      -39.52189843


--------------------------------------------------------------------------------------------------------




--------------------------------------- Iteration      1(   6)  ---------------------------------------


    POTLOK:  cpu time    0.0127: real time    0.0128
    SETDIJ:  cpu time    0.0056: real time    0.0056
     EDDAV:  cpu time    0.3846: real time    0.3856
       DOS:  cpu time    0.0003: real time    0.0003
    CHARGE:  cpu time    0.0343: real time    0.0344
    MIXING:  cpu time    0.0013: real time    0.0013
    --------------------------------------------
      LOOP:  cpu time    0.4389: real time    0.4401

 eigenvalue-minimisations  :  1824
 total energy-change (2. order) : 0.1894284E+01  (-0.1902554E+00)
 number of electron      16.0000000 magnetization 
 augmentation part        0.4084220 magnetization 

 Broyden mixing:
  rms(total) = 0.41451E+00    rms(broyden)= 0.41451E+00
  rms(prec ) = 0.45299E+00
  weight for this iteration     100.00

 eigenvalues of (default mixing * dielectric matrix)
  average eigenvalue GAMMA=   2.0318
  2.0318

 Free energy of the ion-electron system (eV)
  ---------------------------------------------------
  alpha Z        PSCENC =        12.44266281
  Ewald energy   TEWEN  =      2473.15002607
  -Hartree energ DENC   =     -2955.45222678
  -exchange      EXHF   =         0.00000000
  -V(xc)+E(xc)   XCENC  =        56.22978640
  PAW double counting   =       206.40406997     -211.37642653
  entropy T*S    EENTRO =        -0.00000000
  eigenvalues    EBANDS =      -207.64320053
  atomic energy  EATOM  =       588.61769381
  Solvation  Ediel_sol  =         0.00000000
  ---------------------------------------------------
  free energy    TOTEN  =       -37.62761478 eV

  energy without entropy =      -37.62761478  energy(sigma->0) =      -37.62761478


--------------------------------------------------------------------------------------------------------




--------------------------------------- Iteration      1(   7)  ---------------------------------------


    POTLOK:  cpu time    0.0133: real time    0.0134
    SETDIJ:  cpu time    0.0063: real time    0.0063
     EDDAV:  cpu time    0.3623: real time    0.3632
       DOS:  cpu time    0.0003: real time    0.0002
    CHARGE:  cpu time    0.0328: real time    0.0329
    MIXING:  cpu time    0.0006: real time    0.0006
    --------------------------------------------
      LOOP:  cpu time    0.4156: real time    0.4167

 eigenvalue-minimisations  :  1980
 total energy-change (2. order) : 0.6936137E+00  (-0.2166200E+00)
 number of electron      16.0000000 magnetization 
 augmentation part        0.3863152 magnetization 

 Broyden mixing:
  rms(total) = 0.71456E-01    rms(broyden)= 0.71453E-01
  rms(prec ) = 0.80545E-01
  weight for this iteration     100.00

 eigenvalues of (default mixing * dielectric matrix)
  average eigenvalue GAMMA=   2.2104
  2.1383  2.2824

 Free energy of the ion-electron system (eV)
  ---------------------------------------------------
  alpha Z        PSCENC =        12.44266281
  Ewald energy   TEWEN  =      2473.15002607
  -Hartree energ DENC   =     -2980.31818868
  -exchange      EXHF   =         0.00000000
  -V(xc)+E(xc)   XCENC  =        57.47597752
  PAW double counting   =       276.08000821     -281.35445647
  entropy T*S    EENTRO =        -0.00000000
  eigenvalues    EBANDS =      -183.02772439
  atomic energy  EATOM  =       588.61769381
  Solvation  Ediel_sol  =         0.00000000
  ---------------------------------------------------
  free energy    TOTEN  =       -36.93400112 eV

  energy without entropy =      -36.93400112  energy(sigma->0) =      -36.93400112


--------------------------------------------------------------------------------------------------------




--------------------------------------- Iteration      1(   8)  ---------------------------------------


    POTLOK:  cpu time    0.0123: real time    0.0124
    SETDIJ:  cpu time    0.0055: real time    0.0055
     EDDAV:  cpu time    0.3078: real time    0.3085
       DOS:  cpu time    0.0002: real time    0.0002
    CHARGE:  cpu time    0.0313: real time    0.0314
    MIXING:  cpu time    0.0011: real time    0.0011
    --------------------------------------------
      LOOP:  cpu time    0.3581: real time    0.3591

 eigenvalue-minimisations  :  1752
 total energy-change (2. order) : 0.5608485E-02  (-0.1717189E-02)
 number of electron      16.0000000 magnetization 
 augmentation part        0.3859903 magnetization 

 Broyden mixing:
  rms(total) = 0.10787E-01    rms(broyden)= 0.10787E-01
  rms(prec ) = 0.26172E-01
  weight for this iteration     100.00

 eigenvalues of (default mixing * dielectric matrix)
  average eigenvalue GAMMA=   1.9625
  1.2372  2.6426  2.0076

 Free energy of the ion-electron system (eV)
  ---------------------------------------------------
  alpha Z        PSCENC =        12.44266281
  Ewald energy   TEWEN  =      2473.15002607
  -Hartree energ DENC   =     -2983.80547608
  -exchange      EXHF   =         0.00000000
  -V(xc)+E(xc)   XCENC  =        57.54283144
  PAW double counting   =       280.00092847     -285.16486194
  entropy T*S    EENTRO =        -0.00000000
  eigenvalues    EBANDS =      -179.71219721
  atomic energy  EATOM  =       588.61769381
  Solvation  Ediel_sol  =         0.00000000
  ---------------------------------------------------
  free energy    TOTEN  =       -36.92839263 eV

  energy without entropy =      -36.92839263  energy(sigma->0) =      -36.92839263


--------------------------------------------------------------------------------------------------------




--------------------------------------- Iteration      1(   9)  ---------------------------------------


    POTLOK:  cpu time    0.0121: real time    0.0122
    SETDIJ:  cpu time    0.0057: real time    0.0057
     EDDAV:  cpu time    0.3237: real time    0.3245
       DOS:  cpu time    0.0002: real time    0.0002
    CHARGE:  cpu time    0.0310: real time    0.0311
    MIXING:  cpu time    0.0012: real time    0.0012
    --------------------------------------------
      LOOP:  cpu time    0.3738: real time    0.3748

 eigenvalue-minimisations  :  1836
 total energy-change (2. order) : 0.3134519E-02  (-0.2005369E-03)
 number of electron      16.0000000 magnetization 
 augmentation part        0.3854949 magnetization 

 Broyden mixing:
  rms(total) = 0.74824E-02    rms(broyden)= 0.74824E-02
  rms(prec ) = 0.22072E-01
  weight for this iteration     100.00

 eigenvalues of (default mixing * dielectric matrix)
  average eigenvalue GAMMA=   2.1529
  0.9725  3.2078  2.4558  1.9756

 Free energy of the ion-electron system (eV)
  ---------------------------------------------------
  alpha Z        PSCENC =        12.44266281
  Ewald energy   TEWEN  =      2473.15002607
  -Hartree energ DENC   =     -2985.66294500
  -exchange      EXHF   =         0.00000000
  -V(xc)+E(xc)   XCENC  =        57.58655091
  PAW double counting   =       281.05392416     -286.21367531
  entropy T*S    EENTRO =        -0.00000000
  eigenvalues    EBANDS =      -177.89949557
  atomic energy  EATOM  =       588.61769381
  Solvation  Ediel_sol  =         0.00000000
  ---------------------------------------------------
  free energy    TOTEN  =       -36.92525811 eV

  energy without entropy =      -36.92525811  energy(sigma->0) =      -36.92525811


--------------------------------------------------------------------------------------------------------




--------------------------------------- Iteration      1(  10)  ---------------------------------------


    POTLOK:  cpu time    0.0121: real time    0.0122
    SETDIJ:  cpu time    0.0054: real time    0.0054
     EDDAV:  cpu time    0.2711: real time    0.2717
       DOS:  cpu time    0.0002: real time    0.0002
    CHARGE:  cpu time    0.0315: real time    0.0316
    MIXING:  cpu time    0.0010: real time    0.0010
    --------------------------------------------
      LOOP:  cpu time    0.3213: real time    0.3221

 eigenvalue-minimisations  :  1548
 total energy-change (2. order) : 0.4969806E-02  (-0.3457031E-03)
 number of electron      16.0000000 magnetization 
 augmentation part        0.3850716 magnetization 

 Broyden mixing:
  rms(total) = 0.51633E-02    rms(broyden)= 0.51632E-02
  rms(prec ) = 0.15924E-01
  weight for this iteration     100.00

 eigenvalues of (default mixing * dielectric matrix)
  average eigenvalue GAMMA=   2.0454
  3.4110  2.5022  1.9516  0.9856  1.3766

 Free energy of the ion-electron system (eV)
  ---------------------------------------------------
  alpha Z        PSCENC =        12.44266281
  Ewald energy   TEWEN  =      2473.15002607
  -Hartree energ DENC   =     -2989.42025382
  -exchange      EXHF   =         0.00000000
  -V(xc)+E(xc)   XCENC  =        57.63251381
  PAW double counting   =       279.81785514     -284.98234220
  entropy T*S    EENTRO =        -0.00000000
  eigenvalues    EBANDS =      -174.17844394
  atomic energy  EATOM  =       588.61769381
  Solvation  Ediel_sol  =         0.00000000
  ---------------------------------------------------
  free energy    TOTEN  =       -36.92028831 eV

  energy without entropy =      -36.92028831  energy(sigma->0) =      -36.92028831


--------------------------------------------------------------------------------------------------------




--------------------------------------- Iteration      1(  11)  ---------------------------------------


    POTLOK:  cpu time    0.0118: real time    0.0120
    SETDIJ:  cpu time    0.0056: real time    0.0056
     EDDAV:  cpu time    0.2328: real time    0.2334
       DOS:  cpu time    0.0002: real time    0.0002
    CHARGE:  cpu time    0.0312: real time    0.0313
    MIXING:  cpu time    0.0009: real time    0.0009
    --------------------------------------------
      LOOP:  cpu time    0.2826: real time    0.2834

 eigenvalue-minimisations  :  1260
 total energy-change (2. order) : 0.3618757E-02  (-0.2534184E-03)
 number of electron      16.0000000 magnetization 
 augmentation part        0.3850830 magnetization 

 Broyden mixing:
  rms(total) = 0.34845E-02    rms(broyden)= 0.34845E-02
  rms(prec ) = 0.11017E-01
  weight for this iteration     100.00

 eigenvalues of (default mixing * dielectric matrix)
  average eigenvalue GAMMA=   2.3721
  5.0849  2.7689  2.3454  1.9658  1.0138  1.0536

 Free energy of the ion-electron system (eV)
  ---------------------------------------------------
  alpha Z        PSCENC =        12.44266281
  Ewald energy   TEWEN  =      2473.15002607
  -Hartree energ DENC   =     -2991.94438251
  -exchange      EXHF   =         0.00000000
  -V(xc)+E(xc)   XCENC  =        57.63163115
  PAW double counting   =       279.70053716     -284.86182296
  entropy T*S    EENTRO =        -0.00000000
  eigenvalues    EBANDS =      -171.65301509
  atomic energy  EATOM  =       588.61769381
  Solvation  Ediel_sol  =         0.00000000
  ---------------------------------------------------
  free energy    TOTEN  =       -36.91666955 eV

  energy without entropy =      -36.91666955  energy(sigma->0) =      -36.91666955


--------------------------------------------------------------------------------------------------------




--------------------------------------- Iteration      1(  12)  ---------------------------------------


    POTLOK:  cpu time    0.0114: real time    0.0115
    SETDIJ:  cpu time    0.0056: real time    0.0056
     EDDAV:  cpu time    0.2478: real time    0.2484
       DOS:  cpu time    0.0002: real time    0.0002
    CHARGE:  cpu time    0.0317: real time    0.0318
    MIXING:  cpu time    0.0011: real time    0.0011
    --------------------------------------------
      LOOP:  cpu time    0.2978: real time    0.2986

 eigenvalue-minimisations  :  1404
 total energy-change (2. order) : 0.1413896E-02  (-0.8859718E-04)
 number of electron      16.0000000 magnetization 
 augmentation part        0.3850162 magnetization 

 Broyden mixing:
  rms(total) = 0.30385E-02    rms(broyden)= 0.30385E-02
  rms(prec ) = 0.82134E-02
  weight for this iteration     100.00

 eigenvalues of (default mixing * dielectric matrix)
  average eigenvalue GAMMA=   2.6940
  7.2482  3.2029  2.5076  1.9618  1.9618  0.9877  0.9877

 Free energy of the ion-electron system (eV)
  ---------------------------------------------------
  alpha Z        PSCENC =        12.44266281
  Ewald energy   TEWEN  =      2473.15002607
  -Hartree energ DENC   =     -2994.04340938
  -exchange      EXHF   =         0.00000000
  -V(xc)+E(xc)   XCENC  =        57.63365770
  PAW double counting   =       279.77610277     -284.93780096
  entropy T*S    EENTRO =        -0.00000000
  eigenvalues    EBANDS =      -169.55418848
  atomic energy  EATOM  =       588.61769381
  Solvation  Ediel_sol  =         0.00000000
  ---------------------------------------------------
  free energy    TOTEN  =       -36.91525565 eV

  energy without entropy =      -36.91525565  energy(sigma->0) =      -36.91525565


--------------------------------------------------------------------------------------------------------




--------------------------------------- Iteration      1(  13)  ---------------------------------------


    POTLOK:  cpu time    0.0113: real time    0.0114
    SETDIJ:  cpu time    0.0056: real time    0.0056
     EDDAV:  cpu time    0.2931: real time    0.2938
       DOS:  cpu time    0.0002: real time    0.0002
    CHARGE:  cpu time    0.0317: real time    0.0318
    MIXING:  cpu time    0.0011: real time    0.0011
    --------------------------------------------
      LOOP:  cpu time    0.3431: real time    0.3440

 eigenvalue-minimisations  :  1560
 total energy-change (2. order) :-0.6353407E-03  (-0.4367643E-04)
 number of electron      16.0000000 magnetization 
 augmentation part        0.3849741 magnetization 

 Broyden mixing:
  rms(total) = 0.24414E-02    rms(broyden)= 0.24414E-02
  rms(prec ) = 0.53751E-02
  weight for this iteration     100.00

 eigenvalues of (default mixing * dielectric matrix)
  average eigenvalue GAMMA=   3.1791
 10.2534  4.2000  2.9033  2.4488  0.9953  0.9953  1.8987  1.7377

 Free energy of the ion-electron system (eV)
  ---------------------------------------------------
  alpha Z        PSCENC =        12.44266281
  Ewald energy   TEWEN  =      2473.15002607
  -Hartree energ DENC   =     -2995.71674330
  -exchange      EXHF   =         0.00000000
  -V(xc)+E(xc)   XCENC  =        57.63355888
  PAW double counting   =       280.02627769     -285.18717277
  entropy T*S    EENTRO =        -0.00000000
  eigenvalues    EBANDS =      -167.88219419
  atomic energy  EATOM  =       588.61769381
  Solvation  Ediel_sol  =         0.00000000
  ---------------------------------------------------
  free energy    TOTEN  =       -36.91589099 eV

  energy without entropy =      -36.91589099  energy(sigma->0) =      -36.91589099


--------------------------------------------------------------------------------------------------------




--------------------------------------- Iteration      1(  14)  ---------------------------------------


    POTLOK:  cpu time    0.0114: real time    0.0116
    SETDIJ:  cpu time    0.0056: real time    0.0056
     EDDAV:  cpu time    0.3175: real time    0.3183
       DOS:  cpu time    0.0002: real time    0.0002
    CHARGE:  cpu time    0.0323: real time    0.0323
    MIXING:  cpu time    0.0015: real time    0.0015
    --------------------------------------------
      LOOP:  cpu time    0.3685: real time    0.3695

 eigenvalue-minimisations  :  1572
 total energy-change (2. order) :-0.1415960E-02  (-0.5706368E-04)
 number of electron      16.0000000 magnetization 
 augmentation part        0.3849478 magnetization 

 Broyden mixing:
  rms(total) = 0.14371E-02    rms(broyden)= 0.14371E-02
  rms(prec ) = 0.19624E-02
  weight for this iteration     100.00

 eigenvalues of (default mixing * dielectric matrix)
  average eigenvalue GAMMA=   3.6280
 14.3844  5.0746  2.8792  2.4304  2.4304  0.9957  0.9957  1.8049  1.6568

 Free energy of the ion-electron system (eV)
  ---------------------------------------------------
  alpha Z        PSCENC =        12.44266281
  Ewald energy   TEWEN  =      2473.15002607
  -Hartree energ DENC   =     -2997.43293263
  -exchange      EXHF   =         0.00000000
  -V(xc)+E(xc)   XCENC  =        57.63615337
  PAW double counting   =       279.79814070     -284.95784677
  entropy T*S    EENTRO =        -0.00000000
  eigenvalues    EBANDS =      -166.17120432
  atomic energy  EATOM  =       588.61769381
  Solvation  Ediel_sol  =         0.00000000
  ---------------------------------------------------
  free energy    TOTEN  =       -36.91730695 eV

  energy without entropy =      -36.91730695  energy(sigma->0) =      -36.91730695


--------------------------------------------------------------------------------------------------------




--------------------------------------- Iteration      1(  15)  ---------------------------------------


    POTLOK:  cpu time    0.0115: real time    0.0117
    SETDIJ:  cpu time    0.0057: real time    0.0057
     EDDAV:  cpu time    0.3122: real time    0.3130
       DOS:  cpu time    0.0002: real time    0.0002
    CHARGE:  cpu time    0.0337: real time    0.0337
    MIXING:  cpu time    0.0039: real time    0.0039
    --------------------------------------------
      LOOP:  cpu time    0.3672: real time    0.3682

 eigenvalue-minimisations  :  1548
 total energy-change (2. order) :-0.2678027E-03  (-0.9628331E-05)
 number of electron      16.0000000 magnetization 
 augmentation part        0.3849015 magnetization 

 Broyden mixing:
  rms(total) = 0.79189E-03    rms(broyden)= 0.79189E-03
  rms(prec ) = 0.10682E-02
  weight for this iteration     100.00

 eigenvalues of (default mixing * dielectric matrix)
  average eigenvalue GAMMA=   4.3467
 21.5321  6.8564  3.3146  2.6237  2.4562  1.9755  1.6475  0.9917  0.9917  1.0776

 Free energy of the ion-electron system (eV)
  ---------------------------------------------------
  alpha Z        PSCENC =        12.44266281
  Ewald energy   TEWEN  =      2473.15002607
  -Hartree energ DENC   =     -2997.21612849
  -exchange      EXHF   =         0.00000000
  -V(xc)+E(xc)   XCENC  =        57.63654089
  PAW double counting   =       279.90651923     -285.06850907
  entropy T*S    EENTRO =        -0.00000000
  eigenvalues    EBANDS =      -166.38638001
  atomic energy  EATOM  =       588.61769381
  Solvation  Ediel_sol  =         0.00000000
  ---------------------------------------------------
  free energy    TOTEN  =       -36.91757476 eV

  energy without entropy =      -36.91757476  energy(sigma->0) =      -36.91757476


--------------------------------------------------------------------------------------------------------




--------------------------------------- Iteration      1(  16)  ---------------------------------------


    POTLOK:  cpu time    0.0157: real time    0.0158
    SETDIJ:  cpu time    0.0076: real time    0.0076
     EDDAV:  cpu time    0.3071: real time    0.3079
       DOS:  cpu time    0.0002: real time    0.0002
    CHARGE:  cpu time    0.0333: real time    0.0334
    MIXING:  cpu time    0.0016: real time    0.0016
    --------------------------------------------
      LOOP:  cpu time    0.3656: real time    0.3665

 eigenvalue-minimisations  :  1644
 total energy-change (2. order) :-0.1586893E-03  (-0.8789245E-06)
 number of electron      16.0000000 magnetization 
 augmentation part        0.3849042 magnetization 

 Broyden mixing:
  rms(total) = 0.17091E-03    rms(broyden)= 0.17091E-03
  rms(prec ) = 0.24388E-03
  weight for this iteration     100.00

 eigenvalues of (default mixing * dielectric matrix)
  average eigenvalue GAMMA=   4.3043
 23.1640  6.8828  3.2590  2.9808  2.3724  1.9928  1.9928  1.6821  0.9784  0.9963
  1.0461

 Free energy of the ion-electron system (eV)
  ---------------------------------------------------
  alpha Z        PSCENC =        12.44266281
  Ewald energy   TEWEN  =      2473.15002607
  -Hartree energ DENC   =     -2997.50830713
  -exchange      EXHF   =         0.00000000
  -V(xc)+E(xc)   XCENC  =        57.63681017
  PAW double counting   =       279.83922554     -285.00034155
  entropy T*S    EENTRO =        -0.00000000
  eigenvalues    EBANDS =      -166.09550318
  atomic energy  EATOM  =       588.61769381
  Solvation  Ediel_sol  =         0.00000000
  ---------------------------------------------------
  free energy    TOTEN  =       -36.91773345 eV

  energy without entropy =      -36.91773345  energy(sigma->0) =      -36.91773345


--------------------------------------------------------------------------------------------------------




--------------------------------------- Iteration      1(  17)  ---------------------------------------


    POTLOK:  cpu time    0.0115: real time    0.0116
    SETDIJ:  cpu time    0.0059: real time    0.0059
     EDDAV:  cpu time    0.2902: real time    0.2909
       DOS:  cpu time    0.0002: real time    0.0002
    CHARGE:  cpu time    0.0313: real time    0.0314
    MIXING:  cpu time    0.0013: real time    0.0013
    --------------------------------------------
      LOOP:  cpu time    0.3404: real time    0.3413

 eigenvalue-minimisations  :  1656
 total energy-change (2. order) :-0.2791984E-04  (-0.1344636E-06)
 number of electron      16.0000000 magnetization 
 augmentation part        0.3849099 magnetization 

 Broyden mixing:
  rms(total) = 0.84840E-04    rms(broyden)= 0.84839E-04
  rms(prec ) = 0.10535E-03
  weight for this iteration     100.00

 eigenvalues of (default mixing * dielectric matrix)
  average eigenvalue GAMMA=   4.1804
 23.6630  6.9553  3.7458  3.1426  2.6190  2.4399  1.9681  1.6005  0.9610  0.9890
  1.0040  1.0764

 Free energy of the ion-electron system (eV)
  ---------------------------------------------------
  alpha Z        PSCENC =        12.44266281
  Ewald energy   TEWEN  =      2473.15002607
  -Hartree energ DENC   =     -2997.50562984
  -exchange      EXHF   =         0.00000000
  -V(xc)+E(xc)   XCENC  =        57.63630458
  PAW double counting   =       279.83366939     -284.99473894
  entropy T*S    EENTRO =        -0.00000000
  eigenvalues    EBANDS =      -166.09774926
  atomic energy  EATOM  =       588.61769381
  Solvation  Ediel_sol  =         0.00000000
  ---------------------------------------------------
  free energy    TOTEN  =       -36.91776137 eV

  energy without entropy =      -36.91776137  energy(sigma->0) =      -36.91776137


--------------------------------------------------------------------------------------------------------




--------------------------------------- Iteration      1(  18)  ---------------------------------------


    POTLOK:  cpu time    0.0112: real time    0.0114
    SETDIJ:  cpu time    0.0053: real time    0.0053
     EDDAV:  cpu time    0.2562: real time    0.2568
       DOS:  cpu time    0.0002: real time    0.0002
    CHARGE:  cpu time    0.0315: real time    0.0316
    MIXING:  cpu time    0.0011: real time    0.0011
    --------------------------------------------
      LOOP:  cpu time    0.3055: real time    0.3064

 eigenvalue-minimisations  :  1452
 total energy-change (2. order) :-0.7521887E-05  (-0.1659997E-07)
 number of electron      16.0000000 magnetization 
 augmentation part        0.3849088 magnetization 

 Broyden mixing:
  rms(total) = 0.22655E-04    rms(broyden)= 0.22652E-04
  rms(prec ) = 0.29448E-04
  weight for this iteration     100.00

 eigenvalues of (default mixing * dielectric matrix)
  average eigenvalue GAMMA=   4.0958
 23.6781  6.9861  4.2005  3.1714  2.5460  2.5344  2.5344  1.9576  1.6138  0.9843
  1.0029  1.0029  1.0327

 Free energy of the ion-electron system (eV)
  ---------------------------------------------------
  alpha Z        PSCENC =        12.44266281
  Ewald energy   TEWEN  =      2473.15002607
  -Hartree energ DENC   =     -2997.51437454
  -exchange      EXHF   =         0.00000000
  -V(xc)+E(xc)   XCENC  =        57.63644282
  PAW double counting   =       279.84354397     -285.00457754
  entropy T*S    EENTRO =        -0.00000000
  eigenvalues    EBANDS =      -166.08918629
  atomic energy  EATOM  =       588.61769381
  Solvation  Ediel_sol  =         0.00000000
  ---------------------------------------------------
  free energy    TOTEN  =       -36.91776889 eV

  energy without entropy =      -36.91776889  energy(sigma->0) =      -36.91776889


--------------------------------------------------------------------------------------------------------




--------------------------------------- Iteration      1(  19)  ---------------------------------------


    POTLOK:  cpu time    0.0121: real time    0.0122
    SETDIJ:  cpu time    0.0054: real time    0.0054
     EDDAV:  cpu time    0.3108: real time    0.3115
       DOS:  cpu time    0.0003: real time    0.0003
    CHARGE:  cpu time    0.0323: real time    0.0324
    MIXING:  cpu time    0.0015: real time    0.0015
    --------------------------------------------
      LOOP:  cpu time    0.3623: real time    0.3633

 eigenvalue-minimisations  :  1656
 total energy-change (2. order) :-0.6521675E-06  (-0.3779382E-08)
 number of electron      16.0000000 magnetization 
 augmentation part        0.3849081 magnetization 

 Broyden mixing:
  rms(total) = 0.10902E-04    rms(broyden)= 0.10895E-04
  rms(prec ) = 0.11983E-04
  weight for this iteration     100.00

 eigenvalues of (default mixing * dielectric matrix)
  average eigenvalue GAMMA=   3.9098
 23.6945  6.9747  4.3116  3.1360  3.0450  2.5438  2.4410  1.9681  1.6118  1.0553
  1.0077  0.9880  0.9796  0.9796

 Free energy of the ion-electron system (eV)
  ---------------------------------------------------
  alpha Z        PSCENC =        12.44266281
  Ewald energy   TEWEN  =      2473.15002607
  -Hartree energ DENC   =     -2997.51881361
  -exchange      EXHF   =         0.00000000
  -V(xc)+E(xc)   XCENC  =        57.63649742
  PAW double counting   =       279.84106769     -285.00209764
  entropy T*S    EENTRO =        -0.00000000
  eigenvalues    EBANDS =      -166.08480609
  atomic energy  EATOM  =       588.61769381
  Solvation  Ediel_sol  =         0.00000000
  ---------------------------------------------------
  free energy    TOTEN  =       -36.91776954 eV

  energy without entropy =      -36.91776954  energy(sigma->0) =      -36.91776954


--------------------------------------------------------------------------------------------------------




--------------------------------------- Iteration      1(  20)  ---------------------------------------


    POTLOK:  cpu time    0.0119: real time    0.0120
    SETDIJ:  cpu time    0.0057: real time    0.0057
     EDDAV:  cpu time    0.3406: real time    0.3414
       DOS:  cpu time    0.0002: real time    0.0002
    --------------------------------------------
      LOOP:  cpu time    0.3584: real time    0.3594

 eigenvalue-minimisations  :  1704
 total energy-change (2. order) : 0.2828529E-09  (-0.2130220E-09)
 number of electron      16.0000000 magnetization 
 augmentation part        0.3849081 magnetization 

 Free energy of the ion-electron system (eV)
  ---------------------------------------------------
  alpha Z        PSCENC =        12.44266281
  Ewald energy   TEWEN  =      2473.15002607
  -Hartree energ DENC   =     -2997.51838630
  -exchange      EXHF   =         0.00000000
  -V(xc)+E(xc)   XCENC  =        57.63647479
  PAW double counting   =       279.83956042     -285.00057435
  entropy T*S    EENTRO =        -0.00000000
  eigenvalues    EBANDS =      -166.08522680
  atomic energy  EATOM  =       588.61769381
  Solvation  Ediel_sol  =         0.00000000
  ---------------------------------------------------
  free energy    TOTEN  =       -36.91776954 eV

  energy without entropy =      -36.91776954  energy(sigma->0) =      -36.91776954


--------------------------------------------------------------------------------------------------------




 average (electrostatic) potential at core
  the test charge radii are     0.6991
  (the norm of the test charge is              1.0000)
       1 -56.6349       2 -56.6349       3 -56.6349       4 -56.6349
 
 
 
 E-fermi :  -1.2197     XC(G=0):  -4.0318     alpha+bet : -3.8326


 k-point     1 :       0.0000    0.0000    0.0000
  band No.  band energies     occupation 
      1     -20.7948      2.00000
      2     -20.7831      2.00000
      3      -8.9732      2.00000
      4      -8.7915      2.00000
      5      -4.2421      2.00000
      6      -4.2421      2.00000
      7      -4.2417      2.00000
      8      -4.2416      2.00000
      9       1.9307      0.00000
     10       2.4889      0.00000
     11       3.1071      0.00000
     12       4.0016      0.00000

 k-point     2 :       0.0476    0.0000    0.0000
  band No.  band energies     occupation 
      1     -20.7410      2.00000
      2     -20.7293      2.00000
      3      -8.9086      2.00000
      4      -8.7273      2.00000
      5      -4.4631      2.00000
      6      -4.4624      2.00000
      7      -4.3590      2.00000
      8      -4.3585      2.00000
      9       2.0028      0.00000
     10       2.5621      0.00000
     11       3.1804      0.00000
     12       4.0739      0.00000

 k-point     3 :       0.0952    0.0000    0.0000
  band No.  band energies     occupation 
      1     -20.5796      2.00000
      2     -20.5680      2.00000
      3      -8.7150      2.00000
      4      -8.5354      2.00000
      5      -5.0831      2.00000
      6      -5.0821      2.00000
      7      -4.6789      2.00000
      8      -4.6782      2.00000
      9       2.2191      0.00000
     10       2.7817      0.00000
     11       3.4004      0.00000
     12       4.2907      0.00000

 k-point     4 :       0.1429    0.0000    0.0000
  band No.  band energies     occupation 
      1     -20.3112      2.00000
      2     -20.2999      2.00000
      3      -8.3943      2.00000
      4      -8.2173      2.00000
      5      -6.0028      2.00000
      6      -6.0012      2.00000
      7      -5.1305      2.00000
      8      -5.1298      2.00000
      9       2.5796      0.00000
     10       3.1474      0.00000
     11       3.7666      0.00000
     12       4.6512      0.00000

 k-point     5 :       0.1905    0.0000    0.0000
  band No.  band energies     occupation 
      1     -19.9368      2.00000
      2     -19.9259      2.00000
      3      -7.9494      2.00000
      4      -7.7765      2.00000
      5      -7.1157      2.00000
      6      -7.1136      2.00000
      7      -5.6393      2.00000
      8      -5.6385      2.00000
      9       3.0837      0.00000
     10       3.6583      0.00000
     11       4.2778      0.00000
     12       5.1521      0.00000

 k-point     6 :       0.2381    0.0000    0.0000
  band No.  band energies     occupation 
      1     -19.4580      2.00000
      2     -19.4475      2.00000
      3      -8.3356      2.00000
      4      -8.3329      2.00000
      5      -7.3858      2.00000
      6      -7.2181      2.00000
      7      -6.1464      2.00000
      8      -6.1454      2.00000
      9       3.7304      0.00000
     10       4.3110      0.00000
     11       4.9266      0.00000
     12       5.7586      0.00000

 k-point     7 :       0.2857    0.0000    0.0000
  band No.  band energies     occupation 
      1     -18.8770      2.00000
      2     -18.8670      2.00000
      3      -9.5999      2.00000
      4      -9.5965      2.00000
      5      -6.7123      2.00000
      6      -6.6108      2.00000
      7      -6.6098      2.00000
      8      -6.5517      2.00000
      9       4.5154      0.00000
     10       4.9739      0.00000
     11       4.9813      0.00000
     12       5.2686      0.00000

 k-point     8 :       0.3333    0.0000    0.0000
  band No.  band energies     occupation 
      1     -18.1973      2.00000
      2     -18.1879      2.00000
      3     -10.8639      2.00000
      4     -10.8598      2.00000
      5      -7.0057      2.00000
      6      -7.0047      2.00000
      7      -5.9454      2.00000
      8      -5.7939      2.00000
      9       3.6653      0.00000
     10       3.7804      0.00000
     11       5.4400      0.00000
     12       6.0641      0.00000

 k-point     9 :       0.3810    0.0000    0.0000
  band No.  band energies     occupation 
      1     -17.4250      2.00000
      2     -17.4162      2.00000
      3     -12.0941      2.00000
      4     -12.0892      2.00000
      5      -7.3139      2.00000
      6      -7.3128      2.00000
      7      -5.1185      2.00000
      8      -4.9790      2.00000
      9       2.3752      0.00000
     10       2.5072      0.00000
     11       6.3105      0.00000
     12       6.4062      0.00000

 k-point    10 :       0.4286    0.0000    0.0000
  band No.  band energies     occupation 
      1     -16.5752      2.00000
      2     -16.5671      2.00000
      3     -13.2577      2.00000
      4     -13.2522      2.00000
      5      -7.5245      2.00000
      6      -7.5234      2.00000
      7      -4.3113      2.00000
      8      -4.1875      2.00000
      9       1.2412      0.00000
     10       1.3928      0.00000
     11       6.2875      0.00000
     12       6.3090      0.00000

 k-point    11 :       0.4762    0.0000    0.0000
  band No.  band energies     occupation 
      1     -15.7301      2.00000
      2     -15.7226      2.00000
      3     -14.2622      2.00000
      4     -14.2560      2.00000
      5      -7.6313      2.00000
      6      -7.6302      2.00000
      7      -3.7307      2.00000
      8      -3.6228      2.00000
      9       0.4921      0.00000
     10       0.6620      0.00000
     11       6.2379      0.00000
     12       6.2559      0.00000

 k-point    12 :       0.0952    0.0476    0.0000
  band No.  band energies     occupation 
      1     -20.6333      2.00000
      2     -20.6217      2.00000
      3      -8.7794      2.00000
      4      -8.5993      2.00000
      5      -4.8682      2.00000
      6      -4.8673      2.00000
      7      -4.5929      2.00000
      8      -4.5922      2.00000
      9       2.1470      0.00000
     10       2.7085      0.00000
     11       3.3271      0.00000
     12       4.2185      0.00000

 k-point    13 :       0.1429    0.0476    0.0000
  band No.  band energies     occupation 
      1     -20.4185      2.00000
      2     -20.4071      2.00000
      3      -8.5223      2.00000
      4      -8.3442      2.00000
      5      -5.6052      2.00000
      6      -5.6039      2.00000
      7      -5.0120      2.00000
      8      -5.0112      2.00000
      9       2.4355      0.00000
     10       3.0013      0.00000
     11       3.6203      0.00000
     12       4.5072      0.00000

 k-point    14 :       0.1905    0.0476    0.0000
  band No.  band energies     occupation 
      1     -20.0971      2.00000
      2     -20.0860      2.00000
      3      -8.1394      2.00000
      4      -7.9647      2.00000
      5      -6.5915      2.00000
      6      -6.5897      2.00000
      7      -5.5230      2.00000
      8      -5.5220      2.00000
      9       2.8680      0.00000
     10       3.4398      0.00000
     11       4.0593      0.00000
     12       4.9387      0.00000

 k-point    15 :       0.2381    0.0476    0.0000
  band No.  band energies     occupation 
      1     -19.6705      2.00000
      2     -19.6598      2.00000
      3      -7.7366      2.00000
      4      -7.7343      2.00000
      5      -7.6348      2.00000
      6      -7.4647      2.00000
      7      -6.0529      2.00000
      8      -6.0518      2.00000
      9       3.4438      0.00000
     10       4.0225      0.00000
     11       4.6415      0.00000
     12       5.5054      0.00000

 k-point    16 :       0.2857    0.0476    0.0000
  band No.  band energies     occupation 
      1     -19.1406      2.00000
      2     -19.1304      2.00000
      3      -8.9649      2.00000
      4      -8.9619      2.00000
      5      -7.0153      2.00000
      6      -6.8514      2.00000
      7      -6.5528      2.00000
      8      -6.5517      2.00000
      9       4.1610      0.00000
     10       4.7394      0.00000
     11       5.3132      0.00000
     12       5.6669      0.00000

 k-point    17 :       0.3333    0.0476    0.0000
  band No.  band energies     occupation 
      1     -18.5101      2.00000
      2     -18.5005      2.00000
      3     -10.2205      2.00000
      4     -10.2168      2.00000
      5      -6.9912      2.00000
      6      -6.9900      2.00000
      7      -6.2930      2.00000
      8      -6.1371      2.00000
      9       4.2946      0.00000
     10       4.3966      0.00000
     11       5.0200      0.00000
     12       5.6437      0.00000

 k-point    18 :       0.3810    0.0476    0.0000
  band No.  band energies     occupation 
      1     -17.7837      2.00000
      2     -17.7747      2.00000
      3     -11.4627      2.00000
      4     -11.4582      2.00000
      5      -7.3479      2.00000
      6      -7.3466      2.00000
      7      -5.4905      2.00000
      8      -5.3450      2.00000
      9       2.9869      0.00000
     10       3.1059      0.00000
     11       6.0004      0.00000
     12       6.5914      0.00000

 k-point    19 :       0.4286    0.0476    0.0000
  band No.  band energies     occupation 
      1     -16.9705      2.00000
      2     -16.9621      2.00000
      3     -12.6587      2.00000
      4     -12.6535      2.00000
      5      -7.6102      2.00000
      6      -7.6089      2.00000
      7      -4.6581      2.00000
      8      -4.5263      2.00000
      9       1.7647      0.00000
     10       1.9025      0.00000
     11       6.5593      0.00000
     12       6.5965      0.00000

 k-point    20 :       0.4762    0.0476    0.0000
  band No.  band energies     occupation 
      1     -16.1011      2.00000
      2     -16.0933      2.00000
      3     -13.7631      2.00000
      4     -13.7573      2.00000
      5      -7.7704      2.00000
      6      -7.7691      2.00000
      7      -3.9238      2.00000
      8      -3.8088      2.00000
      9       0.7864      0.00000
     10       0.9444      0.00000
     11       6.4993      0.00000
     12       6.5197      0.00000

 k-point    21 :      -0.4762    0.0476    0.0000
  band No.  band energies     occupation 
      1     -15.4820      2.00000
      2     -15.4746      2.00000
      3     -14.4614      2.00000
      4     -14.4552      2.00000
      5      -7.8242      2.00000
      6      -7.8229      2.00000
      7      -3.5925      2.00000
      8      -3.4879      2.00000
      9       0.3722      0.00000
     10       0.5417      0.00000
     11       6.4738      0.00000
     12       6.4928      0.00000

 k-point    22 :       0.1905    0.0952    0.0000
  band No.  band energies     occupation 
      1     -20.1506      2.00000
      2     -20.1394      2.00000
      3      -8.2028      2.00000
      4      -8.0276      2.00000
      5      -6.3475      2.00000
      6      -6.3459      2.00000
      7      -5.5526      2.00000
      8      -5.5515      2.00000
      9       2.7962      0.00000
     10       3.3669      0.00000
     11       3.9864      0.00000
     12       4.8674      0.00000

 k-point    23 :       0.2381    0.0952    0.0000
  band No.  band energies     occupation 
      1     -19.7770      2.00000
      2     -19.7662      2.00000
      3      -7.7599      2.00000
      4      -7.5886      2.00000
      5      -7.2906      2.00000
      6      -7.2885      2.00000
      7      -6.1614      2.00000
      8      -6.1601      2.00000
      9       3.3007      0.00000
     10       3.8779      0.00000
     11       4.4977      0.00000
     12       5.3690      0.00000

 k-point    24 :       0.2857    0.0952    0.0000
  band No.  band energies     occupation 
      1     -19.2993      2.00000
      2     -19.2890      2.00000
      3      -8.3907      2.00000
      4      -8.3881      2.00000
      5      -7.1985      2.00000
      6      -7.0327      2.00000
      7      -6.7385      2.00000
      8      -6.7370      2.00000
      9       3.9478      0.00000
     10       4.5314      0.00000
     11       5.1475      0.00000
     12       5.9423      0.00000

 k-point    25 :       0.3333    0.0952    0.0000
  band No.  band energies     occupation 
      1     -18.7199      2.00000
      2     -18.7101      2.00000
      3      -9.5788      2.00000
      4      -9.5755      2.00000
      5      -7.2444      2.00000
      6      -7.2428      2.00000
      7      -6.5276      2.00000
      8      -6.3688      2.00000
      9       4.7281      0.00000
     10       4.8232      0.00000
     11       4.8867      0.00000
     12       5.3593      0.00000

 k-point    26 :       0.3810    0.0952    0.0000
  band No.  band energies     occupation 
      1     -18.0424      2.00000
      2     -18.0332      2.00000
      3     -10.7949      2.00000
      4     -10.7910      2.00000
      5      -7.6626      2.00000
      6      -7.6609      2.00000
      7      -5.7630      2.00000
      8      -5.6132      2.00000
      9       3.5416      0.00000
     10       3.6403      0.00000
     11       5.6617      0.00000
     12       6.2803      0.00000

 k-point    27 :       0.4286    0.0952    0.0000
  band No.  band energies     occupation 
      1     -17.2732      2.00000
      2     -17.2646      2.00000
      3     -11.9946      2.00000
      4     -11.9899      2.00000
      5      -7.9834      2.00000
      6      -7.9817      2.00000
      7      -4.9368      2.00000
      8      -4.7989      2.00000
      9       2.2962      0.00000
     10       2.4133      0.00000
     11       6.7079      0.00000
     12       7.2692      0.00000

 k-point    28 :       0.4762    0.0952    0.0000
  band No.  band energies     occupation 
[...]
      1     -19.2993      2.00000
      2     -19.2890      2.00000
      3      -8.3907      2.00000
      4      -8.3881      2.00000
      5      -7.1985      2.00000
      6      -7.0327      2.00000
      7      -6.7385      2.00000
      8      -6.7371      2.00000
      9       3.9482      0.00000
     10       4.5328      0.00000
     11       5.1539      0.00000
     12       5.9429      0.00000

 k-point    25 :       0.3333    0.0952    0.0000
  band No.  band energies     occupation 
      1     -18.7199      2.00000
      2     -18.7101      2.00000
      3      -9.5788      2.00000
      4      -9.5755      2.00000
      5      -7.2444      2.00000
      6      -7.2428      2.00000
      7      -6.5276      2.00000
      8      -6.3688      2.00000
      9       4.7283      0.00000
     10       4.8233      0.00000
     11       4.8867      0.00000
     12       5.3605      0.00000

 k-point    26 :       0.3810    0.0952    0.0000
  band No.  band energies     occupation 
      1     -18.0424      2.00000
      2     -18.0332      2.00000
      3     -10.7950      2.00000
      4     -10.7910      2.00000
      5      -7.6626      2.00000
      6      -7.6609      2.00000
      7      -5.7630      2.00000
      8      -5.6133      2.00000
      9       3.5416      0.00000
     10       3.6403      0.00000
     11       5.6620      0.00000
     12       6.2815      0.00000

 k-point    27 :       0.4286    0.0952    0.0000
  band No.  band energies     occupation 
      1     -17.2732      2.00000
      2     -17.2646      2.00000
      3     -11.9946      2.00000
      4     -11.9899      2.00000
      5      -7.9834      2.00000
      6      -7.9817      2.00000
      7      -4.9368      2.00000
      8      -4.7989      2.00000
      9       2.2961      0.00000
     10       2.4133      0.00000
     11       6.7081      0.00000
     12       7.2687      0.00000

 k-point    28 :       0.4762    0.0952    0.0000
  band No.  band energies     occupation 
      1     -16.4280      2.00000
      2     -16.4200      2.00000
      3     -13.1383      2.00000
      4     -13.1328      2.00000
      5      -8.2005      2.00000
      6      -8.1988      2.00000
      7      -4.1260      2.00000
      8      -4.0032      2.00000
      9       1.1889      0.00000
     10       1.3261      0.00000
     11       7.2067      0.00000
     12       7.2407      0.00000

 k-point    29 :      -0.4762    0.0952    0.0000
  band No.  band energies     occupation 
      1     -15.5894      2.00000
      2     -15.5820      2.00000
      3     -14.1292      2.00000
      4     -14.1232      2.00000
      5      -8.3100      2.00000
      6      -8.3083      2.00000
      7      -3.5359      2.00000
      8      -3.4288      2.00000
      9       0.4457      0.00000
     10       0.6011      0.00000
     11       7.1647      0.00000
     12       7.1887      0.00000

 k-point    30 :       0.2857    0.1429    0.0000
  band No.  band energies     occupation 
      1     -19.3523      2.00000
      2     -19.3419      2.00000
      3      -8.1059      2.00000
      4      -8.1035      2.00000
      5      -7.2598      2.00000
      6      -7.0933      2.00000
      7      -6.9006      2.00000
      8      -6.8989      2.00000
      9       3.8771      0.00000
     10       4.4621      0.00000
     11       5.0867      0.00000
     12       5.9405      0.00000

 k-point    31 :       0.3333    0.1429    0.0000
  band No.  band energies     occupation 
      1     -18.8251      2.00000
      2     -18.8152      2.00000
      3      -9.0727      2.00000
      4      -9.0697      2.00000
      5      -7.5774      2.00000
      6      -7.5754      2.00000
      7      -6.6458      2.00000
      8      -6.4855      2.00000
      9       4.5945      0.00000
     10       5.1308      0.00000
     11       5.1528      0.00000
     12       5.2308      0.00000

 k-point    32 :       0.3810    0.1429    0.0000
  band No.  band energies     occupation 
      1     -18.1985      2.00000
      2     -18.1891      2.00000
      3     -10.1646      2.00000
      4     -10.1611      2.00000
      5      -8.1204      2.00000
      6      -8.1182      2.00000
      7      -5.9291      2.00000
      8      -5.7768      2.00000
      9       3.9495      0.00000
     10       4.0258      0.00000
     11       5.4516      0.00000
     12       6.0575      0.00000

 k-point    33 :       0.4286    0.1429    0.0000
  band No.  band energies     occupation 
      1     -17.4775      2.00000
      2     -17.4687      2.00000
      3     -11.3104      2.00000
      4     -11.3062      2.00000
      5      -8.5316      2.00000
      6      -8.5293      2.00000
      7      -5.1307      2.00000
      8      -4.9886      2.00000
      9       2.7508      0.00000
     10       2.8439      0.00000
     11       6.4428      0.00000
     12       7.0596      0.00000

 k-point    34 :       0.4762    0.1429    0.0000
  band No.  band energies     occupation 
      1     -16.6719      2.00000
      2     -16.6638      2.00000
      3     -12.4481      2.00000
      4     -12.4431      2.00000
      5      -8.8214      2.00000
      6      -8.8190      2.00000
      7      -4.2964      2.00000
      8      -4.1674      2.00000
      9       1.6078      0.00000
     10       1.7193      0.00000
     11       7.5544      0.00000
     12       8.1591      0.00000

 k-point    35 :      -0.4762    0.1429    0.0000
  band No.  band energies     occupation 
      1     -15.8134      2.00000
      2     -15.8059      2.00000
      3     -13.5159      2.00000
      4     -13.5102      2.00000
      5      -8.9943      2.00000
      6      -8.9919      2.00000
      7      -3.5470      2.00000
      8      -3.4337      2.00000
      9       0.6635      0.00000
     10       0.7945      0.00000
     11       8.1967      0.00000
     12       8.2409      0.00000

 k-point    36 :      -0.4286    0.1429    0.0000
  band No.  band energies     occupation 
      1     -15.2057      2.00000
      2     -15.1985      2.00000
      3     -14.1949      2.00000
      4     -14.1889      2.00000
      5      -9.0519      2.00000
      6      -9.0495      2.00000
      7      -3.1990      2.00000
      8      -3.0958      2.00000
      9       0.2488      0.00000
     10       0.3912      0.00000
     11       8.1798      0.00000
     12       8.2150      0.00000

 k-point    37 :       0.3810    0.1905    0.0000
  band No.  band energies     occupation 
      1     -18.2507      2.00000
      2     -18.2413      2.00000
      3      -9.8351      2.00000
      4      -9.8318      2.00000
      5      -8.3998      2.00000
      6      -8.3973      2.00000
      7      -5.9848      2.00000
      8      -5.8317      2.00000
      9       4.1039      0.00000
     10       4.1694      0.00000
     11       5.3808      0.00000
     12       5.9801      0.00000

 k-point    38 :       0.4286    0.1905    0.0000
  band No.  band energies     occupation 
      1     -17.5802      2.00000
      2     -17.5714      2.00000
      3     -10.7451      2.00000
      4     -10.7413      2.00000
      5      -9.0480      2.00000
      6      -9.0452      2.00000
      7      -5.2298      2.00000
      8      -5.0857      2.00000
      9       3.0220      0.00000
     10       3.0969      0.00000
     11       6.3027      0.00000
     12       6.9075      0.00000

 k-point    39 :       0.4762    0.1905    0.0000
  band No.  band energies     occupation 
      1     -16.8211      2.00000
      2     -16.8129      2.00000
      3     -11.7712      2.00000
      4     -11.7668      2.00000
      5      -9.4879      2.00000
      6      -9.4849      2.00000
      7      -4.4083      2.00000
      8      -4.2753      2.00000
      9       1.9333      0.00000
     10       2.0214      0.00000
     11       7.3527      0.00000
     12       7.9581      0.00000

 k-point    40 :      -0.4762    0.1905    0.0000
  band No.  band energies     occupation 
      1     -15.9900      2.00000
      2     -15.9824      2.00000
      3     -12.8199      2.00000
      4     -12.8147      2.00000
      5      -9.7592      2.00000
      6      -9.7561      2.00000
      7      -3.5856      2.00000
      8      -3.4664      2.00000
      9       0.9200      0.00000
     10       1.0243      0.00000
     11       8.5095      0.00000
     12       9.0958      0.00000

 k-point    41 :      -0.4286    0.1905    0.0000
  band No.  band energies     occupation 
      1     -15.1698      2.00000
      2     -15.1628      2.00000
      3     -13.7589      2.00000
      4     -13.7532      2.00000
      5      -9.8897      2.00000
      6      -9.8866      2.00000
      7      -2.9580      2.00000
      8      -2.8532      2.00000
      9       0.1929      0.00000
     10       0.3130      0.00000
     11       9.3961      0.00000
     12       9.4735      0.00000

 k-point    42 :       0.4762    0.2381    0.0000
  band No.  band energies     occupation 
      1     -16.8712      2.00000
      2     -16.8630      2.00000
      3     -11.4003      2.00000
      4     -11.3961      2.00000
      5      -9.8607      2.00000
      6      -9.8574      2.00000
      7      -4.4471      2.00000
      8      -4.3128      2.00000
      9       2.0580      0.00000
     10       2.1361      0.00000
     11       7.2823      0.00000
     12       7.8789      0.00000

 k-point    43 :      -0.4762    0.2381    0.0000
  band No.  band energies     occupation 
      1     -16.0828      2.00000
      2     -16.0752      2.00000
      3     -12.2147      2.00000
      4     -12.2101      2.00000
      5     -10.4086      2.00000
      6     -10.4050      2.00000
      7      -3.6149      2.00000
      8      -3.4922      2.00000
      9       1.0923      0.00000
     10       1.1783      0.00000
     11       8.3683      0.00000
     12       8.9276      0.00000

 k-point    44 :      -0.4286    0.2381    0.0000
  band No.  band energies     occupation 
      1     -15.2476      2.00000
      2     -15.2406      2.00000
      3     -13.1209      2.00000
      4     -13.1156      2.00000
      5     -10.6938      2.00000
      6     -10.6901      2.00000
      7      -2.8258      2.00000
      8      -2.7165      2.00000
      9       0.2206      0.00000
     10       0.3181      0.00000
     11       9.2920      0.00000
     12       9.6914      0.00000

 k-point    45 :      -0.3810    0.2381    0.0000
  band No.  band energies     occupation 
      1     -14.6542      2.00000
      2     -14.6476      2.00000
      3     -13.7477      2.00000
      4     -13.7419      2.00000
      5     -10.7810      2.00000
      6     -10.7773      2.00000
      7      -2.4176      2.00000
      8      -2.3176      2.00000
      9      -0.2158      0.00000
     10      -0.1095      0.00000
     11       9.4069      0.00000
     12      10.2008      0.00000

 k-point    46 :      -0.4286    0.2857    0.0000
  band No.  band energies     occupation 
      1     -15.2822      2.00000
      2     -15.2752      2.00000
      3     -12.7414      2.00000
      4     -12.7364      2.00000
      5     -11.1239      2.00000
      6     -11.1198      2.00000
      7      -2.7857      2.00000
      8      -2.6742      2.00000
      9       0.2442      0.00000
     10       0.3321      0.00000
     11       9.1418      0.00000
     12       9.6101      0.00000

 k-point    47 :      -0.3810    0.2857    0.0000
  band No.  band energies     occupation 
      1     -14.4904      2.00000
      2     -14.4840      2.00000
      3     -13.4056      2.00000
      4     -13.4001      2.00000
      5     -11.4788      2.00000
      6     -11.4746      2.00000
      7      -2.0424      2.00000
      8      -1.9418      2.00000
      9      -0.5047      0.00000
     10      -0.4108      0.00000
     11       9.1229      0.00000
     12       9.9454      0.00000

 k-point    48 :      -0.3333    0.3333    0.0000
  band No.  band energies     occupation 
      1     -13.8306      2.00000
      2     -13.8305      2.00000
      3     -13.8247      2.00000
      4     -13.8246      2.00000
      5     -11.8206      2.00000
      6     -11.8161      2.00000
      7      -1.2618      2.00000
      8      -1.2618      2.00000
      9      -1.1668      0.00000
     10      -1.1668      0.00000
     11       9.0118      0.00000
     12       9.8558      0.00000


--------------------------------------------------------------------------------------------------------


 soft charge-density along one line, spin component           1
         0         1         2         3         4         5         6         7         8         9
 total charge-density along one line
 
 pseudopotential strength for first ion, spin component:           1
 10.133   0.016  -0.000  -0.000   0.000   0.000   0.000  -0.000
  0.016  -0.002   0.000   0.000  -0.000   0.000   0.000  -0.000
 -0.000   0.000  -4.261  -0.000  -0.000  -0.017  -0.000  -0.000
 -0.000   0.000  -0.000  -4.254  -0.000  -0.000  -0.014  -0.000
  0.000  -0.000  -0.000  -0.000  -4.261  -0.000  -0.000  -0.017
  0.000   0.000  -0.017  -0.000  -0.000  -0.770  -0.000  -0.000
  0.000   0.000  -0.000  -0.014  -0.000  -0.000  -0.770  -0.000
 -0.000  -0.000  -0.000  -0.000  -0.017  -0.000  -0.000  -0.770
 total augmentation occupancy for first ion, spin component:           1
  1.469  -1.133   0.000   0.000   0.000   0.000  -0.000  -0.000
 -1.133   1.076   0.000   0.000   0.000  -0.000   0.000   0.000
  0.000   0.000   1.227   0.000   0.000   0.230   0.000   0.000
  0.000   0.000   0.000   0.931  -0.000  -0.000   0.106   0.000
  0.000   0.000   0.000  -0.000   1.227   0.000   0.000   0.230
 -0.000   0.000   0.230   0.000   0.000   0.049   0.000   0.000
 -0.000   0.000   0.000   0.106   0.000   0.000   0.014  -0.000
  0.000   0.000   0.000   0.000   0.230   0.000   0.000   0.049


------------------------ aborting loop because EDIFF is reached ----------------------------------------


    CHARGE:  cpu time    0.0319: real time    0.0319
    FORLOC:  cpu time    0.0009: real time    0.0009
    FORNL :  cpu time    0.0558: real time    0.0560
    STRESS:  cpu time    0.2078: real time    0.2083
    FORHAR:  cpu time    0.0034: real time    0.0035
    MIXING:  cpu time    0.0006: real time    0.0006
    OFIELD:  cpu time    0.0000: real time    0.0000

  FORCE on cell =-STRESS in cart. coord.  units (eV):
  Direction    XX          YY          ZZ          XY          YZ          ZX
  --------------------------------------------------------------------------------------
  Alpha Z    12.44266    12.44266    12.44266
  Ewald    3012.30897  3012.30773 -3551.46440     0.00000     0.00000    -0.00000
  Hartree  2974.98914  2974.98913 -2952.45755    -0.00000     0.00000    -0.00000
  E(xc)     -58.45138   -58.45138   -60.79523    -0.00000     0.00000    -0.00000
  Local   -6165.73201 -6165.73140  6291.19979    -0.00000     0.00000    -0.00000
  n-local   -14.66661   -13.59600   -12.84970     0.71429    -0.00000    -0.00000
  augment    -1.56153    -1.56153    -1.42743     0.00000     0.00000     0.00000
  Kinetic   245.07539   236.87264   275.30718    -6.59682     0.00000     0.00000
  Fock        0.00000     0.00000     0.00000     0.00000     0.00000     0.00000
  -------------------------------------------------------------------------------------
  Total       0.83826     0.83826    -0.04468     0.00000     0.00000     0.00000
  in kB      12.81826    12.81826    -0.68330     0.00000     0.00000     0.00000
  external pressure =        8.32 kB  Pullay stress =        0.00 kB


 VOLUME and BASIS-vectors are now :
 -----------------------------------------------------------------------------
  energy-cutoff  :      800.00
  volume of cell :      104.78
      direct lattice vectors                 reciprocal lattice vectors
     2.130000000 -1.229756000  0.000000000     0.234741784 -0.406584721  0.000000000
     2.130000000  1.229756000  0.000000000     0.234741784  0.406584721  0.000000000
     0.000000000  0.000000000 20.000000000     0.000000000  0.000000000  0.050000000

  length of vectors
     2.459512110  2.459512110 20.000000000     0.469483589  0.469483589  0.050000000


 FORCES acting on ions
    electron-ion (+dipol)            ewald-force                    non-local-force                 convergence-correction
 -----------------------------------------------------------------------------------------------
   0.199E-06 -.219E-12 0.307E+03   -.241E-03 0.665E-14 -.307E+03   -.572E-16 0.181E-16 -.127E-02   0.565E-15 0.133E-14 0.351E-06
   0.271E-03 0.636E-13 0.307E+03   0.241E-03 -.442E-14 -.307E+03   -.184E-16 0.607E-16 -.127E-02   -.108E-13 0.684E-16 0.351E-06
   0.193E-06 -.578E-14 -.307E+03   -.241E-03 0.670E-14 0.307E+03   -.292E-16 0.149E-16 0.127E-02   0.235E-14 0.859E-15 -.189E-05
   0.271E-03 -.484E-13 -.307E+03   0.241E-03 -.438E-14 0.307E+03   0.332E-16 0.130E-16 0.127E-02   -.152E-13 -.197E-16 -.189E-05
 -----------------------------------------------------------------------------------------------
   0.542E-03 -.209E-12 0.312E-05   0.858E-14 0.456E-14 0.000E+00   -.716E-16 0.107E-15 -.272E-06   -.231E-13 0.224E-14 -.309E-05
 
 
 POSITION                                       TOTAL-FORCE (eV/Angst)
 -----------------------------------------------------------------------------------
      0.00000      0.00000      0.00000         0.000000     -0.000000     -0.000000
      1.42000      0.00000      0.00000        -0.000000     -0.000000     -0.000000
      0.00000      0.00000      4.43868         0.000000      0.000000      0.000000
      1.42000      0.00000      4.43868        -0.000000     -0.000000      0.000000
 -----------------------------------------------------------------------------------
    total drift:                                0.000542     -0.000000     -0.000000


--------------------------------------------------------------------------------------------------------



  FREE ENERGIE OF THE ION-ELECTRON SYSTEM (eV)
  ---------------------------------------------------
  free  energy   TOTEN  =       -36.91776956 eV

  energy  without entropy=      -36.91776956  energy(sigma->0) =      -36.91776956
 
 d Force = 0.7430910E-13[-0.529E-14, 0.154E-12]  d Energy = 0.4320100E-11-0.425E-11
 d Force =-0.1295199E-02[-0.130E-02,-0.130E-02]  d Ewald  =-0.1295199E-02 0.136E-11


--------------------------------------------------------------------------------------------------------


    POTLOK:  cpu time    0.0180: real time    0.0180


--------------------------------------------------------------------------------------------------------




--------------------------------------------------------------------------------------------------------


  
 reached required accuracy - stopping structural energy minimisation
     LOOP+:  cpu time    2.2461: real time    2.4770
    4ORBIT:  cpu time    0.0000: real time    0.0000

 total amount of memory used by VASP MPI-rank0    41328. kBytes
=======================================================================

   base      :      30000. kBytes
   nonl-proj :       2822. kBytes
   fftplans  :       4589. kBytes
   grid      :       2514. kBytes
   one-center:          3. kBytes
   wavefun   :       1400. kBytes
 
  
  
 General timing and accounting informations for this job:
 ========================================================
  
                  Total CPU time used (sec):       25.967
                            User time (sec):       25.545
                          System time (sec):        0.421
                         Elapsed time (sec):       27.621
  
                   Maximum memory used (kb):       80520.
                   Average memory used (kb):           0.
  
                          Minor page faults:        45249
                          Major page faults:            0
                 Voluntary context switches:         2641
