<?xml version="1.0" encoding="ISO-8859-1"?>
<modeling>
 <generator>
  <i name="program" type="string">vasp </i>
  <i name="version" type="string">5.4.4.18Apr17-6-g9f103f2a35  </i>
  <i name="subversion" type="string">(build May 31 2018 21:15:54) complex            parallel </i>
  <i name="platform" type="string">c7_intel_O1 </i>
  <i name="date" type="string">2020 08 17 </i>
  <i name="time" type="string">20:03:14 </i>
 </generator>
 <incar>
  <i type="string" name="SYSTEM"> C-4</i>
  <i type="int" name="ISTART">     0</i>
  <i type="string" name="PREC">accurate</i>
  <i type="string" name="ALGO"> N</i>
  <i type="logical" name="ADDGRID"> T  </i>
  <i name="AMIN">      0.01000000</i>
  <i type="int" name="NELMIN">     5</i>
  <i type="int" name="IBRION">     2</i>
  <i name="EDIFF">      0.00000001</i>
  <i name="EDIFFG">     -0.00000001</i>
  <i type="int" name="NSW">    80</i>
  <i name="SYMPREC">      0.00010000</i>
  <i name="ENCUT">    800.00000000</i>
  <i type="logical" name="LREAL"> F  </i>
  <i type="int" name="ISMEAR">     0</i>
  <i name="SIGMA">      0.01000000</i>
  <i type="logical" name="LWAVE"> F  </i>
  <i type="logical" name="LCHARG"> T  </i>
  <v type="int" name="KPOINT_BSE">    -1     0     0     0</v>
 </incar>
 <structure name="primitive_cell" >
  <crystal>
   <varray name="basis" >
    <v>       2.13000000      -1.22975600       0.00000000 </v>
    <v>       2.13000000       1.22975600       0.00000000 </v>
    <v>       0.00000000       0.00000000      20.00000000 </v>
   </varray>
   <i name="volume">    104.77521120 </i>
   <varray name="rec_basis" >
    <v>       0.23474178      -0.40658472       0.00000000 </v>
    <v>       0.23474178       0.40658472       0.00000000 </v>
    <v>       0.00000000       0.00000000       0.05000000 </v>
   </varray>
  </crystal>
  <varray name="positions" >
   <v>       0.00000000       0.00000000       0.00000000 </v>
   <v>       0.33333300       0.33333300       0.00000000 </v>
   <v>       0.00000000       0.00000000       0.22193400 </v>
   <v>       0.33333300       0.33333300       0.22193400 </v>
  </varray>
 </structure>
 <varray name="primitive_index" >
  <v type="int" >        1 </v>
  <v type="int" >        2 </v>
  <v type="int" >        3 </v>
  <v type="int" >        4 </v>
 </varray>
 <kpoints>
  <generation param="Gamma">
   <v type="int" name="divisions">      21       21        1 </v>
   <v name="usershift">      0.00000000       0.00000000       0.00000000 </v>
   <v name="genvec1">      0.04761905       0.00000000       0.00000000 </v>
   <v name="genvec2">      0.00000000       0.04761905       0.00000000 </v>
   <v name="genvec3">      0.00000000       0.00000000       1.00000000 </v>
   <v name="shift">      0.00000000       0.00000000       0.00000000 </v>
  </generation>
  <varray name="kpointlist" >
   <v>       0.00000000       0.00000000       0.00000000 </v>
   <v>       0.04761905       0.00000000       0.00000000 </v>
   <v>       0.09523810       0.00000000       0.00000000 </v>
   <v>       0.14285714       0.00000000       0.00000000 </v>
   <v>       0.19047619       0.00000000       0.00000000 </v>
   <v>       0.23809524       0.00000000       0.00000000 </v>
   <v>       0.28571429       0.00000000       0.00000000 </v>
   <v>       0.33333333       0.00000000       0.00000000 </v>
   <v>       0.38095238       0.00000000       0.00000000 </v>
   <v>       0.42857143       0.00000000       0.00000000 </v>
   <v>       0.47619048       0.00000000       0.00000000 </v>
   <v>       0.09523810       0.04761905       0.00000000 </v>
   <v>       0.14285714       0.04761905       0.00000000 </v>
   <v>       0.19047619       0.04761905       0.00000000 </v>
   <v>       0.23809524       0.04761905       0.00000000 </v>
   <v>       0.28571429       0.04761905       0.00000000 </v>
   <v>       0.33333333       0.04761905       0.00000000 </v>
   <v>       0.38095238       0.04761905       0.00000000 </v>
   <v>       0.42857143       0.04761905       0.00000000 </v>
   <v>       0.47619048       0.04761905       0.00000000 </v>
   <v>      -0.47619048       0.04761905       0.00000000 </v>
   <v>       0.19047619       0.09523810       0.00000000 </v>
   <v>       0.23809524       0.09523810       0.00000000 </v>
   <v>       0.28571429       0.09523810       0.00000000 </v>
   <v>       0.33333333       0.09523810       0.00000000 </v>
   <v>       0.38095238       0.09523810       0.00000000 </v>
   <v>       0.42857143       0.09523810       0.00000000 </v>
   <v>       0.47619048       0.09523810       0.00000000 </v>
   <v>      -0.47619048       0.09523810       0.00000000 </v>
   <v>       0.28571429       0.14285714       0.00000000 </v>
   <v>       0.33333333       0.14285714       0.00000000 </v>
   <v>       0.38095238       0.14285714       0.00000000 </v>
   <v>       0.42857143       0.14285714       0.00000000 </v>
   <v>       0.47619048       0.14285714       0.00000000 </v>
   <v>      -0.47619048       0.14285714       0.00000000 </v>
   <v>      -0.42857143       0.14285714       0.00000000 </v>
   <v>       0.38095238       0.19047619       0.00000000 </v>
   <v>       0.42857143       0.19047619       0.00000000 </v>
   <v>       0.47619048       0.19047619       0.00000000 </v>
   <v>      -0.47619048       0.19047619       0.00000000 </v>
   <v>      -0.42857143       0.19047619       0.00000000 </v>
   <v>       0.47619048       0.23809524       0.00000000 </v>
   <v>      -0.47619048       0.23809524       0.00000000 </v>
   <v>      -0.42857143       0.23809524       0.00000000 </v>
   <v>      -0.38095238       0.23809524       0.00000000 </v>
   <v>      -0.42857143       0.28571429       0.00000000 </v>
   <v>      -0.38095238       0.28571429       0.00000000 </v>
   <v>      -0.33333333       0.33333333       0.00000000 </v>
  </varray>
  <varray name="weights" >
   <v>       0.00226757 </v>
   <v>       0.01360544 </v>
   <v>       0.01360544 </v>
   <v>       0.01360544 </v>
   <v>       0.01360544 </v>
   <v>       0.01360544 </v>
   <v>       0.01360544 </v>
   <v>       0.01360544 </v>
   <v>       0.01360544 </v>
   <v>       0.01360544 </v>
   <v>       0.01360544 </v>
   <v>       0.01360544 </v>
   <v>       0.02721088 </v>
   <v>       0.02721088 </v>
   <v>       0.02721088 </v>
   <v>       0.02721088 </v>
   <v>       0.02721088 </v>
   <v>       0.02721088 </v>
   <v>       0.02721088 </v>
   <v>       0.02721088 </v>
   <v>       0.01360544 </v>
   <v>       0.01360544 </v>
   <v>       0.02721088 </v>
   <v>       0.02721088 </v>
   <v>       0.02721088 </v>
   <v>       0.02721088 </v>
   <v>       0.02721088 </v>
   <v>       0.02721088 </v>
   <v>       0.02721088 </v>
   <v>       0.01360544 </v>
   <v>       0.02721088 </v>
   <v>       0.02721088 </v>
   <v>       0.02721088 </v>
   <v>       0.02721088 </v>
   <v>       0.02721088 </v>
   <v>       0.01360544 </v>
   <v>       0.01360544 </v>
   <v>       0.02721088 </v>
   <v>       0.02721088 </v>
   <v>       0.02721088 </v>
   <v>       0.02721088 </v>
   <v>       0.01360544 </v>
   <v>       0.02721088 </v>
   <v>       0.02721088 </v>
   <v>       0.01360544 </v>
   <v>       0.01360544 </v>
   <v>       0.02721088 </v>
   <v>       0.00453515 </v>
  </varray>
 </kpoints>
 <parameters>
  <separator name="general" >
   <i type="string" name="SYSTEM">C-4</i>
   <i type="logical" name="LCOMPAT"> F  </i>
  </separator>
  <separator name="electronic" >
   <i type="string" name="PREC">accura</i>
   <i name="ENMAX">    800.00000000</i>
   <i name="ENAUG">    644.87300000</i>
   <i name="EDIFF">      0.00000001</i>
   <i type="int" name="IALGO">    38</i>
   <i type="int" name="IWAVPR">    11</i>
   <i type="int" name="NBANDS">    12</i>
   <i name="NELECT">     16.00000000</i>
   <i type="int" name="TURBO">     0</i>
   <i type="int" name="IRESTART">     0</i>
   <i type="int" name="NREBOOT">     0</i>
   <i type="int" name="NMIN">     0</i>
   <i name="EREF">      0.00000000</i>
   <separator name="electronic smearing" >
    <i type="int" name="ISMEAR">     0</i>
    <i name="SIGMA">      0.01000000</i>
    <i name="KSPACING">      0.50000000</i>
    <i type="logical" name="KGAMMA"> T  </i>
   </separator>
   <separator name="electronic projectors" >
    <i type="logical" name="LREAL"> F  </i>
    <v name="ROPT">      0.00000000</v>
    <i type="int" name="LMAXPAW">  -100</i>
    <i type="int" name="LMAXMIX">     2</i>
    <i type="logical" name="NLSPLINE"> F  </i>
   </separator>
   <separator name="electronic startup" >
    <i type="int" name="ISTART">     0</i>
    <i type="int" name="ICHARG">     2</i>
    <i type="int" name="INIWAV">     1</i>
   </separator>
   <separator name="electronic spin" >
    <i type="int" name="ISPIN">     1</i>
    <i type="logical" name="LNONCOLLINEAR"> F  </i>
    <v name="MAGMOM">      1.00000000      1.00000000      1.00000000      1.00000000</v>
    <i name="NUPDOWN">     -1.00000000</i>
    <i type="logical" name="LSORBIT"> F  </i>
    <v name="SAXIS">      0.00000000      0.00000000      1.00000000</v>
    <i type="logical" name="LSPIRAL"> F  </i>
    <v name="QSPIRAL">      0.00000000      0.00000000      0.00000000</v>
    <i type="logical" name="LZEROZ"> F  </i>
   </separator>
   <separator name="electronic exchange-correlation" >
    <i type="logical" name="LASPH"> F  </i>
    <i type="logical" name="LMETAGGA"> F  </i>
   </separator>
   <separator name="electronic convergence" >
    <i type="int" name="NELM">    60</i>
    <i type="int" name="NELMDL">    -5</i>
    <i type="int" name="NELMIN">     5</i>
    <i name="ENINI">    800.00000000</i>
    <separator name="electronic convergence detail" >
     <i type="logical" name="LDIAG"> T  </i>
     <i type="logical" name="LSUBROT"> F  </i>
     <i name="WEIMIN">      0.00100000</i>
     <i name="EBREAK">      0.00000000</i>
     <i name="DEPER">      0.30000000</i>
     <i type="int" name="NRMM">     4</i>
     <i name="TIME">      0.40000000</i>
    </separator>
   </separator>
   <separator name="electronic mixer" >
    <i name="AMIX">      0.40000000</i>
    <i name="BMIX">      1.00000000</i>
    <i name="AMIN">      0.01000000</i>
    <i name="AMIX_MAG">      1.60000000</i>
    <i name="BMIX_MAG">      1.00000000</i>
    <separator name="electronic mixer details" >
     <i type="int" name="IMIX">     4</i>
     <i type="logical" name="MIXFIRST"> F  </i>
     <i type="int" name="MAXMIX">   -45</i>
     <i name="WC">    100.00000000</i>
     <i type="int" name="INIMIX">     1</i>
     <i type="int" name="MIXPRE">     1</i>
     <i type="int" name="MREMOVE">     5</i>
    </separator>
   </separator>
   <separator name="electronic dipolcorrection" >
    <i type="logical" name="LDIPOL"> F  </i>
    <i type="logical" name="LMONO"> F  </i>
    <i type="int" name="IDIPOL">     0</i>
    <i name="EPSILON">      1.00000000</i>
    <v name="DIPOL">   -100.00000000   -100.00000000   -100.00000000</v>
    <i name="EFIELD">      0.00000000</i>
   </separator>
  </separator>
  <separator name="grids" >
   <i type="int" name="NGX">    24</i>
   <i type="int" name="NGY">    24</i>
   <i type="int" name="NGZ">   192</i>
   <i type="int" name="NGXF">    48</i>
   <i type="int" name="NGYF">    48</i>
   <i type="int" name="NGZF">   384</i>
   <i type="logical" name="ADDGRID"> T  </i>
  </separator>
  <separator name="ionic" >
   <i type="int" name="NSW">    80</i>
   <i type="int" name="IBRION">     2</i>
   <i type="int" name="MDALGO">     0</i>
   <i type="int" name="ISIF">     2</i>
   <i name="PSTRESS">      0.00000000</i>
   <i name="EDIFFG">     -0.00000001</i>
   <i type="int" name="NFREE">     1</i>
   <i name="POTIM">      0.50000000</i>
   <i name="SMASS">     -3.00000000</i>
   <i name="SCALEE">      1.00000000</i>
  </separator>
  <separator name="ionic md" >
   <i name="TEBEG">      0.00010000</i>
   <i name="TEEND">      0.00010000</i>
   <i type="int" name="NBLOCK">     1</i>
   <i type="int" name="KBLOCK">    80</i>
   <i type="int" name="NPACO">   256</i>
   <i name="APACO">     16.00000000</i>
  </separator>
  <separator name="symmetry" >
   <i type="int" name="ISYM">     2</i>
   <i name="SYMPREC">      0.00010000</i>
  </separator>
  <separator name="dos" >
   <i type="int" name="LORBIT">     0</i>
   <v name="RWIGS">     -1.00000000</v>
   <i type="int" name="NEDOS">   301</i>
   <i name="EMIN">     10.00000000</i>
   <i name="EMAX">    -10.00000000</i>
   <i name="EFERMI">      0.00000000</i>
  </separator>
  <separator name="writing" >
   <i type="int" name="NWRITE">     2</i>
   <i type="logical" name="LWAVE"> F  </i>
   <i type="logical" name="LDOWNSAMPLE"> F  </i>
   <i type="logical" name="LCHARG"> T  </i>
   <i type="logical" name="LPARD"> F  </i>
   <i type="logical" name="LVTOT"> F  </i>
   <i type="logical" name="LVHAR"> F  </i>
   <i type="logical" name="LELF"> F  </i>
   <i type="logical" name="LOPTICS"> F  </i>
   <v name="STM">      0.00000000      0.00000000      0.00000000      0.00000000      0.00000000      0.00000000      0.00000000</v>
  </separator>
  <separator name="performance" >
   <i type="int" name="NPAR">     6</i>
   <i type="int" name="NSIM">     4</i>
   <i type="int" name="NBLK">    -1</i>
   <i type="logical" name="LPLANE"> T  </i>
   <i type="logical" name="LSCALAPACK"> T  </i>
   <i type="logical" name="LSCAAWARE"> F  </i>
   <i type="logical" name="LSCALU"> F  </i>
   <i type="logical" name="LASYNC"> F  </i>
   <i type="logical" name="LORBITALREAL"> F  </i>
  </separator>
  <separator name="miscellaneous" >
   <i type="int" name="IDIOT">     3</i>
   <i type="int" name="ISPECIAL">     0</i>
   <i type="logical" name="LMUSIC"> F  </i>
   <v name="POMASS">     12.01100000</v>
   <v name="DARWINR">      0.00000000</v>
   <v name="DARWINV">      1.00000000</v>
   <i type="logical" name="LCORR"> T  </i>
  </separator>
  <i type="logical" name="GGA_COMPAT"> T  </i>
  <i type="logical" name="LBERRY"> F  </i>
  <i type="int" name="ICORELEVEL">     0</i>
  <i type="logical" name="LDAU"> F  </i>
  <i type="int" name="I_CONSTRAINED_M">     0</i>
  <separator name="electronic exchange-correlation" >
   <i type="string" name="GGA">--</i>
   <i type="int" name="VOSKOWN">     0</i>
   <i type="logical" name="LHFCALC"> F  </i>
   <i type="string" name="PRECFOCK"></i>
   <i type="logical" name="LSYMGRAD"> F  </i>
   <i type="logical" name="LHFONE"> F  </i>
   <i type="logical" name="LRHFCALC"> F  </i>
   <i type="logical" name="LTHOMAS"> F  </i>
   <i type="logical" name="LMODELHF"> F  </i>
   <i name="ENCUT4O">     -1.00000000</i>
   <i type="int" name="EXXOEP">     0</i>
   <i type="int" name="FOURORBIT">     0</i>
   <i name="AEXX">      0.00000000</i>
   <i name="HFALPHA">      0.00000000</i>
   <i name="MCALPHA">      0.00000000</i>
   <i name="ALDAX">      1.00000000</i>
   <i name="AGGAX">      1.00000000</i>
   <i name="ALDAC">      1.00000000</i>
   <i name="AGGAC">      1.00000000</i>
   <i type="int" name="NKREDX">     1</i>
   <i type="int" name="NKREDY">     1</i>
   <i type="int" name="NKREDZ">     1</i>
   <i type="logical" name="SHIFTRED"> F  </i>
   <i type="logical" name="ODDONLY"> F  </i>
   <i type="logical" name="EVENONLY"> F  </i>
   <i type="int" name="LMAXFOCK">     0</i>
   <i type="int" name="NMAXFOCKAE">     0</i>
   <i type="logical" name="LFOCKAEDFT"> F  </i>
   <i name="HFSCREEN">      0.00000000</i>
   <i name="HFSCREENC">      0.00000000</i>
   <i type="int" name="NBANDSGWLOW">     0</i>
  </separator>
  <separator name="vdW DFT" >
   <i type="logical" name="LUSE_VDW"> F  </i>
   <i name="Zab_VDW">     -0.84910000</i>
   <i name="PARAM1">      0.12340000</i>
   <i name="PARAM2">      1.00000000</i>
   <i name="PARAM3">      0.00000000</i>
  </separator>
  <separator name="model GW" >
   <i type="int" name="MODEL_GW">     0</i>
   <i name="MODEL_EPS0">     15.71628168</i>
   <i name="MODEL_ALPHA">      1.00000000</i>
  </separator>
  <separator name="linear response parameters" >
   <i type="logical" name="LEPSILON"> F  </i>
   <i type="logical" name="LRPA"> F  </i>
   <i type="logical" name="LNABLA"> F  </i>
   <i type="logical" name="LVEL"> F  </i>
   <i type="int" name="KINTER">     0</i>
   <i name="CSHIFT">      0.10000000</i>
   <i name="OMEGAMAX">     -1.00000000</i>
   <i name="DEG_THRESHOLD">      0.00200000</i>
   <i name="RTIME">     -0.10000000</i>
   <i name="WPLASMAI">      0.00000000</i>
   <v name="DFIELD">      0.00000000      0.00000000      0.00000000</v>
   <v name="WPLASMA">      0.00000000      0.00000000      0.00000000      0.00000000      0.00000000      0.00000000      0.00000000      0.00000000      0.00000000</v>
  </separator>
  <separator name="orbital magnetization" >
   <i type="logical" name="NUCIND"> F  </i>
   <v name="MAGPOS">      0.00000000      0.00000000      0.00000000</v>
   <i type="logical" name="LNICSALL"> T  </i>
   <i type="logical" name="ORBITALMAG"> F  </i>
   <i type="logical" name="LMAGBLOCH"> F  </i>
   <i type="logical" name="LCHIMAG"> F  </i>
   <i type="logical" name="LGAUGE"> T  </i>
   <i type="int" name="MAGATOM">     0</i>
   <v name="MAGDIPOL">      0.00000000      0.00000000      0.00000000</v>
   <v name="AVECCONST">      0.00000000      0.00000000      0.00000000</v>
  </separator>
  <separator name="response functions" >
   <i type="logical" name="LADDER"> F  </i>
   <i type="logical" name="LRPAFORCE"> F  </i>
   <i type="logical" name="LFXC"> F  </i>
   <i type="logical" name="LHARTREE"> T  </i>
   <i type="int" name="IBSE">     0</i>
   <v type="int" name="KPOINT">    -1     0     0     0</v>
   <i type="logical" name="LTCTE"> F  </i>
   <i type="logical" name="LTETE"> F  </i>
   <i type="logical" name="LTRIPLET"> F  </i>
   <i type="logical" name="LFXCEPS"> F  </i>
   <i type="logical" name="LFXHEG"> F  </i>
   <i type="int" name="NATURALO">     2</i>
   <i type="logical" name="L2ORDER"> F  </i>
   <i type="logical" name="LMP2LT"> F  </i>
   <i type="logical" name="LUSEW"> F  </i>
   <i name="ENCUTGW">     -2.00000000</i>
   <i name="ENCUTGWSOFT">     -2.00000000</i>
   <i name="ENCUTLF">     -1.00000000</i>
   <i type="int" name="LMAXMP2">    -1</i>
   <i name="SCISSOR">      0.00000000</i>
   <i type="int" name="NOMEGA">     0</i>
   <i type="int" name="NOMEGAR">     0</i>
   <i type="int" name="NBANDSGW">    -1</i>
   <i type="int" name="NBANDSO">    -1</i>
   <i type="int" name="NBANDSV">    -1</i>
   <i type="int" name="NELM">     1</i>
   <i type="int" name="NELMHF">     1</i>
   <i type="int" name="DIM">     3</i>
   <i type="int" name="ANTIRES">     0</i>
   <i name="OMEGAMAX">    -30.00000000</i>
   <i name="OMEGAMIN">    -30.00000000</i>
   <i name="OMEGATL">   -200.00000000</i>
   <i type="int" name="OMEGAGRID">   140</i>
   <i name="CSHIFT">     -0.10000000</i>
   <i type="logical" name="SELFENERGY"> F  </i>
   <i type="logical" name="LSPECTRAL"> F  </i>
   <i type="logical" name="LSPECTRALGW"> F  </i>
   <i type="logical" name="LSINGLES"> F  </i>
   <i type="logical" name="LFERMIGW"> F  </i>
   <i type="logical" name="ODDONLYGW"> F  </i>
   <i type="logical" name="EVENONLYGW"> F  </i>
   <i type="int" name="NKREDLFX">     1</i>
   <i type="int" name="NKREDLFY">     1</i>
   <i type="int" name="NKREDLFZ">     1</i>
   <i type="int" name="MAXMEM">  2800</i>
   <i type="int" name="TELESCOPE">     0</i>
   <i type="int" name="TAUPAR">     1</i>
   <i type="int" name="OMEGAPAR">    -1</i>
   <i name="LAMBDA">      1.00000000</i>
  </separator>
  <separator name="External order field" >
   <i name="OFIELD_KAPPA">      0.00000000</i>
   <v name="OFIELD_K">      0.00000000      0.00000000      0.00000000</v>
   <i name="OFIELD_Q6_NEAR">      0.00000000</i>
   <i name="OFIELD_Q6_FAR">      0.00000000</i>
   <i name="OFIELD_A">      0.00000000</i>
  </separator>
 </parameters>
 <atominfo>
  <atoms>       4 </atoms>
  <types>       1 </types>
  <array name="atoms" >
   <dimension dim="1">ion</dimension>
   <field type="string">element</field>
   <field type="int">atomtype</field>
   <set>
    <rc><c>C </c><c>   1</c></rc>
    <rc><c>C </c><c>   1</c></rc>
    <rc><c>C </c><c>   1</c></rc>
    <rc><c>C </c><c>   1</c></rc>
   </set>
  </array>
  <array name="atomtypes" >
   <dimension dim="1">type</dimension>
   <field type="int">atomspertype</field>
   <field type="string">element</field>
   <field>mass</field>
   <field>valence</field>
   <field type="string">pseudopotential</field>
   <set>
    <rc><c>   4</c><c>C </c><c>     12.01100000</c><c>      4.00000000</c><c> PAW_PBE C 08Apr2002                    </c></rc>
   </set>
  </array>
 </atominfo>
 <structure name="initialpos" >
  <crystal>
   <varray name="basis" >
    <v>       2.13000000      -1.22975600       0.00000000 </v>
    <v>       2.13000000       1.22975600       0.00000000 </v>
    <v>       0.00000000       0.00000000      20.00000000 </v>
   </varray>
   <i name="volume">    104.77521120 </i>
   <varray name="rec_basis" >
    <v>       0.23474178      -0.40658472       0.00000000 </v>
    <v>       0.23474178       0.40658472       0.00000000 </v>
    <v>       0.00000000       0.00000000       0.05000000 </v>
   </varray>
  </crystal>
  <varray name="positions" >
   <v>       0.00000000       0.00000000       0.00000000 </v>
   <v>       0.33333300       0.33333300       0.00000000 </v>
   <v>       0.00000000       0.00000000       0.22193400 </v>
   <v>       0.33333300       0.33333300       0.22193400 </v>
  </varray>
  <varray name="selective"  type="logical" >
   <v type="logical" >  F  F  F </v>
   <v type="logical" >  F  F  F </v>
   <v type="logical" >  F  F  T </v>
   <v type="logical" >  F  F  T </v>
  </varray>
  <nose>
   <v>      -3.00000000       0.00000000       0.00010000       0.00010000 </v>
  </nose>
 </structure>
 <calculation>
  <scstep>
   <time name="dav">    0.24    0.24</time>
   <time name="total">    0.27    0.29</time>
   <energy>
    <i name="alphaZ">     12.44266281 </i>
    <i name="ewald">   2473.15002607 </i>
    <i name="hartreedc">  -2934.89885930 </i>
    <i name="XCdc">     55.19718424 </i>
    <i name="pawpsdc">    151.32577238 </i>
    <i name="pawaedc">   -155.92769107 </i>
    <i name="eentropy">     -0.00004944 </i>
    <i name="bandstr">    -76.83694712 </i>
    <i name="atom">    588.61769381 </i>
    <i name="e_fr_energy">    113.06979238 </i>
    <i name="e_wo_entrp">    113.06984182 </i>
    <i name="e_0_energy">    113.06981710 </i>
   </energy>
  </scstep>
  <scstep>
   <time name="dav">    0.33    0.33</time>
   <time name="total">    0.33    0.33</time>
   <energy>
    <i name="e_fr_energy">    -32.04998337 </i>
    <i name="e_wo_entrp">    -32.04998337 </i>
    <i name="e_0_energy">    -32.04998337 </i>
   </energy>
  </scstep>
  <scstep>
   <time name="dav">    0.28    0.28</time>
   <time name="total">    0.28    0.28</time>
   <energy>
    <i name="e_fr_energy">    -39.46100693 </i>
    <i name="e_wo_entrp">    -39.46100638 </i>
    <i name="e_0_energy">    -39.46100666 </i>
   </energy>
  </scstep>
  <scstep>
   <time name="dav">    0.35    0.35</time>
   <time name="total">    0.35    0.35</time>
   <energy>
    <i name="e_fr_energy">    -39.52184551 </i>
    <i name="e_wo_entrp">    -39.52184546 </i>
    <i name="e_0_energy">    -39.52184548 </i>
   </energy>
  </scstep>
  <scstep>
   <time name="dav">    0.34    0.34</time>
   <time name="total">    0.37    0.37</time>
   <energy>
    <i name="e_fr_energy">    -39.52189845 </i>
    <i name="e_wo_entrp">    -39.52189841 </i>
    <i name="e_0_energy">    -39.52189843 </i>
   </energy>
  </scstep>
  <scstep>
   <time name="dav">    0.38    0.39</time>
   <time name="total">    0.44    0.44</time>
   <energy>
    <i name="e_fr_energy">    -37.62761478 </i>
    <i name="e_wo_entrp">    -37.62761478 </i>
    <i name="e_0_energy">    -37.62761478 </i>
   </energy>
  </scstep>
  <scstep>
   <time name="dav">    0.36    0.36</time>
   <time name="total">    0.42    0.42</time>
   <energy>
    <i name="e_fr_energy">    -36.93400112 </i>
    <i name="e_wo_entrp">    -36.93400112 </i>
    <i name="e_0_energy">    -36.93400112 </i>
   </energy>
  </scstep>
  <scstep>
   <time name="dav">    0.31    0.31</time>
   <time name="total">    0.36    0.36</time>
   <energy>
    <i name="e_fr_energy">    -36.92839263 </i>
    <i name="e_wo_entrp">    -36.92839263 </i>
    <i name="e_0_energy">    -36.92839263 </i>
   </energy>
  </scstep>
  <scstep>
   <time name="dav">    0.32    0.32</time>
   <time name="total">    0.37    0.37</time>
   <energy>
    <i name="e_fr_energy">    -36.92525811 </i>
    <i name="e_wo_entrp">    -36.92525811 </i>
    <i name="e_0_energy">    -36.92525811 </i>
   </energy>
  </scstep>
  <scstep>
   <time name="dav">    0.27    0.27</time>
   <time name="total">    0.32    0.32</time>
   <energy>
    <i name="e_fr_energy">    -36.92028831 </i>
    <i name="e_wo_entrp">    -36.92028831 </i>
    <i name="e_0_energy">    -36.92028831 </i>
   </energy>
  </scstep>
  <scstep>
   <time name="dav">    0.23    0.23</time>
   <time name="total">    0.28    0.28</time>
   <energy>
    <i name="e_fr_energy">    -36.91666955 </i>
    <i name="e_wo_entrp">    -36.91666955 </i>
    <i name="e_0_energy">    -36.91666955 </i>
   </energy>
  </scstep>
  <scstep>
   <time name="dav">    0.25    0.25</time>
   <time name="total">    0.30    0.30</time>
   <energy>
    <i name="e_fr_energy">    -36.91525565 </i>
    <i name="e_wo_entrp">    -36.91525565 </i>
    <i name="e_0_energy">    -36.91525565 </i>
   </energy>
  </scstep>
  <scstep>
   <time name="dav">    0.29    0.29</time>
   <time name="total">    0.34    0.34</time>
   <energy>
    <i name="e_fr_energy">    -36.91589099 </i>
    <i name="e_wo_entrp">    -36.91589099 </i>
    <i name="e_0_energy">    -36.91589099 </i>
   </energy>
  </scstep>
  <scstep>
   <time name="dav">    0.32    0.32</time>
   <time name="total">    0.37    0.37</time>
   <energy>
    <i name="e_fr_energy">    -36.91730695 </i>
    <i name="e_wo_entrp">    -36.91730695 </i>
    <i name="e_0_energy">    -36.91730695 </i>
   </energy>
  </scstep>
  <scstep>
   <time name="dav">    0.31    0.31</time>
   <time name="total">    0.37    0.37</time>
   <energy>
    <i name="e_fr_energy">    -36.91757476 </i>
    <i name="e_wo_entrp">    -36.91757476 </i>
    <i name="e_0_energy">    -36.91757476 </i>
   </energy>
  </scstep>
  <scstep>
   <time name="dav">    0.31    0.31</time>
   <time name="total">    0.37    0.37</time>
   <energy>
    <i name="e_fr_energy">    -36.91773345 </i>
    <i name="e_wo_entrp">    -36.91773345 </i>
    <i name="e_0_energy">    -36.91773345 </i>
   </energy>
  </scstep>
  <scstep>
   <time name="dav">    0.29    0.29</time>
   <time name="total">    0.34    0.34</time>
   <energy>
    <i name="e_fr_energy">    -36.91776137 </i>
    <i name="e_wo_entrp">    -36.91776137 </i>
    <i name="e_0_energy">    -36.91776137 </i>
   </energy>
  </scstep>
  <scstep>
   <time name="dav">    0.26    0.26</time>
   <time name="total">    0.31    0.31</time>
   <energy>
    <i name="e_fr_energy">    -36.91776889 </i>
    <i name="e_wo_entrp">    -36.91776889 </i>
    <i name="e_0_energy">    -36.91776889 </i>
   </energy>
  </scstep>
  <scstep>
   <time name="dav">    0.31    0.31</time>
   <time name="total">    0.36    0.36</time>
   <energy>
    <i name="e_fr_energy">    -36.91776954 </i>
    <i name="e_wo_entrp">    -36.91776954 </i>
    <i name="e_0_energy">    -36.91776954 </i>
   </energy>
  </scstep>
  <scstep>
   <time name="dav">    0.34    0.34</time>
   <time name="total">    0.36    0.36</time>
   <energy>
    <i name="alphaZ">     12.44266281 </i>
    <i name="ewald">   2473.15002607 </i>
    <i name="hartreedc">  -2997.51838630 </i>
    <i name="XCdc">     57.63647479 </i>
    <i name="pawpsdc">    279.83956042 </i>
    <i name="pawaedc">   -285.00057435 </i>
    <i name="eentropy">     -0.00000000 </i>
    <i name="bandstr">   -166.08522680 </i>
    <i name="atom">    588.61769381 </i>
    <i name="e_fr_energy">    -36.91776954 </i>
    <i name="e_wo_entrp">    -36.91776954 </i>
    <i name="e_0_energy">    -36.91776954 </i>
   </energy>
  </scstep>
  <structure>
   <crystal>
    <varray name="basis" >
     <v>       2.13000000      -1.22975600       0.00000000 </v>
     <v>       2.13000000       1.22975600       0.00000000 </v>
     <v>       0.00000000       0.00000000      20.00000000 </v>
    </varray>
    <i name="volume">    104.77521120 </i>
    <varray name="rec_basis" >
     <v>       0.23474178      -0.40658472       0.00000000 </v>
     <v>       0.23474178       0.40658472       0.00000000 </v>
     <v>       0.00000000       0.00000000       0.05000000 </v>
    </varray>
   </crystal>
   <varray name="positions" >
    <v>       0.00000000       0.00000000       0.00000000 </v>
    <v>       0.33333300       0.33333300       0.00000000 </v>
    <v>       0.00000000       0.00000000       0.22193400 </v>
    <v>       0.33333300       0.33333300       0.22193400 </v>
   </varray>
  </structure>
  <varray name="forces" >
   <v>       0.00000000      -0.00000000       0.00000291 </v>
   <v>      -0.00000000      -0.00000000       0.00000291 </v>
   <v>      -0.00000000       0.00000000      -0.00000291 </v>
   <v>       0.00000000      -0.00000000      -0.00000291 </v>
  </varray>
  <varray name="stress" >
   <v>      12.81834487       0.00000000       0.00000000 </v>
   <v>       0.00000000      12.81834334       0.00000000 </v>
   <v>       0.00000000       0.00000000      -0.68479539 </v>
  </varray>
  <energy>
   <i name="e_fr_energy">    -36.91776954 </i>
   <i name="e_wo_entrp">    -36.91776954 </i>
   <i name="e_0_energy">     -0.00000000 </i>
  </energy>
  <time name="totalsc">    7.83    8.02</time>
 </calculation>
 <calculation>
  <scstep>
   <time name="dav">    0.27    0.27</time>
   <time name="total">    0.33    0.35</time>
   <energy>
    <i name="alphaZ">     12.44266281 </i>
    <i name="ewald">   2473.15011232 </i>
    <i name="hartreedc">  -2997.51821051 </i>
    <i name="XCdc">     57.63647018 </i>
    <i name="pawpsdc">    279.83964720 </i>
    <i name="pawaedc">   -285.00066105 </i>
    <i name="eentropy">     -0.00000000 </i>
    <i name="bandstr">   -166.08548432 </i>
    <i name="atom">    588.61769381 </i>
    <i name="e_fr_energy">    -36.91776956 </i>
    <i name="e_wo_entrp">    -36.91776956 </i>
    <i name="e_0_energy">    -36.91776956 </i>
   </energy>
  </scstep>
  <scstep>
   <time name="dav">    0.30    0.30</time>
   <time name="total">    0.35    0.35</time>
   <energy>
    <i name="e_fr_energy">    -36.91776956 </i>
    <i name="e_wo_entrp">    -36.91776956 </i>
    <i name="e_0_energy">    -36.91776956 </i>
   </energy>
  </scstep>
  <scstep>
   <time name="dav">    0.25    0.25</time>
   <time name="total">    0.30    0.30</time>
   <energy>
    <i name="e_fr_energy">    -36.91776956 </i>
    <i name="e_wo_entrp">    -36.91776956 </i>
    <i name="e_0_energy">    -36.91776956 </i>
   </energy>
  </scstep>
  <scstep>
   <time name="dav">    0.29    0.29</time>
   <time name="total">    0.34    0.34</time>
   <energy>
    <i name="e_fr_energy">    -36.91776956 </i>
    <i name="e_wo_entrp">    -36.91776956 </i>
    <i name="e_0_energy">    -36.91776956 </i>
   </energy>
  </scstep>
  <scstep>
   <time name="dav">    0.29    0.29</time>
   <time name="total">    0.31    0.31</time>
   <energy>
    <i name="alphaZ">     12.44266281 </i>
    <i name="ewald">   2473.15011232 </i>
    <i name="hartreedc">  -2997.51817409 </i>
    <i name="XCdc">     57.63646928 </i>
    <i name="pawpsdc">    279.83968736 </i>
    <i name="pawaedc">   -285.00070152 </i>
    <i name="eentropy">     -0.00000000 </i>
    <i name="bandstr">   -166.08551953 </i>
    <i name="atom">    588.61769381 </i>
    <i name="e_fr_energy">    -36.91776956 </i>
    <i name="e_wo_entrp">    -36.91776956 </i>
    <i name="e_0_energy">    -36.91776956 </i>
   </energy>
  </scstep>
  <structure>
   <crystal>
    <varray name="basis" >
     <v>       2.13000000      -1.22975600       0.00000000 </v>
     <v>       2.13000000       1.22975600       0.00000000 </v>
     <v>       0.00000000       0.00000000      20.00000000 </v>
    </varray>
    <i name="volume">    104.77521120 </i>
    <varray name="rec_basis" >
     <v>       0.23474178      -0.40658472       0.00000000 </v>
     <v>       0.23474178       0.40658472       0.00000000 </v>
     <v>       0.00000000       0.00000000       0.05000000 </v>
    </varray>
   </crystal>
   <varray name="positions" >
    <v>       0.00000000       0.00000000       0.00000000 </v>
    <v>       0.33333300       0.33333300       0.00000000 </v>
    <v>       0.00000000       0.00000000       0.22193399 </v>
    <v>       0.33333300       0.33333300       0.22193399 </v>
   </varray>
  </structure>
  <varray name="forces" >
   <v>       0.00000000      -0.00000000       0.00000016 </v>
   <v>      -0.00000000       0.00000000       0.00000016 </v>
   <v>      -0.00000000       0.00000000      -0.00000016 </v>
   <v>       0.00000000      -0.00000000      -0.00000016 </v>
  </varray>
  <varray name="stress" >
   <v>      12.81826470       0.00000000       0.00000000 </v>
   <v>      -0.00000000      12.81826317       0.00000000 </v>
   <v>       0.00000000       0.00000000      -0.68332448 </v>
  </varray>
  <energy>
   <i name="e_fr_energy">    -36.91776956 </i>
   <i name="e_wo_entrp">    -36.91776956 </i>
   <i name="e_0_energy">     -0.00000000 </i>
  </energy>
  <time name="totalsc">    1.97    2.04</time>
 </calculation>
 <calculation>
  <scstep>
   <time name="dav">    0.30    0.30</time>
   <time name="total">    0.37    0.38</time>
   <energy>
    <i name="alphaZ">     12.44266281 </i>
    <i name="ewald">   2473.15011738 </i>
    <i name="hartreedc">  -2997.51817532 </i>
    <i name="XCdc">     57.63646924 </i>
    <i name="pawpsdc">    279.83968745 </i>
    <i name="pawaedc">   -285.00070161 </i>
    <i name="eentropy">     -0.00000000 </i>
    <i name="bandstr">   -166.08552333 </i>
    <i name="atom">    588.61769381 </i>
    <i name="e_fr_energy">    -36.91776956 </i>
    <i name="e_wo_entrp">    -36.91776956 </i>
    <i name="e_0_energy">    -36.91776956 </i>
   </energy>
  </scstep>
  <scstep>
   <time name="dav">    0.31    0.31</time>
   <time name="total">    0.36    0.36</time>
   <energy>
    <i name="e_fr_energy">    -36.91776956 </i>
    <i name="e_wo_entrp">    -36.91776956 </i>
    <i name="e_0_energy">    -36.91776956 </i>
   </energy>
  </scstep>
  <scstep>
   <time name="dav">    0.25    0.25</time>
   <time name="total">    0.30    0.30</time>
   <energy>
    <i name="e_fr_energy">    -36.91776956 </i>
    <i name="e_wo_entrp">    -36.91776956 </i>
    <i name="e_0_energy">    -36.91776956 </i>
   </energy>
  </scstep>
  <scstep>
   <time name="dav">    0.24    0.24</time>
   <time name="total">    0.29    0.29</time>
   <energy>
    <i name="e_fr_energy">    -36.91776956 </i>
    <i name="e_wo_entrp">    -36.91776956 </i>
    <i name="e_0_energy">    -36.91776956 </i>
   </energy>
  </scstep>
  <scstep>
   <time name="dav">    0.29    0.29</time>
   <time name="total">    0.31    0.31</time>
   <energy>
    <i name="alphaZ">     12.44266281 </i>
    <i name="ewald">   2473.15011738 </i>
    <i name="hartreedc">  -2997.51815430 </i>
    <i name="XCdc">     57.63646913 </i>
    <i name="pawpsdc">    279.83968814 </i>
    <i name="pawaedc">   -285.00070230 </i>
    <i name="eentropy">     -0.00000000 </i>
    <i name="bandstr">   -166.08554423 </i>
    <i name="atom">    588.61769381 </i>
    <i name="e_fr_energy">    -36.91776956 </i>
    <i name="e_wo_entrp">    -36.91776956 </i>
    <i name="e_0_energy">    -36.91776956 </i>
   </energy>
  </scstep>
  <structure>
   <crystal>
    <varray name="basis" >
     <v>       2.13000000      -1.22975600       0.00000000 </v>
     <v>       2.13000000       1.22975600       0.00000000 </v>
     <v>       0.00000000       0.00000000      20.00000000 </v>
    </varray>
    <i name="volume">    104.77521120 </i>
    <varray name="rec_basis" >
     <v>       0.23474178      -0.40658472       0.00000000 </v>
     <v>       0.23474178       0.40658472       0.00000000 </v>
     <v>       0.00000000       0.00000000       0.05000000 </v>
    </varray>
   </crystal>
   <varray name="positions" >
    <v>       0.00000000       0.00000000       0.00000000 </v>
    <v>       0.33333300       0.33333300       0.00000000 </v>
    <v>       0.00000000       0.00000000       0.22193399 </v>
    <v>       0.33333300       0.33333300       0.22193399 </v>
   </varray>
  </structure>
  <varray name="forces" >
   <v>       0.00000000       0.00000000       0.00000013 </v>
   <v>      -0.00000000       0.00000000       0.00000013 </v>
   <v>      -0.00000000      -0.00000000      -0.00000013 </v>
   <v>      -0.00000000      -0.00000000      -0.00000013 </v>
  </varray>
  <varray name="stress" >
   <v>      12.81826449      -0.00000000      -0.00000000 </v>
   <v>       0.00000000      12.81826296       0.00000000 </v>
   <v>       0.00000000       0.00000000      -0.68330291 </v>
  </varray>
  <energy>
   <i name="e_fr_energy">    -36.91776956 </i>
   <i name="e_wo_entrp">    -36.91776956 </i>
   <i name="e_0_energy">     -0.00000000 </i>
  </energy>
  <time name="totalsc">    1.97    2.04</time>
 </calculation>
 <calculation>
  <scstep>
   <time name="dav">    0.24    0.24</time>
   <time name="total">    0.30    0.32</time>
   <energy>
    <i name="alphaZ">     12.44266281 </i>
    <i name="ewald">   2473.15012750 </i>
    <i name="hartreedc">  -2997.51816067 </i>
    <i name="XCdc">     57.63646912 </i>
    <i name="pawpsdc">    279.83968827 </i>
    <i name="pawaedc">   -285.00070244 </i>
    <i name="eentropy">     -0.00000000 </i>
    <i name="bandstr">   -166.08554797 </i>
    <i name="atom">    588.61769381 </i>
    <i name="e_fr_energy">    -36.91776956 </i>
    <i name="e_wo_entrp">    -36.91776956 </i>
    <i name="e_0_energy">    -36.91776956 </i>
   </energy>
  </scstep>
  <scstep>
   <time name="dav">    0.26    0.26</time>
   <time name="total">    0.31    0.31</time>
   <energy>
    <i name="e_fr_energy">    -36.91776956 </i>
    <i name="e_wo_entrp">    -36.91776956 </i>
    <i name="e_0_energy">    -36.91776956 </i>
   </energy>
  </scstep>
  <scstep>
   <time name="dav">    0.22    0.22</time>
   <time name="total">    0.27    0.27</time>
   <energy>
    <i name="e_fr_energy">    -36.91776956 </i>
    <i name="e_wo_entrp">    -36.91776956 </i>
    <i name="e_0_energy">    -36.91776956 </i>
   </energy>
  </scstep>
  <scstep>
   <time name="dav">    0.25    0.25</time>
   <time name="total">    0.30    0.30</time>
   <energy>
    <i name="e_fr_energy">    -36.91776956 </i>
    <i name="e_wo_entrp">    -36.91776956 </i>
    <i name="e_0_energy">    -36.91776956 </i>
   </energy>
  </scstep>
  <scstep>
   <time name="dav">    0.22    0.22</time>
   <time name="total">    0.24    0.24</time>
   <energy>
    <i name="alphaZ">     12.44266281 </i>
    <i name="ewald">   2473.15012750 </i>
    <i name="hartreedc">  -2997.51815971 </i>
    <i name="XCdc">     57.63646913 </i>
    <i name="pawpsdc">    279.83968815 </i>
    <i name="pawaedc">   -285.00070231 </i>
    <i name="eentropy">     -0.00000000 </i>
    <i name="bandstr">   -166.08554894 </i>
    <i name="atom">    588.61769381 </i>
    <i name="e_fr_energy">    -36.91776956 </i>
    <i name="e_wo_entrp">    -36.91776956 </i>
    <i name="e_0_energy">    -36.91776956 </i>
   </energy>
  </scstep>
  <structure>
   <crystal>
    <varray name="basis" >
     <v>       2.13000000      -1.22975600       0.00000000 </v>
     <v>       2.13000000       1.22975600       0.00000000 </v>
     <v>       0.00000000       0.00000000      20.00000000 </v>
    </varray>
    <i name="volume">    104.77521120 </i>
    <varray name="rec_basis" >
     <v>       0.23474178      -0.40658472       0.00000000 </v>
     <v>       0.23474178       0.40658472       0.00000000 </v>
     <v>       0.00000000       0.00000000       0.05000000 </v>
    </varray>
   </crystal>
   <varray name="positions" >
    <v>       0.00000000       0.00000000       0.00000000 </v>
    <v>       0.33333300       0.33333300       0.00000000 </v>
    <v>       0.00000000       0.00000000       0.22193399 </v>
    <v>       0.33333300       0.33333300       0.22193399 </v>
   </varray>
  </structure>
  <varray name="forces" >
   <v>       0.00000000       0.00000000       0.00000015 </v>
   <v>      -0.00000000      -0.00000000       0.00000015 </v>
   <v>      -0.00000000       0.00000000      -0.00000015 </v>
   <v>       0.00000000      -0.00000000      -0.00000015 </v>
  </varray>
  <varray name="stress" >
   <v>      12.81826446      -0.00000000       0.00000000 </v>
   <v>       0.00000000      12.81826293       0.00000000 </v>
   <v>       0.00000000       0.00000000      -0.68330200 </v>
  </varray>
  <energy>
   <i name="e_fr_energy">    -36.91776956 </i>
   <i name="e_wo_entrp">    -36.91776956 </i>
   <i name="e_0_energy">     -0.00000000 </i>
  </energy>
  <time name="totalsc">    1.75    1.83</time>
 </calculation>
 <calculation>
  <scstep>
   <time name="dav">    0.25    0.25</time>
   <time name="total">    0.32    0.33</time>
   <energy>
    <i name="alphaZ">     12.44266281 </i>
    <i name="ewald">   2473.15014774 </i>
    <i name="hartreedc">  -2997.51817935 </i>
    <i name="XCdc">     57.63646913 </i>
    <i name="pawpsdc">    279.83968814 </i>
    <i name="pawaedc">   -285.00070231 </i>
    <i name="eentropy">     -0.00000000 </i>
    <i name="bandstr">   -166.08554953 </i>
    <i name="atom">    588.61769381 </i>
    <i name="e_fr_energy">    -36.91776956 </i>
    <i name="e_wo_entrp">    -36.91776956 </i>
    <i name="e_0_energy">    -36.91776956 </i>
   </energy>
  </scstep>
  <scstep>
   <time name="dav">    0.20    0.20</time>
   <time name="total">    0.26    0.26</time>
   <energy>
    <i name="e_fr_energy">    -36.91776956 </i>
    <i name="e_wo_entrp">    -36.91776956 </i>
    <i name="e_0_energy">    -36.91776956 </i>
   </energy>
  </scstep>
  <scstep>
   <time name="dav">    0.21    0.21</time>
   <time name="total">    0.26    0.26</time>
   <energy>
    <i name="e_fr_energy">    -36.91776956 </i>
    <i name="e_wo_entrp">    -36.91776956 </i>
    <i name="e_0_energy">    -36.91776956 </i>
   </energy>
  </scstep>
  <scstep>
   <time name="dav">    0.18    0.18</time>
   <time name="total">    0.24    0.24</time>
   <energy>
    <i name="e_fr_energy">    -36.91776956 </i>
    <i name="e_wo_entrp">    -36.91776956 </i>
    <i name="e_0_energy">    -36.91776956 </i>
   </energy>
  </scstep>
  <scstep>
   <time name="dav">    0.18    0.18</time>
   <time name="total">    0.20    0.20</time>
   <energy>
    <i name="alphaZ">     12.44266281 </i>
    <i name="ewald">   2473.15014774 </i>
    <i name="hartreedc">  -2997.51817858 </i>
    <i name="XCdc">     57.63646913 </i>
    <i name="pawpsdc">    279.83968818 </i>
    <i name="pawaedc">   -285.00070234 </i>
    <i name="eentropy">     -0.00000000 </i>
    <i name="bandstr">   -166.08555030 </i>
    <i name="atom">    588.61769381 </i>
    <i name="e_fr_energy">    -36.91776956 </i>
    <i name="e_wo_entrp">    -36.91776956 </i>
    <i name="e_0_energy">    -36.91776956 </i>
   </energy>
  </scstep>
  <structure>
   <crystal>
    <varray name="basis" >
     <v>       2.13000000      -1.22975600       0.00000000 </v>
     <v>       2.13000000       1.22975600       0.00000000 </v>
     <v>       0.00000000       0.00000000      20.00000000 </v>
    </varray>
    <i name="volume">    104.77521120 </i>
    <varray name="rec_basis" >
     <v>       0.23474178      -0.40658472       0.00000000 </v>
     <v>       0.23474178       0.40658472       0.00000000 </v>
     <v>       0.00000000       0.00000000       0.05000000 </v>
    </varray>
   </crystal>
   <varray name="positions" >
    <v>       0.00000000       0.00000000       0.00000000 </v>
    <v>       0.33333300       0.33333300       0.00000000 </v>
    <v>       0.00000000       0.00000000       0.22193399 </v>
    <v>       0.33333300       0.33333300       0.22193399 </v>
   </varray>
  </structure>
  <varray name="forces" >
   <v>       0.00000000       0.00000000       0.00000014 </v>
   <v>      -0.00000000      -0.00000000       0.00000014 </v>
   <v>      -0.00000000      -0.00000000      -0.00000014 </v>
   <v>       0.00000000      -0.00000000      -0.00000014 </v>
  </varray>
  <varray name="stress" >
   <v>      12.81826441       0.00000000       0.00000000 </v>
   <v>      -0.00000000      12.81826288       0.00000000 </v>
   <v>       0.00000000       0.00000000      -0.68330118 </v>
  </varray>
  <energy>
   <i name="e_fr_energy">    -36.91776956 </i>
   <i name="e_wo_entrp">    -36.91776956 </i>
   <i name="e_0_energy">     -0.00000000 </i>
  </energy>
  <time name="totalsc">    1.59    1.67</time>
 </calculation>
 <calculation>
  <scstep>
   <time name="dav">    0.14    0.14</time>
   <time name="total">    0.20    0.22</time>
   <energy>
    <i name="alphaZ">     12.44266281 </i>
    <i name="ewald">   2473.15018821 </i>
    <i name="hartreedc">  -2997.51821888 </i>
    <i name="XCdc">     57.63646913 </i>
    <i name="pawpsdc">    279.83968818 </i>
    <i name="pawaedc">   -285.00070235 </i>
    <i name="eentropy">     -0.00000000 </i>
    <i name="bandstr">   -166.08555048 </i>
    <i name="atom">    588.61769381 </i>
    <i name="e_fr_energy">    -36.91776956 </i>
    <i name="e_wo_entrp">    -36.91776956 </i>
    <i name="e_0_energy">    -36.91776956 </i>
   </energy>
  </scstep>
  <scstep>
   <time name="dav">    0.14    0.14</time>
   <time name="total">    0.19    0.19</time>
   <energy>
    <i name="e_fr_energy">    -36.91776956 </i>
    <i name="e_wo_entrp">    -36.91776956 </i>
    <i name="e_0_energy">    -36.91776956 </i>
   </energy>
  </scstep>
  <scstep>
   <time name="dav">    0.15    0.15</time>
   <time name="total">    0.20    0.20</time>
   <energy>
    <i name="e_fr_energy">    -36.91776956 </i>
    <i name="e_wo_entrp">    -36.91776956 </i>
    <i name="e_0_energy">    -36.91776956 </i>
   </energy>
  </scstep>
  <scstep>
   <time name="dav">    0.15    0.15</time>
   <time name="total">    0.20    0.20</time>
   <energy>
    <i name="e_fr_energy">    -36.91776956 </i>
    <i name="e_wo_entrp">    -36.91776956 </i>
    <i name="e_0_energy">    -36.91776956 </i>
   </energy>
  </scstep>
  <scstep>
   <time name="dav">    0.17    0.17</time>
   <time name="total">    0.19    0.19</time>
   <energy>
    <i name="alphaZ">     12.44266281 </i>
    <i name="ewald">   2473.15018821 </i>
    <i name="hartreedc">  -2997.51821839 </i>
    <i name="XCdc">     57.63646912 </i>
    <i name="pawpsdc">    279.83968818 </i>
    <i name="pawaedc">   -285.00070235 </i>
    <i name="eentropy">     -0.00000000 </i>
    <i name="bandstr">   -166.08555096 </i>
    <i name="atom">    588.61769381 </i>
    <i name="e_fr_energy">    -36.91776956 </i>
    <i name="e_wo_entrp">    -36.91776956 </i>
    <i name="e_0_energy">    -36.91776956 </i>
   </energy>
  </scstep>
  <structure>
   <crystal>
    <varray name="basis" >
     <v>       2.13000000      -1.22975600       0.00000000 </v>
     <v>       2.13000000       1.22975600       0.00000000 </v>
     <v>       0.00000000       0.00000000      20.00000000 </v>
    </varray>
    <i name="volume">    104.77521120 </i>
    <varray name="rec_basis" >
     <v>       0.23474178      -0.40658472       0.00000000 </v>
     <v>       0.23474178       0.40658472       0.00000000 </v>
     <v>       0.00000000       0.00000000       0.05000000 </v>
    </varray>
   </crystal>
   <varray name="positions" >
    <v>       0.00000000       0.00000000       0.00000000 </v>
    <v>       0.33333300       0.33333300       0.00000000 </v>
    <v>       0.00000000       0.00000000       0.22193399 </v>
    <v>       0.33333300       0.33333300       0.22193399 </v>
   </varray>
  </structure>
  <varray name="forces" >
   <v>       0.00000000       0.00000000       0.00000012 </v>
   <v>      -0.00000000      -0.00000000       0.00000012 </v>
   <v>      -0.00000000       0.00000000      -0.00000012 </v>
   <v>       0.00000000      -0.00000000      -0.00000012 </v>
  </varray>
  <varray name="stress" >
   <v>      12.81826438       0.00000000       0.00000000 </v>
   <v>      -0.00000000      12.81826285       0.00000000 </v>
   <v>      -0.00000000       0.00000000      -0.68330053 </v>
  </varray>
  <energy>
   <i name="e_fr_energy">    -36.91776956 </i>
   <i name="e_wo_entrp">    -36.91776956 </i>
   <i name="e_0_energy">     -0.00000000 </i>
  </energy>
  <time name="totalsc">    1.33    1.40</time>
 </calculation>
 <calculation>
  <scstep>
   <time name="dav">    0.16    0.16</time>
   <time name="total">    0.22    0.24</time>
   <energy>
    <i name="alphaZ">     12.44266281 </i>
    <i name="ewald">   2473.15026916 </i>
    <i name="hartreedc">  -2997.51829925 </i>
    <i name="XCdc">     57.63646913 </i>
    <i name="pawpsdc">    279.83968820 </i>
    <i name="pawaedc">   -285.00070236 </i>
    <i name="eentropy">     -0.00000000 </i>
    <i name="bandstr">   -166.08555105 </i>
    <i name="atom">    588.61769381 </i>
    <i name="e_fr_energy">    -36.91776956 </i>
    <i name="e_wo_entrp">    -36.91776956 </i>
    <i name="e_0_energy">    -36.91776956 </i>
   </energy>
  </scstep>
  <scstep>
   <time name="dav">    0.15    0.15</time>
   <time name="total">    0.20    0.20</time>
   <energy>
    <i name="e_fr_energy">    -36.91776956 </i>
    <i name="e_wo_entrp">    -36.91776956 </i>
    <i name="e_0_energy">    -36.91776956 </i>
   </energy>
  </scstep>
  <scstep>
   <time name="dav">    0.15    0.15</time>
   <time name="total">    0.20    0.20</time>
   <energy>
    <i name="e_fr_energy">    -36.91776956 </i>
    <i name="e_wo_entrp">    -36.91776956 </i>
    <i name="e_0_energy">    -36.91776956 </i>
   </energy>
  </scstep>
  <scstep>
   <time name="dav">    0.14    0.15</time>
   <time name="total">    0.20    0.20</time>
   <energy>
    <i name="e_fr_energy">    -36.91776956 </i>
    <i name="e_wo_entrp">    -36.91776956 </i>
    <i name="e_0_energy">    -36.91776956 </i>
   </energy>
  </scstep>
  <scstep>
   <time name="dav">    0.14    0.14</time>
   <time name="total">    0.16    0.16</time>
   <energy>
    <i name="alphaZ">     12.44266281 </i>
    <i name="ewald">   2473.15026916 </i>
    <i name="hartreedc">  -2997.51829886 </i>
    <i name="XCdc">     57.63646912 </i>
    <i name="pawpsdc">    279.83968818 </i>
    <i name="pawaedc">   -285.00070234 </i>
    <i name="eentropy">     -0.00000000 </i>
    <i name="bandstr">   -166.08555144 </i>
    <i name="atom">    588.61769381 </i>
    <i name="e_fr_energy">    -36.91776956 </i>
    <i name="e_wo_entrp">    -36.91776956 </i>
    <i name="e_0_energy">    -36.91776956 </i>
   </energy>
  </scstep>
  <structure>
   <crystal>
    <varray name="basis" >
     <v>       2.13000000      -1.22975600       0.00000000 </v>
     <v>       2.13000000       1.22975600       0.00000000 </v>
     <v>       0.00000000       0.00000000      20.00000000 </v>
    </varray>
    <i name="volume">    104.77521120 </i>
    <varray name="rec_basis" >
     <v>       0.23474178      -0.40658472       0.00000000 </v>
     <v>       0.23474178       0.40658472       0.00000000 </v>
     <v>       0.00000000       0.00000000       0.05000000 </v>
    </varray>
   </crystal>
   <varray name="positions" >
    <v>       0.00000000       0.00000000       0.00000000 </v>
    <v>       0.33333300       0.33333300       0.00000000 </v>
    <v>       0.00000000       0.00000000       0.22193398 </v>
    <v>       0.33333300       0.33333300       0.22193398 </v>
   </varray>
  </structure>
  <varray name="forces" >
   <v>      -0.00000000       0.00000000       0.00000010 </v>
   <v>       0.00000000      -0.00000000       0.00000010 </v>
   <v>       0.00000000       0.00000000      -0.00000010 </v>
   <v>      -0.00000000      -0.00000000      -0.00000010 </v>
  </varray>
  <varray name="stress" >
   <v>      12.81826432       0.00000000      -0.00000000 </v>
   <v>       0.00000000      12.81826279       0.00000000 </v>
   <v>       0.00000000      -0.00000000      -0.68329954 </v>
  </varray>
  <energy>
   <i name="e_fr_energy">    -36.91776956 </i>
   <i name="e_wo_entrp">    -36.91776956 </i>
   <i name="e_0_energy">     -0.00000000 </i>
  </energy>
  <time name="totalsc">    1.30    1.37</time>
 </calculation>
 <calculation>
  <scstep>
   <time name="dav">    0.14    0.14</time>
   <time name="total">    0.21    0.22</time>
   <energy>
    <i name="alphaZ">     12.44266281 </i>
    <i name="ewald">   2473.15043106 </i>
    <i name="hartreedc">  -2997.51846074 </i>
    <i name="XCdc">     57.63646913 </i>
    <i name="pawpsdc">    279.83968823 </i>
    <i name="pawaedc">   -285.00070239 </i>
    <i name="eentropy">     -0.00000000 </i>
    <i name="bandstr">   -166.08555147 </i>
    <i name="atom">    588.61769381 </i>
    <i name="e_fr_energy">    -36.91776956 </i>
    <i name="e_wo_entrp">    -36.91776956 </i>
    <i name="e_0_energy">    -36.91776956 </i>
   </energy>
  </scstep>
  <scstep>
   <time name="dav">    0.18    0.18</time>
   <time name="total">    0.23    0.23</time>
   <energy>
    <i name="e_fr_energy">    -36.91776956 </i>
    <i name="e_wo_entrp">    -36.91776956 </i>
    <i name="e_0_energy">    -36.91776956 </i>
   </energy>
  </scstep>
  <scstep>
   <time name="dav">    0.17    0.17</time>
   <time name="total">    0.22    0.22</time>
   <energy>
    <i name="e_fr_energy">    -36.91776956 </i>
    <i name="e_wo_entrp">    -36.91776956 </i>
    <i name="e_0_energy">    -36.91776956 </i>
   </energy>
  </scstep>
  <scstep>
   <time name="dav">    0.14    0.14</time>
   <time name="total">    0.19    0.19</time>
   <energy>
    <i name="e_fr_energy">    -36.91776956 </i>
    <i name="e_wo_entrp">    -36.91776956 </i>
    <i name="e_0_energy">    -36.91776956 </i>
   </energy>
  </scstep>
  <scstep>
   <time name="dav">    0.14    0.14</time>
   <time name="total">    0.16    0.16</time>
   <energy>
    <i name="alphaZ">     12.44266281 </i>
    <i name="ewald">   2473.15043106 </i>
    <i name="hartreedc">  -2997.51846043 </i>
    <i name="XCdc">     57.63646912 </i>
    <i name="pawpsdc">    279.83968820 </i>
    <i name="pawaedc">   -285.00070236 </i>
    <i name="eentropy">     -0.00000000 </i>
    <i name="bandstr">   -166.08555177 </i>
    <i name="atom">    588.61769381 </i>
    <i name="e_fr_energy">    -36.91776956 </i>
    <i name="e_wo_entrp">    -36.91776956 </i>
    <i name="e_0_energy">    -36.91776956 </i>
   </energy>
  </scstep>
  <structure>
   <crystal>
    <varray name="basis" >
     <v>       2.13000000      -1.22975600       0.00000000 </v>
     <v>       2.13000000       1.22975600       0.00000000 </v>
     <v>       0.00000000       0.00000000      20.00000000 </v>
    </varray>
    <i name="volume">    104.77521120 </i>
    <varray name="rec_basis" >
     <v>       0.23474178      -0.40658472       0.00000000 </v>
     <v>       0.23474178       0.40658472       0.00000000 </v>
     <v>       0.00000000       0.00000000       0.05000000 </v>
    </varray>
   </crystal>
   <varray name="positions" >
    <v>       0.00000000       0.00000000       0.00000000 </v>
    <v>       0.33333300       0.33333300       0.00000000 </v>
    <v>       0.00000000       0.00000000       0.22193397 </v>
    <v>       0.33333300       0.33333300       0.22193397 </v>
   </varray>
  </structure>
  <varray name="forces" >
   <v>      -0.00000000       0.00000000       0.00000006 </v>
   <v>       0.00000000      -0.00000000       0.00000006 </v>
   <v>      -0.00000000      -0.00000000      -0.00000006 </v>
   <v>       0.00000000       0.00000000      -0.00000006 </v>
  </varray>
  <varray name="stress" >
   <v>      12.81826421      -0.00000000       0.00000000 </v>
   <v>       0.00000000      12.81826268       0.00000000 </v>
   <v>       0.00000000       0.00000000      -0.68329951 </v>
  </varray>
  <energy>
   <i name="e_fr_energy">    -36.91776956 </i>
   <i name="e_wo_entrp">    -36.91776956 </i>
   <i name="e_0_energy">     -0.00000000 </i>
  </energy>
  <time name="totalsc">    1.35    1.42</time>
 </calculation>
 <calculation>
  <scstep>
   <time name="dav">    0.22    0.22</time>
   <time name="total">    0.28    0.29</time>
   <energy>
    <i name="alphaZ">     12.44266281 </i>
    <i name="ewald">   2473.15075486 </i>
    <i name="hartreedc">  -2997.51878421 </i>
    <i name="XCdc">     57.63646913 </i>
    <i name="pawpsdc">    279.83968820 </i>
    <i name="pawaedc">   -285.00070237 </i>
    <i name="eentropy">     -0.00000000 </i>
    <i name="bandstr">   -166.08555180 </i>
    <i name="atom">    588.61769381 </i>
    <i name="e_fr_energy">    -36.91776956 </i>
    <i name="e_wo_entrp">    -36.91776956 </i>
    <i name="e_0_energy">    -36.91776956 </i>
   </energy>
  </scstep>
  <scstep>
   <time name="dav">    0.19    0.19</time>
   <time name="total">    0.24    0.24</time>
   <energy>
    <i name="e_fr_energy">    -36.91776956 </i>
    <i name="e_wo_entrp">    -36.91776956 </i>
    <i name="e_0_energy">    -36.91776956 </i>
   </energy>
  </scstep>
  <scstep>
   <time name="dav">    0.19    0.19</time>
   <time name="total">    0.24    0.24</time>
   <energy>
    <i name="e_fr_energy">    -36.91776956 </i>
    <i name="e_wo_entrp">    -36.91776956 </i>
    <i name="e_0_energy">    -36.91776956 </i>
   </energy>
  </scstep>
  <scstep>
   <time name="dav">    0.14    0.14</time>
   <time name="total">    0.19    0.19</time>
   <energy>
    <i name="e_fr_energy">    -36.91776956 </i>
    <i name="e_wo_entrp">    -36.91776956 </i>
    <i name="e_0_energy">    -36.91776956 </i>
   </energy>
  </scstep>
  <scstep>
   <time name="dav">    0.13    0.13</time>
   <time name="total">    0.15    0.15</time>
   <energy>
    <i name="alphaZ">     12.44266281 </i>
    <i name="ewald">   2473.15075486 </i>
    <i name="hartreedc">  -2997.51878448 </i>
    <i name="XCdc">     57.63646913 </i>
    <i name="pawpsdc">    279.83968853 </i>
    <i name="pawaedc">   -285.00070270 </i>
    <i name="eentropy">     -0.00000000 </i>
    <i name="bandstr">   -166.08555153 </i>
    <i name="atom">    588.61769381 </i>
    <i name="e_fr_energy">    -36.91776956 </i>
    <i name="e_wo_entrp">    -36.91776956 </i>
    <i name="e_0_energy">    -36.91776956 </i>
   </energy>
  </scstep>
  <structure>
   <crystal>
    <varray name="basis" >
     <v>       2.13000000      -1.22975600       0.00000000 </v>
     <v>       2.13000000       1.22975600       0.00000000 </v>
     <v>       0.00000000       0.00000000      20.00000000 </v>
    </varray>
    <i name="volume">    104.77521120 </i>
    <varray name="rec_basis" >
     <v>       0.23474178      -0.40658472       0.00000000 </v>
     <v>       0.23474178       0.40658472       0.00000000 </v>
     <v>       0.00000000       0.00000000       0.05000000 </v>
    </varray>
   </crystal>
   <varray name="positions" >
    <v>       0.00000000       0.00000000       0.00000000 </v>
    <v>       0.33333300       0.33333300       0.00000000 </v>
    <v>       0.00000000       0.00000000       0.22193394 </v>
    <v>       0.33333300       0.33333300       0.22193394 </v>
   </varray>
  </structure>
  <varray name="forces" >
   <v>      -0.00000000      -0.00000000       0.00000004 </v>
   <v>       0.00000000       0.00000000       0.00000004 </v>
   <v>       0.00000000      -0.00000000      -0.00000004 </v>
   <v>      -0.00000000       0.00000000      -0.00000004 </v>
  </varray>
  <varray name="stress" >
   <v>      12.81826424       0.00000000       0.00000000 </v>
   <v>       0.00000000      12.81826271       0.00000000 </v>
   <v>       0.00000000       0.00000000      -0.68329926 </v>
  </varray>
  <energy>
   <i name="e_fr_energy">    -36.91776956 </i>
   <i name="e_wo_entrp">    -36.91776956 </i>
   <i name="e_0_energy">     -0.00000000 </i>
  </energy>
  <time name="totalsc">    1.43    1.50</time>
 </calculation>
 <calculation>
  <scstep>
   <time name="dav">    0.23    0.23</time>
   <time name="total">    0.29    0.30</time>
   <energy>
    <i name="alphaZ">     12.44266281 </i>
    <i name="ewald">   2473.15140246 </i>
    <i name="hartreedc">  -2997.51943201 </i>
    <i name="XCdc">     57.63646915 </i>
    <i name="pawpsdc">    279.83968842 </i>
    <i name="pawaedc">   -285.00070259 </i>
    <i name="eentropy">     -0.00000000 </i>
    <i name="bandstr">   -166.08555161 </i>
    <i name="atom">    588.61769381 </i>
    <i name="e_fr_energy">    -36.91776956 </i>
    <i name="e_wo_entrp">    -36.91776956 </i>
    <i name="e_0_energy">    -36.91776956 </i>
   </energy>
  </scstep>
  <scstep>
   <time name="dav">    0.23    0.23</time>
   <time name="total">    0.28    0.28</time>
   <energy>
    <i name="e_fr_energy">    -36.91776956 </i>
    <i name="e_wo_entrp">    -36.91776956 </i>
    <i name="e_0_energy">    -36.91776956 </i>
   </energy>
  </scstep>
  <scstep>
   <time name="dav">    0.26    0.26</time>
   <time name="total">    0.31    0.31</time>
   <energy>
    <i name="e_fr_energy">    -36.91776956 </i>
    <i name="e_wo_entrp">    -36.91776956 </i>
    <i name="e_0_energy">    -36.91776956 </i>
   </energy>
  </scstep>
  <scstep>
   <time name="dav">    0.17    0.17</time>
   <time name="total">    0.22    0.22</time>
   <energy>
    <i name="e_fr_energy">    -36.91776956 </i>
    <i name="e_wo_entrp">    -36.91776956 </i>
    <i name="e_0_energy">    -36.91776956 </i>
   </energy>
  </scstep>
  <scstep>
   <time name="dav">    0.17    0.17</time>
   <time name="total">    0.19    0.19</time>
   <energy>
    <i name="alphaZ">     12.44266281 </i>
    <i name="ewald">   2473.15140246 </i>
    <i name="hartreedc">  -2997.51943267 </i>
    <i name="XCdc">     57.63646913 </i>
    <i name="pawpsdc">    279.83968858 </i>
    <i name="pawaedc">   -285.00070274 </i>
    <i name="eentropy">     -0.00000000 </i>
    <i name="bandstr">   -166.08555095 </i>
    <i name="atom">    588.61769381 </i>
    <i name="e_fr_energy">    -36.91776956 </i>
    <i name="e_wo_entrp">    -36.91776956 </i>
    <i name="e_0_energy">    -36.91776956 </i>
   </energy>
  </scstep>
  <structure>
   <crystal>
    <varray name="basis" >
     <v>       2.13000000      -1.22975600       0.00000000 </v>
     <v>       2.13000000       1.22975600       0.00000000 </v>
     <v>       0.00000000       0.00000000      20.00000000 </v>
    </varray>
    <i name="volume">    104.77521120 </i>
    <varray name="rec_basis" >
     <v>       0.23474178      -0.40658472       0.00000000 </v>
     <v>       0.23474178       0.40658472       0.00000000 </v>
     <v>       0.00000000       0.00000000       0.05000000 </v>
    </varray>
   </crystal>
   <varray name="positions" >
    <v>       0.00000000       0.00000000       0.00000000 </v>
    <v>       0.33333300       0.33333300       0.00000000 </v>
    <v>       0.00000000       0.00000000       0.22193389 </v>
    <v>       0.33333300       0.33333300       0.22193389 </v>
   </varray>
  </structure>
  <varray name="forces" >
   <v>      -0.00000000      -0.00000000       0.00000004 </v>
   <v>       0.00000000       0.00000000       0.00000004 </v>
   <v>       0.00000000      -0.00000000      -0.00000004 </v>
   <v>      -0.00000000       0.00000000      -0.00000004 </v>
  </varray>
  <varray name="stress" >
   <v>      12.81826419      -0.00000000       0.00000000 </v>
   <v>      -0.00000000      12.81826266       0.00000000 </v>
   <v>       0.00000000       0.00000000      -0.68329836 </v>
  </varray>
  <energy>
   <i name="e_fr_energy">    -36.91776956 </i>
   <i name="e_wo_entrp">    -36.91776956 </i>
   <i name="e_0_energy">     -0.00000000 </i>
  </energy>
  <time name="totalsc">    1.62    1.69</time>
 </calculation>
 <calculation>
  <scstep>
   <time name="dav">    0.21    0.21</time>
   <time name="total">    0.27    0.29</time>
   <energy>
    <i name="alphaZ">     12.44266281 </i>
    <i name="ewald">   2473.15269766 </i>
    <i name="hartreedc">  -2997.52072772 </i>
    <i name="XCdc">     57.63646917 </i>
    <i name="pawpsdc">    279.83968842 </i>
    <i name="pawaedc">   -285.00070259 </i>
    <i name="eentropy">     -0.00000000 </i>
    <i name="bandstr">   -166.08555113 </i>
    <i name="atom">    588.61769381 </i>
    <i name="e_fr_energy">    -36.91776956 </i>
    <i name="e_wo_entrp">    -36.91776956 </i>
    <i name="e_0_energy">    -36.91776956 </i>
   </energy>
  </scstep>
  <scstep>
   <time name="dav">    0.22    0.22</time>
   <time name="total">    0.27    0.27</time>
   <energy>
    <i name="e_fr_energy">    -36.91776956 </i>
    <i name="e_wo_entrp">    -36.91776956 </i>
    <i name="e_0_energy">    -36.91776956 </i>
   </energy>
  </scstep>
  <scstep>
   <time name="dav">    0.25    0.25</time>
   <time name="total">    0.30    0.30</time>
   <energy>
    <i name="e_fr_energy">    -36.91776956 </i>
    <i name="e_wo_entrp">    -36.91776956 </i>
    <i name="e_0_energy">    -36.91776956 </i>
   </energy>
  </scstep>
  <scstep>
   <time name="dav">    0.20    0.20</time>
   <time name="total">    0.25    0.25</time>
   <energy>
    <i name="e_fr_energy">    -36.91776956 </i>
    <i name="e_wo_entrp">    -36.91776956 </i>
    <i name="e_0_energy">    -36.91776956 </i>
   </energy>
  </scstep>
  <scstep>
   <time name="dav">    0.23    0.23</time>
   <time name="total">    0.25    0.25</time>
   <energy>
    <i name="alphaZ">     12.44266281 </i>
    <i name="ewald">   2473.15269766 </i>
    <i name="hartreedc">  -2997.52072906 </i>
    <i name="XCdc">     57.63646915 </i>
    <i name="pawpsdc">    279.83968871 </i>
    <i name="pawaedc">   -285.00070287 </i>
    <i name="eentropy">     -0.00000000 </i>
    <i name="bandstr">   -166.08554977 </i>
    <i name="atom">    588.61769381 </i>
    <i name="e_fr_energy">    -36.91776956 </i>
    <i name="e_wo_entrp">    -36.91776956 </i>
    <i name="e_0_energy">    -36.91776956 </i>
   </energy>
  </scstep>
  <structure>
   <crystal>
    <varray name="basis" >
     <v>       2.13000000      -1.22975600       0.00000000 </v>
     <v>       2.13000000       1.22975600       0.00000000 </v>
     <v>       0.00000000       0.00000000      20.00000000 </v>
    </varray>
    <i name="volume">    104.77521120 </i>
    <varray name="rec_basis" >
     <v>       0.23474178      -0.40658472       0.00000000 </v>
     <v>       0.23474178       0.40658472       0.00000000 </v>
     <v>       0.00000000       0.00000000       0.05000000 </v>
    </varray>
   </crystal>
   <varray name="positions" >
    <v>       0.00000000       0.00000000       0.00000000 </v>
    <v>       0.33333300       0.33333300       0.00000000 </v>
    <v>       0.00000000       0.00000000       0.22193378 </v>
    <v>       0.33333300       0.33333300       0.22193378 </v>
   </varray>
  </structure>
  <varray name="forces" >
   <v>       0.00000000      -0.00000000      -0.00000000 </v>
   <v>      -0.00000000      -0.00000000      -0.00000000 </v>
   <v>       0.00000000       0.00000000       0.00000000 </v>
   <v>      -0.00000000      -0.00000000       0.00000000 </v>
  </varray>
  <varray name="stress" >
   <v>      12.81826401       0.00000000       0.00000000 </v>
   <v>       0.00000000      12.81826248       0.00000000 </v>
   <v>       0.00000000       0.00000000      -0.68329649 </v>
  </varray>
  <energy>
   <i name="e_fr_energy">    -36.91776956 </i>
   <i name="e_wo_entrp">    -36.91776956 </i>
   <i name="e_0_energy">     -0.00000000 </i>
  </energy>
  <time name="totalsc">    2.25    2.48</time>
  <eigenvalues>
   <array>
    <dimension dim="1">band</dimension>
    <dimension dim="2">kpoint</dimension>
    <dimension dim="3">spin</dimension>
    <field>eigene</field>
    <field>occ</field>
    <set>
     <set comment="spin 1">
      <set comment="kpoint 1">
       <r>  -20.7948    1.0000 </r>
       <r>  -20.7831    1.0000 </r>
       <r>   -8.9732    1.0000 </r>
       <r>   -8.7915    1.0000 </r>
       <r>   -4.2421    1.0000 </r>
       <r>   -4.2421    1.0000 </r>
       <r>   -4.2417    1.0000 </r>
       <r>   -4.2416    1.0000 </r>
       <r>    1.9312    0.0000 </r>
       <r>    2.4904    0.0000 </r>
       <r>    3.1140    0.0000 </r>
       <r>    4.0010    0.0000 </r>
      </set>
      <set comment="kpoint 2">
       <r>  -20.7410    1.0000 </r>
       <r>  -20.7293    1.0000 </r>
       <r>   -8.9086    1.0000 </r>
       <r>   -8.7273    1.0000 </r>
       <r>   -4.4631    1.0000 </r>
       <r>   -4.4624    1.0000 </r>
       <r>   -4.3590    1.0000 </r>
       <r>   -4.3585    1.0000 </r>
       <r>    2.0033    0.0000 </r>
       <r>    2.5636    0.0000 </r>
       <r>    3.1873    0.0000 </r>
       <r>    4.0734    0.0000 </r>
      </set>
      <set comment="kpoint 3">
       <r>  -20.5796    1.0000 </r>
       <r>  -20.5680    1.0000 </r>
       <r>   -8.7150    1.0000 </r>
       <r>   -8.5354    1.0000 </r>
       <r>   -5.0832    1.0000 </r>
       <r>   -5.0821    1.0000 </r>
       <r>   -4.6789    1.0000 </r>
       <r>   -4.6782    1.0000 </r>
       <r>    2.2196    0.0000 </r>
       <r>    2.7832    0.0000 </r>
       <r>    3.4073    0.0000 </r>
       <r>    4.2903    0.0000 </r>
      </set>
      <set comment="kpoint 4">
       <r>  -20.3112    1.0000 </r>
       <r>  -20.2999    1.0000 </r>
       <r>   -8.3943    1.0000 </r>
       <r>   -8.2174    1.0000 </r>
       <r>   -6.0028    1.0000 </r>
       <r>   -6.0012    1.0000 </r>
       <r>   -5.1306    1.0000 </r>
       <r>   -5.1298    1.0000 </r>
       <r>    2.5800    0.0000 </r>
       <r>    3.1489    0.0000 </r>
       <r>    3.7735    0.0000 </r>
       <r>    4.6508    0.0000 </r>
      </set>
      <set comment="kpoint 5">
       <r>  -19.9369    1.0000 </r>
       <r>  -19.9259    1.0000 </r>
       <r>   -7.9495    1.0000 </r>
       <r>   -7.7765    1.0000 </r>
       <r>   -7.1157    1.0000 </r>
       <r>   -7.1136    1.0000 </r>
       <r>   -5.6394    1.0000 </r>
       <r>   -5.6385    1.0000 </r>
       <r>    3.0841    0.0000 </r>
       <r>    3.6597    0.0000 </r>
       <r>    4.2845    0.0000 </r>
       <r>    5.1520    0.0000 </r>
      </set>
      <set comment="kpoint 6">
       <r>  -19.4580    1.0000 </r>
       <r>  -19.4476    1.0000 </r>
       <r>   -8.3356    1.0000 </r>
       <r>   -8.3329    1.0000 </r>
       <r>   -7.3858    1.0000 </r>
       <r>   -7.2182    1.0000 </r>
       <r>   -6.1464    1.0000 </r>
       <r>   -6.1455    1.0000 </r>
       <r>    3.7308    0.0000 </r>
       <r>    4.3124    0.0000 </r>
       <r>    4.9330    0.0000 </r>
       <r>    5.7590    0.0000 </r>
      </set>
      <set comment="kpoint 7">
       <r>  -18.8770    1.0000 </r>
       <r>  -18.8671    1.0000 </r>
       <r>   -9.5999    1.0000 </r>
       <r>   -9.5965    1.0000 </r>
       <r>   -6.7123    1.0000 </r>
       <r>   -6.6108    1.0000 </r>
       <r>   -6.6098    1.0000 </r>
       <r>   -6.5517    1.0000 </r>
       <r>    4.5157    0.0000 </r>
       <r>    4.9744    0.0000 </r>
       <r>    4.9814    0.0000 </r>
       <r>    5.2694    0.0000 </r>
      </set>
      <set comment="kpoint 8">
       <r>  -18.1973    1.0000 </r>
       <r>  -18.1879    1.0000 </r>
       <r>  -10.8639    1.0000 </r>
       <r>  -10.8598    1.0000 </r>
       <r>   -7.0057    1.0000 </r>
       <r>   -7.0047    1.0000 </r>
       <r>   -5.9454    1.0000 </r>
       <r>   -5.7939    1.0000 </r>
       <r>    3.6653    0.0000 </r>
       <r>    3.7804    0.0000 </r>
       <r>    5.4403    0.0000 </r>
       <r>    6.0653    0.0000 </r>
      </set>
      <set comment="kpoint 9">
       <r>  -17.4250    1.0000 </r>
       <r>  -17.4162    1.0000 </r>
       <r>  -12.0941    1.0000 </r>
       <r>  -12.0893    1.0000 </r>
       <r>   -7.3139    1.0000 </r>
       <r>   -7.3128    1.0000 </r>
       <r>   -5.1185    1.0000 </r>
       <r>   -4.9790    1.0000 </r>
       <r>    2.3752    0.0000 </r>
       <r>    2.5072    0.0000 </r>
       <r>    6.3105    0.0000 </r>
       <r>    6.4062    0.0000 </r>
      </set>
      <set comment="kpoint 10">
       <r>  -16.5752    1.0000 </r>
       <r>  -16.5671    1.0000 </r>
       <r>  -13.2578    1.0000 </r>
       <r>  -13.2522    1.0000 </r>
       <r>   -7.5246    1.0000 </r>
       <r>   -7.5234    1.0000 </r>
       <r>   -4.3113    1.0000 </r>
       <r>   -4.1875    1.0000 </r>
       <r>    1.2412    0.0000 </r>
       <r>    1.3928    0.0000 </r>
       <r>    6.2874    0.0000 </r>
       <r>    6.3090    0.0000 </r>
      </set>
      <set comment="kpoint 11">
       <r>  -15.7302    1.0000 </r>
       <r>  -15.7226    1.0000 </r>
       <r>  -14.2622    1.0000 </r>
       <r>  -14.2561    1.0000 </r>
       <r>   -7.6313    1.0000 </r>
       <r>   -7.6302    1.0000 </r>
       <r>   -3.7307    1.0000 </r>
       <r>   -3.6228    1.0000 </r>
       <r>    0.4921    0.0000 </r>
       <r>    0.6620    0.0000 </r>
       <r>    6.2379    0.0000 </r>
       <r>    6.2559    0.0000 </r>
      </set>
      <set comment="kpoint 12">
       <r>  -20.6334    1.0000 </r>
       <r>  -20.6218    1.0000 </r>
       <r>   -8.7795    1.0000 </r>
       <r>   -8.5993    1.0000 </r>
       <r>   -4.8682    1.0000 </r>
       <r>   -4.8673    1.0000 </r>
       <r>   -4.5929    1.0000 </r>
       <r>   -4.5922    1.0000 </r>
       <r>    2.1475    0.0000 </r>
       <r>    2.7101    0.0000 </r>
       <r>    3.3340    0.0000 </r>
       <r>    4.2180    0.0000 </r>
      </set>
      <set comment="kpoint 13">
       <r>  -20.4185    1.0000 </r>
       <r>  -20.4071    1.0000 </r>
       <r>   -8.5223    1.0000 </r>
       <r>   -8.3443    1.0000 </r>
       <r>   -5.6052    1.0000 </r>
       <r>   -5.6039    1.0000 </r>
       <r>   -5.0120    1.0000 </r>
       <r>   -5.0112    1.0000 </r>
       <r>    2.4360    0.0000 </r>
       <r>    3.0027    0.0000 </r>
       <r>    3.6271    0.0000 </r>
       <r>    4.5069    0.0000 </r>
      </set>
      <set comment="kpoint 14">
       <r>  -20.0971    1.0000 </r>
       <r>  -20.0860    1.0000 </r>
       <r>   -8.1394    1.0000 </r>
       <r>   -7.9647    1.0000 </r>
       <r>   -6.5916    1.0000 </r>
       <r>   -6.5898    1.0000 </r>
       <r>   -5.5231    1.0000 </r>
       <r>   -5.5221    1.0000 </r>
       <r>    2.8684    0.0000 </r>
       <r>    3.4412    0.0000 </r>
       <r>    4.0660    0.0000 </r>
       <r>    4.9385    0.0000 </r>
      </set>
      <set comment="kpoint 15">
       <r>  -19.6705    1.0000 </r>
       <r>  -19.6598    1.0000 </r>
       <r>   -7.7367    1.0000 </r>
       <r>   -7.7343    1.0000 </r>
       <r>   -7.6348    1.0000 </r>
       <r>   -7.4647    1.0000 </r>
       <r>   -6.0530    1.0000 </r>
       <r>   -6.0519    1.0000 </r>
       <r>    3.4442    0.0000 </r>
       <r>    4.0239    0.0000 </r>
       <r>    4.6480    0.0000 </r>
       <r>    5.5055    0.0000 </r>
      </set>
      <set comment="kpoint 16">
       <r>  -19.1406    1.0000 </r>
       <r>  -19.1304    1.0000 </r>
       <r>   -8.9649    1.0000 </r>
       <r>   -8.9619    1.0000 </r>
       <r>   -7.0154    1.0000 </r>
       <r>   -6.8514    1.0000 </r>
       <r>   -6.5529    1.0000 </r>
       <r>   -6.5517    1.0000 </r>
       <r>    4.1614    0.0000 </r>
       <r>    4.7407    0.0000 </r>
       <r>    5.3180    0.0000 </r>
       <r>    5.6691    0.0000 </r>
      </set>
      <set comment="kpoint 17">
       <r>  -18.5102    1.0000 </r>
       <r>  -18.5005    1.0000 </r>
       <r>  -10.2205    1.0000 </r>
       <r>  -10.2168    1.0000 </r>
       <r>   -6.9912    1.0000 </r>
       <r>   -6.9900    1.0000 </r>
       <r>   -6.2930    1.0000 </r>
       <r>   -6.1371    1.0000 </r>
       <r>    4.2946    0.0000 </r>
       <r>    4.3966    0.0000 </r>
       <r>    5.0204    0.0000 </r>
       <r>    5.6449    0.0000 </r>
      </set>
      <set comment="kpoint 18">
       <r>  -17.7837    1.0000 </r>
       <r>  -17.7747    1.0000 </r>
       <r>  -11.4627    1.0000 </r>
       <r>  -11.4582    1.0000 </r>
       <r>   -7.3479    1.0000 </r>
       <r>   -7.3467    1.0000 </r>
       <r>   -5.4905    1.0000 </r>
       <r>   -5.3450    1.0000 </r>
       <r>    2.9869    0.0000 </r>
       <r>    3.1059    0.0000 </r>
       <r>    6.0006    0.0000 </r>
       <r>    6.5916    0.0000 </r>
      </set>
      <set comment="kpoint 19">
       <r>  -16.9705    1.0000 </r>
       <r>  -16.9621    1.0000 </r>
       <r>  -12.6587    1.0000 </r>
       <r>  -12.6536    1.0000 </r>
       <r>   -7.6102    1.0000 </r>
       <r>   -7.6089    1.0000 </r>
       <r>   -4.6581    1.0000 </r>
       <r>   -4.5263    1.0000 </r>
       <r>    1.7647    0.0000 </r>
       <r>    1.9025    0.0000 </r>
       <r>    6.5593    0.0000 </r>
       <r>    6.5964    0.0000 </r>
      </set>
      <set comment="kpoint 20">
       <r>  -16.1011    1.0000 </r>
       <r>  -16.0933    1.0000 </r>
       <r>  -13.7632    1.0000 </r>
       <r>  -13.7573    1.0000 </r>
       <r>   -7.7704    1.0000 </r>
       <r>   -7.7691    1.0000 </r>
       <r>   -3.9238    1.0000 </r>
       <r>   -3.8088    1.0000 </r>
       <r>    0.7864    0.0000 </r>
       <r>    0.9444    0.0000 </r>
       <r>    6.4993    0.0000 </r>
       <r>    6.5197    0.0000 </r>
      </set>
      <set comment="kpoint 21">
       <r>  -15.4820    1.0000 </r>
       <r>  -15.4746    1.0000 </r>
       <r>  -14.4614    1.0000 </r>
       <r>  -14.4552    1.0000 </r>
       <r>   -7.8242    1.0000 </r>
       <r>   -7.8229    1.0000 </r>
       <r>   -3.5926    1.0000 </r>
       <r>   -3.4879    1.0000 </r>
       <r>    0.3722    0.0000 </r>
       <r>    0.5417    0.0000 </r>
       <r>    6.4738    0.0000 </r>
       <r>    6.4928    0.0000 </r>
      </set>
      <set comment="kpoint 22">
       <r>  -20.1506    1.0000 </r>
       <r>  -20.1395    1.0000 </r>
       <r>   -8.2029    1.0000 </r>
       <r>   -8.0276    1.0000 </r>
       <r>   -6.3476    1.0000 </r>
       <r>   -6.3459    1.0000 </r>
       <r>   -5.5526    1.0000 </r>
       <r>   -5.5515    1.0000 </r>
       <r>    2.7966    0.0000 </r>
       <r>    3.3684    0.0000 </r>
       <r>    3.9932    0.0000 </r>
       <r>    4.8671    0.0000 </r>
      </set>
      <set comment="kpoint 23">
       <r>  -19.7770    1.0000 </r>
       <r>  -19.7662    1.0000 </r>
       <r>   -7.7599    1.0000 </r>
       <r>   -7.5886    1.0000 </r>
       <r>   -7.2906    1.0000 </r>
       <r>   -7.2886    1.0000 </r>
       <r>   -6.1614    1.0000 </r>
       <r>   -6.1601    1.0000 </r>
       <r>    3.3011    0.0000 </r>
       <r>    3.8793    0.0000 </r>
       <r>    4.5043    0.0000 </r>
       <r>    5.3689    0.0000 </r>
      </set>
      <set comment="kpoint 24">
       <r>  -19.2993    1.0000 </r>
       <r>  -19.2890    1.0000 </r>
       <r>   -8.3907    1.0000 </r>
       <r>   -8.3881    1.0000 </r>
       <r>   -7.1985    1.0000 </r>
       <r>   -7.0327    1.0000 </r>
       <r>   -6.7385    1.0000 </r>
       <r>   -6.7371    1.0000 </r>
       <r>    3.9482    0.0000 </r>
       <r>    4.5328    0.0000 </r>
       <r>    5.1539    0.0000 </r>
       <r>    5.9429    0.0000 </r>
      </set>
      <set comment="kpoint 25">
       <r>  -18.7199    1.0000 </r>
       <r>  -18.7101    1.0000 </r>
       <r>   -9.5788    1.0000 </r>
       <r>   -9.5755    1.0000 </r>
       <r>   -7.2444    1.0000 </r>
       <r>   -7.2428    1.0000 </r>
       <r>   -6.5276    1.0000 </r>
       <r>   -6.3688    1.0000 </r>
       <r>    4.7283    0.0000 </r>
[...]
       <r>    0.1929    0.0000 </r>
       <r>    0.3130    0.0000 </r>
       <r>    9.3961    0.0000 </r>
       <r>    9.4735    0.0000 </r>
      </set>
      <set comment="kpoint 42">
       <r>  -16.8712    1.0000 </r>
       <r>  -16.8630    1.0000 </r>
       <r>  -11.4003    1.0000 </r>
       <r>  -11.3961    1.0000 </r>
       <r>   -9.8607    1.0000 </r>
       <r>   -9.8574    1.0000 </r>
       <r>   -4.4471    1.0000 </r>
       <r>   -4.3128    1.0000 </r>
       <r>    2.0580    0.0000 </r>
       <r>    2.1361    0.0000 </r>
       <r>    7.2823    0.0000 </r>
       <r>    7.8789    0.0000 </r>
      </set>
      <set comment="kpoint 43">
       <r>  -16.0828    1.0000 </r>
       <r>  -16.0752    1.0000 </r>
       <r>  -12.2147    1.0000 </r>
       <r>  -12.2101    1.0000 </r>
       <r>  -10.4086    1.0000 </r>
       <r>  -10.4050    1.0000 </r>
       <r>   -3.6149    1.0000 </r>
       <r>   -3.4922    1.0000 </r>
       <r>    1.0923    0.0000 </r>
       <r>    1.1783    0.0000 </r>
       <r>    8.3683    0.0000 </r>
       <r>    8.9276    0.0000 </r>
      </set>
      <set comment="kpoint 44">
       <r>  -15.2476    1.0000 </r>
       <r>  -15.2406    1.0000 </r>
       <r>  -13.1209    1.0000 </r>
       <r>  -13.1156    1.0000 </r>
       <r>  -10.6938    1.0000 </r>
       <r>  -10.6901    1.0000 </r>
       <r>   -2.8258    1.0000 </r>
       <r>   -2.7165    1.0000 </r>
       <r>    0.2206    0.0000 </r>
       <r>    0.3181    0.0000 </r>
       <r>    9.2920    0.0000 </r>
       <r>    9.6914    0.0000 </r>
      </set>
      <set comment="kpoint 45">
       <r>  -14.6542    1.0000 </r>
       <r>  -14.6476    1.0000 </r>
       <r>  -13.7477    1.0000 </r>
       <r>  -13.7419    1.0000 </r>
       <r>  -10.7810    1.0000 </r>
       <r>  -10.7773    1.0000 </r>
       <r>   -2.4176    1.0000 </r>
       <r>   -2.3176    1.0000 </r>
       <r>   -0.2158    0.0000 </r>
       <r>   -0.1095    0.0000 </r>
       <r>    9.4069    0.0000 </r>
       <r>   10.2008    0.0000 </r>
      </set>
      <set comment="kpoint 46">
       <r>  -15.2822    1.0000 </r>
       <r>  -15.2752    1.0000 </r>
       <r>  -12.7414    1.0000 </r>
       <r>  -12.7364    1.0000 </r>
       <r>  -11.1239    1.0000 </r>
       <r>  -11.1198    1.0000 </r>
       <r>   -2.7857    1.0000 </r>
       <r>   -2.6742    1.0000 </r>
       <r>    0.2442    0.0000 </r>
       <r>    0.3321    0.0000 </r>
       <r>    9.1418    0.0000 </r>
       <r>    9.6101    0.0000 </r>
      </set>
      <set comment="kpoint 47">
       <r>  -14.4904    1.0000 </r>
       <r>  -14.4840    1.0000 </r>
       <r>  -13.4056    1.0000 </r>
       <r>  -13.4001    1.0000 </r>
       <r>  -11.4788    1.0000 </r>
       <r>  -11.4746    1.0000 </r>
       <r>   -2.0424    1.0000 </r>
       <r>   -1.9418    1.0000 </r>
       <r>   -0.5047    0.0000 </r>
       <r>   -0.4108    0.0000 </r>
       <r>    9.1229    0.0000 </r>
       <r>    9.9454    0.0000 </r>
      </set>
      <set comment="kpoint 48">
       <r>  -13.8306    1.0000 </r>
       <r>  -13.8305    1.0000 </r>
       <r>  -13.8247    1.0000 </r>
       <r>  -13.8246    1.0000 </r>
       <r>  -11.8206    1.0000 </r>
       <r>  -11.8161    1.0000 </r>
       <r>   -1.2618    1.0000 </r>
       <r>   -1.2618    1.0000 </r>
       <r>   -1.1668    0.0000 </r>
       <r>   -1.1668    0.0000 </r>
       <r>    9.0118    0.0000 </r>
       <r>    9.8558    0.0000 </r>
      </set>
     </set>
    </set>
   </array>
  </eigenvalues>
  <separator name="orbital magnetization" >
   <v name="MAGDIPOLOUT">      0.00000000      0.00000000      0.00000000</v>
  </separator>
  <dos>
   <i name="efermi">     -1.21978858 </i>
   <total>
    <array>
     <dimension dim="1">gridpoints</dimension>
     <dimension dim="2">spin</dimension>
     <field>energy</field>
     <field>total</field>
     <field>integrated</field>
     <set>
      <set comment="spin 1">
       <r>   -22.3446     0.0000     0.0000 </r>
       <r>   -22.2310     0.0000     0.0000 </r>
       <r>   -22.1173     0.0000     0.0000 </r>
       <r>   -22.0037     0.0000     0.0000 </r>
       <r>   -21.8900     0.0000     0.0000 </r>
       <r>   -21.7764     0.0000     0.0000 </r>
       <r>   -21.6627     0.0000     0.0000 </r>
       <r>   -21.5491     0.0000     0.0000 </r>
       <r>   -21.4354     0.0000     0.0000 </r>
       <r>   -21.3218     0.0000     0.0000 </r>
       <r>   -21.2081     0.0000     0.0000 </r>
       <r>   -21.0945     0.0000     0.0000 </r>
       <r>   -20.9808     0.0000     0.0000 </r>
       <r>   -20.8672     0.0000     0.0000 </r>
       <r>   -20.7535     0.0890     0.0101 </r>
       <r>   -20.6399     0.0440     0.0685 </r>
       <r>   -20.5262     0.4789     0.1723 </r>
       <r>   -20.4126     0.4869     0.2277 </r>
       <r>   -20.2989     0.3627     0.3224 </r>
       <r>   -20.1853     0.0000     0.3356 </r>
       <r>   -20.0716     1.4265     0.4977 </r>
       <r>   -19.9580     0.0003     0.4989 </r>
       <r>   -19.8443     0.0000     0.5533 </r>
       <r>   -19.7307     0.9577     0.6621 </r>
       <r>   -19.6170     0.9577     0.7710 </r>
       <r>   -19.5034     0.0000     0.7710 </r>
       <r>   -19.3897     0.4789     0.8254 </r>
       <r>   -19.2761     1.4201     0.9868 </r>
       <r>   -19.1624     0.0005     0.9887 </r>
       <r>   -19.0488     0.0000     1.0975 </r>
       <r>   -18.9351     0.0000     1.0975 </r>
       <r>   -18.8215     0.9034     1.2002 </r>
       <r>   -18.7078     0.7580     1.3469 </r>
       <r>   -18.5942     0.0000     1.3696 </r>
       <r>   -18.4805     0.9566     1.4783 </r>
       <r>   -18.3669     0.0000     1.4785 </r>
       <r>   -18.2532     0.0973     1.4895 </r>
       <r>   -18.1396     1.4366     1.6961 </r>
       <r>   -18.0259     0.8804     1.7962 </r>
       <r>   -17.9123     0.0000     1.8050 </r>
       <r>   -17.7986     0.0087     1.8060 </r>
       <r>   -17.6849     0.0000     1.9138 </r>
       <r>   -17.5713     0.6717     1.9902 </r>
       <r>   -17.4576     0.9284     2.1282 </r>
       <r>   -17.3440     0.2394     2.1859 </r>
       <r>   -17.2303     0.9577     2.2948 </r>
       <r>   -17.1167     0.0000     2.2948 </r>
       <r>   -17.0030     0.0000     2.2948 </r>
       <r>   -16.8894     0.4801     2.4038 </r>
       <r>   -16.7757     0.9577     2.5669 </r>
       <r>   -16.6621     0.7230     2.6491 </r>
       <r>   -16.5484     0.4779     2.7300 </r>
       <r>   -16.4348     0.0890     2.7403 </r>
       <r>   -16.3211     0.0000     2.8390 </r>
       <r>   -16.2075     0.0000     2.8390 </r>
       <r>   -16.0938     0.6624     2.9143 </r>
       <r>   -15.9802     0.7379     3.1405 </r>
       <r>   -15.8665     0.0000     3.1655 </r>
       <r>   -15.7529     0.9579     3.2744 </r>
       <r>   -15.6392     0.0000     3.3288 </r>
       <r>   -15.5256     0.9577     3.4376 </r>
       <r>   -15.4119     0.4789     3.4921 </r>
       <r>   -15.2983     0.0029     3.4924 </r>
       <r>   -15.1846     1.4394     3.7101 </r>
       <r>   -15.0710     0.0000     3.8186 </r>
       <r>   -14.9573     0.0000     3.8186 </r>
       <r>   -14.8437     0.0000     3.8186 </r>
       <r>   -14.7300     0.0000     3.8186 </r>
       <r>   -14.6164     0.4788     3.8730 </r>
       <r>   -14.5027     0.0214     3.8754 </r>
       <r>   -14.3891     0.4789     4.0363 </r>
       <r>   -14.2754     0.0081     4.0372 </r>
       <r>   -14.1618     0.4788     4.1451 </r>
       <r>   -14.0481     0.4789     4.2540 </r>
       <r>   -13.9345     0.0000     4.2540 </r>
       <r>   -13.8208     0.2588     4.2834 </r>
       <r>   -13.7072     2.3943     4.5624 </r>
       <r>   -13.5935     0.0000     4.5624 </r>
       <r>   -13.4799     0.9577     4.6712 </r>
       <r>   -13.3662     0.9577     4.7800 </r>
       <r>   -13.2526     0.2990     4.8140 </r>
       <r>   -13.1389     0.3176     4.8706 </r>
       <r>   -13.0253     0.0000     5.0522 </r>
       <r>   -12.9116     0.0000     5.0522 </r>
       <r>   -12.7980     0.9530     5.1605 </r>
       <r>   -12.6843     0.4789     5.2154 </r>
       <r>   -12.5707     0.0000     5.3243 </r>
       <r>   -12.4570     0.0613     5.3312 </r>
       <r>   -12.3434     0.0000     5.4331 </r>
       <r>   -12.2297     0.0095     5.4342 </r>
       <r>   -12.1161     0.0002     5.5420 </r>
       <r>   -12.0024     0.0828     5.6058 </r>
       <r>   -11.8888     0.0000     5.7052 </r>
       <r>   -11.7751     0.3558     5.7457 </r>
       <r>   -11.6615     0.0000     5.8322 </r>
       <r>   -11.5478     0.0000     5.8322 </r>
       <r>   -11.4342     1.9152     6.0499 </r>
       <r>   -11.3205     0.5254     6.1096 </r>
       <r>   -11.2069     0.0000     6.2132 </r>
       <r>   -11.0932     0.4788     6.2676 </r>
       <r>   -10.9796     0.0000     6.2676 </r>
       <r>   -10.8659     0.1396     6.2834 </r>
       <r>   -10.7523     1.5408     6.4971 </r>
       <r>   -10.6386     0.9577     6.7029 </r>
       <r>   -10.5249     0.0000     6.7029 </r>
       <r>   -10.4113     0.2574     6.7322 </r>
       <r>   -10.2976     0.0000     6.8118 </r>
       <r>   -10.1840     0.9595     6.9208 </r>
       <r>   -10.0703     0.0000     7.0295 </r>
       <r>    -9.9567     0.0000     7.0295 </r>
       <r>    -9.8430     1.4743     7.1970 </r>
       <r>    -9.7294     0.9577     7.3560 </r>
       <r>    -9.6157     0.0038     7.3564 </r>
       <r>    -9.5021     0.9718     7.5209 </r>
       <r>    -9.3884     0.0000     7.6281 </r>
       <r>    -9.2748     0.0000     7.6281 </r>
       <r>    -9.1611     0.0000     7.6281 </r>
       <r>    -9.0475     1.7101     7.8225 </r>
       <r>    -8.9338     1.9553     8.1225 </r>
       <r>    -8.8202     0.4786     8.2040 </r>
       <r>    -8.7065     0.6903     8.3415 </r>
       <r>    -8.5929     0.1956     8.3669 </r>
       <r>    -8.4792     1.6760     8.5624 </r>
       <r>    -8.3656     1.6762     8.7529 </r>
       <r>    -8.2519     0.9577     8.9705 </r>
       <r>    -8.1383     1.7090     9.1648 </r>
       <r>    -8.0246     0.3982     9.3695 </r>
       <r>    -7.9110     1.6760     9.5692 </r>
       <r>    -7.7973     0.4792     9.6236 </r>
       <r>    -7.6837     1.4375     9.9230 </r>
       <r>    -7.5700     3.1718    10.3922 </r>
       <r>    -7.4564     0.9009    10.5151 </r>
       <r>    -7.3427     0.9481    10.6293 </r>
       <r>    -7.2291     2.1497    10.9563 </r>
       <r>    -7.1154     0.2190    11.0634 </r>
       <r>    -7.0018     1.3287    11.2712 </r>
       <r>    -6.8881     0.4540    11.4439 </r>
       <r>    -6.7745     0.4789    11.5011 </r>
       <r>    -6.6608     1.2051    11.6381 </r>
       <r>    -6.5472     2.3471    11.9584 </r>
       <r>    -6.4335     0.4789    12.0998 </r>
       <r>    -6.3199     0.9577    12.2086 </r>
       <r>    -6.2062     0.0000    12.2630 </r>
       <r>    -6.0926     1.9154    12.4807 </r>
       <r>    -5.9789     1.6274    12.6657 </r>
       <r>    -5.8653     0.4789    12.7528 </r>
       <r>    -5.7516     1.1714    12.9132 </r>
       <r>    -5.6380     0.2655    12.9463 </r>
       <r>    -5.5243     1.3430    13.2320 </r>
       <r>    -5.4107     0.4789    13.3515 </r>
       <r>    -5.2970     0.4789    13.4059 </r>
       <r>    -5.1834     0.4789    13.4603 </r>
       <r>    -5.0697     2.1327    13.7027 </r>
       <r>    -4.9561     1.6774    13.8959 </r>
       <r>    -4.8424     0.4788    14.0045 </r>
       <r>    -4.7288     0.4789    14.0590 </r>
       <r>    -4.6151     0.9580    14.1678 </r>
       <r>    -4.5015     0.4787    14.2766 </r>
       <r>    -4.3878     1.1962    14.4126 </r>
       <r>    -4.2742     1.2273    14.6066 </r>
       <r>    -4.1605     0.6387    14.7211 </r>
       <r>    -4.0469     0.4789    14.7846 </r>
       <r>    -3.9332     0.5231    14.8440 </r>
       <r>    -3.8196     0.0309    14.8969 </r>
       <r>    -3.7059     0.2394    14.9751 </r>
       <r>    -3.5922     0.9254    15.0802 </r>
       <r>    -3.4786     1.6605    15.3270 </r>
       <r>    -3.3649     0.9577    15.4921 </r>
       <r>    -3.2513     0.0000    15.4921 </r>
       <r>    -3.1376     0.2394    15.5193 </r>
       <r>    -3.0240     0.2394    15.5465 </r>
       <r>    -2.9103     0.4789    15.6009 </r>
       <r>    -2.7967     0.9721    15.7114 </r>
       <r>    -2.6830     0.5042    15.7943 </r>
       <r>    -2.5694     0.0000    15.8186 </r>
       <r>    -2.4557     0.0000    15.8186 </r>
       <r>    -2.3421     0.2395    15.8458 </r>
       <r>    -2.2284     0.0000    15.8730 </r>
       <r>    -2.1148     0.0000    15.8730 </r>
       <r>    -2.0011     0.4789    15.9274 </r>
       <r>    -1.8875     0.4789    15.9819 </r>
       <r>    -1.7738     0.0000    15.9819 </r>
       <r>    -1.6602     0.0000    15.9819 </r>
       <r>    -1.5465     0.0000    15.9819 </r>
       <r>    -1.4329     0.0000    15.9819 </r>
       <r>    -1.3192     0.0000    15.9819 </r>
       <r>    -1.2056     0.1596    16.0000 </r>
       <r>    -1.0919     0.1596    16.0181 </r>
       <r>    -0.9783     0.0000    16.0181 </r>
       <r>    -0.8646     0.0000    16.0181 </r>
       <r>    -0.7510     0.0000    16.0181 </r>
       <r>    -0.6373     0.0000    16.0181 </r>
       <r>    -0.5237     0.0018    16.0183 </r>
       <r>    -0.4100     0.2591    16.1020 </r>
       <r>    -0.2964     0.0000    16.1270 </r>
       <r>    -0.1827     0.2394    16.1542 </r>
       <r>    -0.0691     0.2394    16.1814 </r>
       <r>     0.0446     0.0000    16.1814 </r>
       <r>     0.1582     0.0000    16.1814 </r>
       <r>     0.2719     1.4364    16.3447 </r>
       <r>     0.3855     1.4797    16.5128 </r>
       <r>     0.4992     0.6804    16.6125 </r>
       <r>     0.6128     0.6948    16.6957 </r>
       <r>     0.7265     0.7183    16.7800 </r>
       <r>     0.8401     0.9577    16.8889 </r>
       <r>     0.9538     0.9138    16.9927 </r>
       <r>     1.0674     0.4790    17.0522 </r>
       <r>     1.1811     0.3775    17.1495 </r>
       <r>     1.2947     0.2394    17.2426 </r>
       <r>     1.4084     0.2362    17.3239 </r>
       <r>     1.5220     0.0000    17.3243 </r>
       <r>     1.6357     0.4788    17.3787 </r>
       <r>     1.7493     0.4860    17.4339 </r>
       <r>     1.8630     0.0000    17.4875 </r>
       <r>     1.9766     0.9976    17.6009 </r>
       <r>     2.0903     0.7183    17.7098 </r>
       <r>     2.2039     0.4821    17.7645 </r>
       <r>     2.3176     0.4783    17.8457 </r>
       <r>     2.4312     0.8365    17.9409 </r>
       <r>     2.5449     0.2803    18.0137 </r>
       <r>     2.6585     0.2394    18.0680 </r>
       <r>     2.7722     0.7319    18.1512 </r>
       <r>     2.8858     0.9544    18.3125 </r>
       <r>     2.9995     0.6159    18.3829 </r>
       <r>     3.1131     1.1367    18.6054 </r>
       <r>     3.2268     0.4789    18.6712 </r>
       <r>     3.3405     0.6752    18.7479 </r>
       <r>     3.4541     1.1423    18.9099 </r>
       <r>     3.5678     0.4788    18.9705 </r>
       <r>     3.6814     1.4335    19.1334 </r>
       <r>     3.7951     0.7135    19.2149 </r>
       <r>     3.9087     0.7183    19.2971 </r>
       <r>     4.0224     1.5845    19.4771 </r>
       <r>     4.1360     0.9578    19.6553 </r>
       <r>     4.2497     0.2394    19.7642 </r>
       <r>     4.3633     1.1971    19.9002 </r>
       <r>     4.4770     0.2351    19.9814 </r>
       <r>     4.5906     0.8584    20.1883 </r>
       <r>     4.7043     0.7184    20.3084 </r>
       <r>     4.8179     0.5855    20.4294 </r>
       <r>     4.9316     0.8981    20.5737 </r>
       <r>     5.0452     0.9576    20.7438 </r>
       <r>     5.1589     1.6664    20.9332 </r>
       <r>     5.2725     0.6389    21.0341 </r>
       <r>     5.3862     1.6191    21.2271 </r>
       <r>     5.4998     0.8198    21.3267 </r>
       <r>     5.6135     0.0000    21.3696 </r>
       <r>     5.7271     0.9577    21.5329 </r>
       <r>     5.8408     0.0000    21.5601 </r>
       <r>     5.9544     0.6879    21.6383 </r>
       <r>     6.0681     1.0815    21.7918 </r>
       <r>     6.1817     0.0000    21.8050 </r>
       <r>     6.2954     1.2362    21.9455 </r>
       <r>     6.4090     0.1569    22.0677 </r>
       <r>     6.5227     1.7548    22.2765 </r>
       <r>     6.6363     1.4366    22.4580 </r>
       <r>     6.7500     0.4789    22.5125 </r>
       <r>     6.8636     0.0000    22.5125 </r>
       <r>     6.9773     0.4789    22.5669 </r>
       <r>     7.0909     0.4788    22.6213 </r>
       <r>     7.2046     1.1350    22.7503 </r>
       <r>     7.3182     1.1971    22.9206 </r>
       <r>     7.4319     0.4789    22.9751 </r>
       <r>     7.5455     0.0508    22.9808 </r>
       <r>     7.6592     0.0000    23.0295 </r>
       <r>     7.7728     0.0000    23.0295 </r>
       <r>     7.8865     0.2055    23.0528 </r>
       <r>     8.0001     0.4789    23.1111 </r>
       <r>     8.1138     0.0000    23.1111 </r>
       <r>     8.2274     1.4406    23.2748 </r>
       <r>     8.3411     0.0000    23.3288 </r>
       <r>     8.4547     0.0000    23.3832 </r>
       <r>     8.5684     0.4789    23.4376 </r>
       <r>     8.6820     0.0000    23.4376 </r>
       <r>     8.7957     0.0000    23.4376 </r>
       <r>     8.9093     0.0023    23.4379 </r>
       <r>     9.0230     0.0753    23.5006 </r>
       <r>     9.1366     1.0010    23.6149 </r>
       <r>     9.2503     0.0000    23.6372 </r>
       <r>     9.3639     0.4789    23.6916 </r>
       <r>     9.4776     0.5833    23.8123 </r>
       <r>     9.5912     0.0009    23.8278 </r>
       <r>     9.7049     0.4655    23.9078 </r>
       <r>     9.8185     0.0000    23.9093 </r>
       <r>     9.9322     0.0948    23.9201 </r>
       <r>    10.0458     0.0000    23.9728 </r>
       <r>    10.1595     0.0000    23.9728 </r>
       <r>    10.2731     0.2394    24.0000 </r>
       <r>    10.3868     0.0000    24.0000 </r>
       <r>    10.5005     0.0000    24.0000 </r>
       <r>    10.6141     0.0000    24.0000 </r>
       <r>    10.7278     0.0000    24.0000 </r>
       <r>    10.8414     0.0000    24.0000 </r>
       <r>    10.9551     0.0000    24.0000 </r>
       <r>    11.0687     0.0000    24.0000 </r>
       <r>    11.1824     0.0000    24.0000 </r>
       <r>    11.2960     0.0000    24.0000 </r>
       <r>    11.4097     0.0000    24.0000 </r>
       <r>    11.5233     0.0000    24.0000 </r>
       <r>    11.6370     0.0000    24.0000 </r>
       <r>    11.7506     0.0000    24.0000 </r>
      </set>
     </set>
    </array>
   </total>
  </dos>
 </calculation>
 <structure name="finalpos" >
  <crystal>
   <varray name="basis" >
    <v>       2.13000000      -1.22975600       0.00000000 </v>
    <v>       2.13000000       1.22975600       0.00000000 </v>
    <v>       0.00000000       0.00000000      20.00000000 </v>
   </varray>
   <i name="volume">    104.77521120 </i>
   <varray name="rec_basis" >
    <v>       0.23474178      -0.40658472       0.00000000 </v>
    <v>       0.23474178       0.40658472       0.00000000 </v>
    <v>       0.00000000       0.00000000       0.05000000 </v>
   </varray>
  </crystal>
  <varray name="positions" >
   <v>       0.00000000       0.00000000       0.00000000 </v>
   <v>       0.33333300       0.33333300       0.00000000 </v>
   <v>       0.00000000       0.00000000       0.22193378 </v>
   <v>       0.33333300       0.33333300       0.22193378 </v>
  </varray>
  <varray name="selective"  type="logical" >
   <v type="logical" >  F  F  F </v>
   <v type="logical" >  F  F  F </v>
   <v type="logical" >  F  F  T </v>
   <v type="logical" >  F  F  T </v>
  </varray>
  <nose>
   <v>      -3.00000000       0.00000000       0.00010000       0.00010000 </v>
  </nose>
 </structure>
</modeling>
