C-4                                     
           1
     2.130000   -1.229756    0.000000
     2.130000    1.229756    0.000000
     0.000000    0.000000   20.000000
   C 
   4
Direct configuration=     1
   0.00000000  0.00000000  0.00000000
   0.33333300  0.33333300  0.00000000
   0.00000000  0.00000000  0.22193400
   0.33333300  0.33333300  0.22193400
Direct configuration=     2
   0.00000000  0.00000000  0.00000000
   0.33333300  0.33333300  0.00000000
   0.00000000  0.00000000  0.22193399
   0.33333300  0.33333300  0.22193399
Direct configuration=     3
   0.00000000  0.00000000  0.00000000
   0.33333300  0.33333300  0.00000000
   0.00000000  0.00000000  0.22193399
   0.33333300  0.33333300  0.22193399
Direct configuration=     4
   0.00000000  0.00000000  0.00000000
   0.33333300  0.33333300  0.00000000
   0.00000000  0.00000000  0.22193399
   0.33333300  0.33333300  0.22193399
Direct configuration=     5
   0.00000000  0.00000000  0.00000000
   0.33333300  0.33333300  0.00000000
   0.00000000  0.00000000  0.22193399
   0.33333300  0.33333300  0.22193399
Direct configuration=     6
   0.00000000  0.00000000  0.00000000
   0.33333300  0.33333300  0.00000000
   0.00000000  0.00000000  0.22193399
   0.33333300  0.33333300  0.22193399
Direct configuration=     7
   0.00000000  0.00000000  0.00000000
   0.33333300  0.33333300  0.00000000
   0.00000000  0.00000000  0.22193398
   0.33333300  0.33333300  0.22193398
Direct configuration=     8
   0.00000000  0.00000000  0.00000000
   0.33333300  0.33333300  0.00000000
   0.00000000  0.00000000  0.22193397
   0.33333300  0.33333300  0.22193397
Direct configuration=     9
   0.00000000  0.00000000  0.00000000
   0.33333300  0.33333300  0.00000000
   0.00000000  0.00000000  0.22193394
   0.33333300  0.33333300  0.22193394
Direct configuration=    10
   0.00000000  0.00000000  0.00000000
   0.33333300  0.33333300  0.00000000
   0.00000000  0.00000000  0.22193389
   0.33333300  0.33333300  0.22193389
Direct configuration=    11
   0.00000000  0.00000000  0.00000000
   0.33333300  0.33333300  0.00000000
   0.00000000  0.00000000  0.22193378
   0.33333300  0.33333300  0.22193378
