mesh: [    42,    42,     1 ]
nqpoint: 463    
reciprocal_lattice:
- [   0.30469226,  -0.17602659,   0.00000000 ] # a*
- [   0.00000000,   0.35205317,   0.00000000 ] # b*
- [   0.00000000,   0.00000000,   0.05000000 ] # c*
natom:   3      
lattice:
- [     3.282000000000000,     0.000000000000000,     0.000000000000000 ] # a
- [     1.641000000000000,     2.840480000000000,     0.000000000000000 ] # b
- [     0.000000000000000,     0.000000000000000,    20.000000000000000 ] # c
points:
- symbol: W  # 1
  coordinates: [  0.999900000000000,  0.000200000000000,  0.000000000000000 ]
  mass: 183.840000
- symbol: Se # 2
  coordinates: [  0.333277000000000,  0.333446000000000,  0.915459000000000 ]
  mass: 78.960000
- symbol: Se # 3
  coordinates: [  0.333277000000000,  0.333446000000000,  0.084541000000000 ]
  mass: 78.960000

phonon:
- q-position: [    0.0000000,    0.0000000,    0.0000000 ]
  distance_from_gamma:  0.000000000
  weight: 1    
  band:
  - # 1
    frequency:    -0.0022569553
  - # 2
    frequency:     0.0010741580
  - # 3
    frequency:     0.0011135956
  - # 4
    frequency:     5.1052745876
  - # 5
    frequency:     5.1068217485
  - # 6
    frequency:     7.2673260435
  - # 7
    frequency:     7.2701692158
  - # 8
    frequency:     7.3462872317
  - # 9
    frequency:     9.0816514164

- q-position: [    0.0238095,    0.0000000,    0.0000000 ]
  distance_from_gamma:  0.008378203
  weight: 4    
  band:
  - # 1
    frequency:     0.1035107413
  - # 2
    frequency:     0.2195060630
  - # 3
    frequency:     0.3659636811
  - # 4
    frequency:     5.1097997079
  - # 5
    frequency:     5.1208890152
  - # 6
    frequency:     7.2182142163
  - # 7
    frequency:     7.2689708193
  - # 8
    frequency:     7.3920492838
  - # 9
    frequency:     9.0731417745

- q-position: [    0.0476190,    0.0000000,    0.0000000 ]
  distance_from_gamma:  0.016756407
  weight: 4    
  band:
  - # 1
    frequency:     0.2181212713
  - # 2
    frequency:     0.4381404266
  - # 3
    frequency:     0.7288185570
  - # 4
    frequency:     5.1199296926
  - # 5
    frequency:     5.1653831418
  - # 6
    frequency:     7.1401599784
  - # 7
    frequency:     7.2672405811
  - # 8
    frequency:     7.4583902777
  - # 9
    frequency:     9.0477448072

- q-position: [    0.0714286,    0.0000000,    0.0000000 ]
  distance_from_gamma:  0.025134610
  weight: 4    
  band:
  - # 1
    frequency:     0.3514907397
  - # 2
    frequency:     0.6550279644
  - # 3
    frequency:     1.0854446304
  - # 4
    frequency:     5.1364736770
  - # 5
    frequency:     5.2362423388
  - # 6
    frequency:     7.0575995238
  - # 7
    frequency:     7.2643471414
  - # 8
    frequency:     7.5221108464
  - # 9
    frequency:     9.0058580352

- q-position: [    0.0952381,    0.0000000,    0.0000000 ]
  distance_from_gamma:  0.033512814
  weight: 4    
  band:
  - # 1
    frequency:     0.5068519750
  - # 2
    frequency:     0.8692665112
  - # 3
    frequency:     1.4326845056
  - # 4
    frequency:     5.1590237643
  - # 5
    frequency:     5.3290510876
  - # 6
    frequency:     6.9741484186
  - # 7
    frequency:     7.2602445961
  - # 8
    frequency:     7.5806573169
  - # 9
    frequency:     8.9481498813

- q-position: [    0.1190476,    0.0000000,    0.0000000 ]
  distance_from_gamma:  0.041891017
  weight: 4    
  band:
  - # 1
    frequency:     0.6838268394
  - # 2
    frequency:     1.0799234504
  - # 3
    frequency:     1.7673344670
  - # 4
    frequency:     5.1870038854
  - # 5
    frequency:     5.4386359376
  - # 6
    frequency:     6.8920589222
  - # 7
    frequency:     7.2548921924
  - # 8
    frequency:     7.6332510459
  - # 9
    frequency:     8.8755699566

- q-position: [    0.1428571,    0.0000000,    0.0000000 ]
  distance_from_gamma:  0.050269221
  weight: 4    
  band:
  - # 1
    frequency:     0.8798772874
  - # 2
    frequency:     1.2860287018
  - # 3
    frequency:     2.0861397062
  - # 4
    frequency:     5.2197075950
  - # 5
    frequency:     5.5595947674
  - # 6
    frequency:     6.8135425189
  - # 7
    frequency:     7.2482581982
  - # 8
    frequency:     7.6795616060
  - # 9
    frequency:     8.7893665171

- q-position: [    0.1666667,    0.0000000,    0.0000000 ]
  distance_from_gamma:  0.058647424
  weight: 4    
  band:
  - # 1
    frequency:     1.0914686732
  - # 2
    frequency:     1.4865707853
  - # 3
    frequency:     2.3858091102
  - # 4
    frequency:     5.2563235076
  - # 5
    frequency:     5.6866605025
  - # 6
    frequency:     6.7409664710
  - # 7
    frequency:     7.2403314829
  - # 8
    frequency:     7.7194789323
  - # 9
    frequency:     8.6911144353

- q-position: [    0.1904762,    0.0000000,    0.0000000 ]
  distance_from_gamma:  0.067025628
  weight: 4    
  band:
  - # 1
    frequency:     1.3147790776
  - # 2
    frequency:     1.6804958888
  - # 3
    frequency:     2.6630677486
  - # 4
    frequency:     5.2959614188
  - # 5
    frequency:     5.8148764735
  - # 6
    frequency:     6.6768513039
  - # 7
    frequency:     7.2311340005
  - # 8
    frequency:     7.7530440912
  - # 9
    frequency:     8.5827581331

- q-position: [    0.2142857,    0.0000000,    0.0000000 ]
  distance_from_gamma:  0.075403831
  weight: 4    
  band:
  - # 1
    frequency:     1.5460564462
  - # 2
    frequency:     1.8667099657
  - # 3
    frequency:     2.9147737145
  - # 4
    frequency:     5.3376787580
  - # 5
    frequency:     5.9396218953
  - # 6
    frequency:     6.6237631269
  - # 7
    frequency:     7.2207326588
  - # 8
    frequency:     7.7804178406
  - # 9
    frequency:     8.4666743161

- q-position: [    0.2380952,    0.0000000,    0.0000000 ]
  distance_from_gamma:  0.083782035
  weight: 4    
  band:
  - # 1
    frequency:     1.7817542398
  - # 2
    frequency:     2.0440838012
  - # 3
    frequency:     3.1381286863
  - # 4
    frequency:     5.3805063738
  - # 5
    frequency:     6.0565386540
  - # 6
    frequency:     6.5840957499
  - # 7
    frequency:     7.2092494507
  - # 8
    frequency:     7.8018621777
  - # 9
    frequency:     8.3457569207

- q-position: [    0.2619048,    0.0000000,    0.0000000 ]
  distance_from_gamma:  0.092160238
  weight: 4    
  band:
  - # 1
    frequency:     2.0185383749
  - # 2
    frequency:     2.2114609692
  - # 3
    frequency:     3.3309960055
  - # 4
    frequency:     5.4234727928
  - # 5
    frequency:     6.1614120218
  - # 6
    frequency:     6.5597346144
  - # 7
    frequency:     7.1968688375
  - # 8
    frequency:     7.8177287013
  - # 9
    frequency:     8.2235160834

- q-position: [    0.2857143,    0.0000000,    0.0000000 ]
  distance_from_gamma:  0.100538441
  weight: 4    
  band:
  - # 1
    frequency:     2.2532184205
  - # 2
    frequency:     2.3676686536
  - # 3
    frequency:     3.4922924014
  - # 4
    frequency:     5.4656263542
  - # 5
    frequency:     6.2500750391
  - # 6
    frequency:     6.5516374140
  - # 7
    frequency:     7.1838414478
  - # 8
    frequency:     7.8284525869
  - # 9
    frequency:     8.1041529634

- q-position: [    0.3095238,    0.0000000,    0.0000000 ]
  distance_from_gamma:  0.108916645
  weight: 4    
  band:
  - # 1
    frequency:     2.4826281373
  - # 2
    frequency:     2.5115314304
  - # 3
    frequency:     3.6223450174
  - # 4
    frequency:     5.5060548715
  - # 5
    frequency:     6.3184610413
  - # 6
    frequency:     6.5594394216
  - # 7
    frequency:     7.1704832455
  - # 8
    frequency:     7.8345525226
  - # 9
    frequency:     7.9925074692

- q-position: [    0.3333333,    0.0000000,    0.0000000 ]
  distance_from_gamma:  0.117294848
  weight: 4    
  band:
  - # 1
    frequency:     2.6418882382
  - # 2
    frequency:     2.7034641021
  - # 3
    frequency:     3.7230518944
  - # 4
    frequency:     5.5439026925
  - # 5
    frequency:     6.3630150228
  - # 6
    frequency:     6.5812451721
  - # 7
    frequency:     7.1571694246
  - # 8
    frequency:     7.8366370781
  - # 9
    frequency:     7.8936830036

- q-position: [    0.3571429,    0.0000000,    0.0000000 ]
  distance_from_gamma:  0.125673052
  weight: 4    
  band:
  - # 1
    frequency:     2.7576128368
  - # 2
    frequency:     2.9120850501
  - # 3
    frequency:     3.7977217246
  - # 4
    frequency:     5.5783851930
  - # 5
    frequency:     6.3816804177
  - # 6
    frequency:     6.6137320639
  - # 7
    frequency:     7.1443224783
  - # 8
    frequency:     7.8121399381
  - # 9
    frequency:     7.8354167363

- q-position: [    0.3809524,    0.0000000,    0.0000000 ]
  distance_from_gamma:  0.134051255
  weight: 4    
  band:
  - # 1
    frequency:     2.8576379572
  - # 2
    frequency:     3.1042813214
  - # 3
    frequency:     3.8506067911
  - # 4
    frequency:     5.6088008497
  - # 5
    frequency:     6.3753468705
  - # 6
    frequency:     6.6525569544
  - # 7
    frequency:     7.1323942254
  - # 8
    frequency:     7.7503675173
  - # 9
    frequency:     7.8317175960

- q-position: [    0.4047619,    0.0000000,    0.0000000 ]
  distance_from_gamma:  0.142429459
  weight: 4    
  band:
  - # 1
    frequency:     2.9409830016
  - # 2
    frequency:     3.2750526251
  - # 3
    frequency:     3.8862844313
  - # 4
    frequency:     5.6345411040
  - # 5
    frequency:     6.3489610227
  - # 6
    frequency:     6.6929217064
  - # 7
    frequency:     7.1218421382
  - # 8
    frequency:     7.7078958933
  - # 9
    frequency:     7.8264868947

- q-position: [    0.4285714,    0.0000000,    0.0000000 ]
  distance_from_gamma:  0.150807662
  weight: 4    
  band:
  - # 1
    frequency:     3.0067844899
  - # 2
    frequency:     3.4184974958
  - # 3
    frequency:     3.9090774075
  - # 4
    frequency:     5.6550982543
  - # 5
    frequency:     6.3112843796
  - # 6
    frequency:     6.7301268380
  - # 7
    frequency:     7.1131011333
  - # 8
    frequency:     7.6815618832
  - # 9
    frequency:     7.8207727026

- q-position: [    0.4523810,    0.0000000,    0.0000000 ]
  distance_from_gamma:  0.159185866
  weight: 4    
  band:
  - # 1
    frequency:     3.0543275473
  - # 2
    frequency:     3.5280184228
  - # 3
    frequency:     3.9226296686
  - # 4
    frequency:     5.6700716009
  - # 5
    frequency:     6.2731725459
  - # 6
    frequency:     6.7600218465
  - # 7
    frequency:     7.1065529948
  - # 8
    frequency:     7.6669511182
  - # 9
    frequency:     7.8156550040

- q-position: [    0.4761905,    0.0000000,    0.0000000 ]
  distance_from_gamma:  0.167564069
  weight: 4    
  band:
  - # 1
    frequency:     3.0830757726
  - # 2
    frequency:     3.5971053170
  - # 3
    frequency:     3.9296542157
  - # 4
    frequency:     5.6791720028
  - # 5
    frequency:     6.2451340853
  - # 6
    frequency:     6.7793527929
  - # 7
    frequency:     7.1024965797
  - # 8
    frequency:     7.6599967819
  - # 9
    frequency:     7.8121133426

- q-position: [    0.5000000,    0.0000000,    0.0000000 ]
  distance_from_gamma:  0.175942273
  weight: 2    
  band:
  - # 1
    frequency:     3.0926961656
  - # 2
    frequency:     3.6207675519
  - # 3
    frequency:     3.9318100975
  - # 4
    frequency:     5.6822249159
  - # 5
    frequency:     6.2348447681
  - # 6
    frequency:     6.7860360799
  - # 7
    frequency:     7.1011225867
  - # 8
    frequency:     7.6579902032
  - # 9
    frequency:     7.8108475134

- q-position: [    0.0000000,    0.0238095,    0.0000000 ]
  distance_from_gamma:  0.008382218
  weight: 2    
  band:
  - # 1
    frequency:     0.1008679620
  - # 2
    frequency:     0.2637072998
  - # 3
    frequency:     0.3885551270
  - # 4
    frequency:     5.1076837620
  - # 5
    frequency:     5.1207406960
  - # 6
    frequency:     7.2218628265
  - # 7
    frequency:     7.2672478866
  - # 8
    frequency:     7.3931684323
  - # 9
    frequency:     9.0722411129

- q-position: [    0.0476190,    0.0238095,    0.0000000 ]
  distance_from_gamma:  0.014509155
  weight: 2    
  band:
  - # 1
    frequency:     0.1872870116
  - # 2
    frequency:     0.3575144914
  - # 3
    frequency:     0.6141544147
  - # 4
    frequency:     5.1180353320
  - # 5
    frequency:     5.1515175247
  - # 6
    frequency:     7.1597510013
  - # 7
    frequency:     7.2677936566
  - # 8
    frequency:     7.4396463012
  - # 9
    frequency:     9.0570965294

- q-position: [    0.0714286,    0.0238095,    0.0000000 ]
  distance_from_gamma:  0.022163607
  weight: 4    
  band:
  - # 1
    frequency:     0.3036825998
  - # 2
    frequency:     0.5498710596
  - # 3
    frequency:     0.9363692159
  - # 4
    frequency:     5.1324186082
  - # 5
    frequency:     5.2102915558
  - # 6
    frequency:     7.0838919743
  - # 7
    frequency:     7.2647785212
  - # 8
    frequency:     7.4979710759
  - # 9
    frequency:     9.0243598601

- q-position: [    0.0952381,    0.0238095,    0.0000000 ]
  distance_from_gamma:  0.030204701
  weight: 4    
  band:
  - # 1
    frequency:     0.4448291546
  - # 2
    frequency:     0.7542701040
  - # 3
    frequency:     1.2708717619
  - # 4
    frequency:     5.1530282987
  - # 5
    frequency:     5.2930018479
  - # 6
    frequency:     7.0028134831
  - # 7
    frequency:     7.2606734943
  - # 8
    frequency:     7.5549975137
  - # 9
    frequency:     8.9754532530

- q-position: [    0.1190476,    0.0238095,    0.0000000 ]
  distance_from_gamma:  0.038390246
  weight: 4    
  band:
  - # 1
    frequency:     0.6092201522
  - # 2
    frequency:     0.9609618482
  - # 3
    frequency:     1.6017163991
  - # 4
    frequency:     5.1793565850
  - # 5
    frequency:     5.3948056347
  - # 6
    frequency:     6.9209124537
  - # 7
    frequency:     7.2554840954
  - # 8
    frequency:     7.6076317179
  - # 9
    frequency:     8.9111725008

- q-position: [    0.1428571,    0.0238095,    0.0000000 ]
  distance_from_gamma:  0.046644256
  weight: 4    
  band:
  - # 1
    frequency:     0.7944535886
  - # 2
    frequency:     1.1662433601
  - # 3
    frequency:     1.9217604887
  - # 4
    frequency:     5.2107305078
  - # 5
    frequency:     5.5104162219
  - # 6
    frequency:     6.8410442031
  - # 7
    frequency:     7.2491717565
  - # 8
    frequency:     7.6547765399
  - # 9
    frequency:     8.8326009247

- q-position: [    0.1666667,    0.0238095,    0.0000000 ]
  distance_from_gamma:  0.054935879
  weight: 4    
  band:
  - # 1
    frequency:     0.9971377026
  - # 2
    frequency:     1.3680108879
  - # 3
    frequency:     2.2261783498
  - # 4
    frequency:     5.2463630561
  - # 5
    frequency:     5.6345250580
  - # 6
    frequency:     6.7657911080
  - # 7
    frequency:     7.2417125621
  - # 8
    frequency:     7.6959915013
  - # 9
    frequency:     8.7411312512

- q-position: [    0.1904762,    0.0238095,    0.0000000 ]
  distance_from_gamma:  0.063250325
  weight: 4    
  band:
  - # 1
    frequency:     1.2134625961
  - # 2
    frequency:     1.5646962132
  - # 3
    frequency:     2.5109640851
  - # 4
    frequency:     5.2853800447
  - # 5
    frequency:     5.7620614470
  - # 6
    frequency:     6.6977532164
  - # 7
    frequency:     7.2331108953
  - # 8
    frequency:     7.7311458404
  - # 9
    frequency:     8.6385000070

- q-position: [    0.2142857,    0.0238095,    0.0000000 ]
  distance_from_gamma:  0.071579641
  weight: 4    
  band:
  - # 1
    frequency:     1.4396039339
  - # 2
    frequency:     1.7549326749
  - # 3
    frequency:     2.7725418469
  - # 4
    frequency:     5.3268461439
  - # 5
    frequency:     5.8882856482
  - # 6
    frequency:     6.6395607443
  - # 7
    frequency:     7.2234106531
  - # 8
    frequency:     7.7602976493
  - # 9
    frequency:     8.5268391483

- q-position: [    0.2380952,    0.0238095,    0.0000000 ]
  distance_from_gamma:  0.079919178
  weight: 4    
  band:
  - # 1
    frequency:     1.6719162280
  - # 2
    frequency:     1.9374312624
  - # 3
    frequency:     3.0077529181
  - # 4
    frequency:     5.3697907666
  - # 5
    frequency:     6.0087602031
  - # 6
    frequency:     6.5937355059
  - # 7
    frequency:     7.2127060308
  - # 8
    frequency:     7.7836402663
  - # 9
    frequency:     8.4087489937

- q-position: [    0.2619048,    0.0238095,    0.0000000 ]
  distance_from_gamma:  0.088266039
  weight: 4    
  band:
  - # 1
    frequency:     1.9069816377
  - # 2
    frequency:     2.1109314727
  - # 3
    frequency:     3.2140461295
  - # 4
    frequency:     5.4132329188
  - # 5
    frequency:     6.1192495939
  - # 6
    frequency:     6.5624211018
  - # 7
    frequency:     7.2011508370
  - # 8
    frequency:     7.8014740437
  - # 9
    frequency:     8.2873910024

- q-position: [    0.2857143,    0.0238095,    0.0000000 ]
  distance_from_gamma:  0.096618325
  weight: 4    
  band:
  - # 1
    frequency:     2.1415702004
  - # 2
    frequency:     2.2741839014
  - # 3
    frequency:     3.3897993034
  - # 4
    frequency:     5.4562042670
  - # 5
    frequency:     6.2156048786
  - # 6
    frequency:     6.5470051746
  - # 7
    frequency:     7.1889651813
  - # 8
    frequency:     7.8141907454
  - # 9
    frequency:     8.1665807100

- q-position: [    0.3095238,    0.0238095,    0.0000000 ]
  distance_from_gamma:  0.104974742
  weight: 4    
  band:
  - # 1
    frequency:     2.3725433481
  - # 2
    frequency:     2.4259489203
  - # 3
    frequency:     3.5346751080
  - # 4
    frequency:     5.4977699552
  - # 5
    frequency:     6.2937234225
  - # 6
    frequency:     6.5477116086
  - # 7
    frequency:     7.1764383853
  - # 8
    frequency:     7.8222666831
  - # 9
    frequency:     8.0508162742

- q-position: [    0.3333333,    0.0238095,    0.0000000 ]
  distance_from_gamma:  0.113334376
  weight: 4    
  band:
  - # 1
    frequency:     2.5650053953
  - # 2
    frequency:     2.5967142702
  - # 3
    frequency:     3.6498611846
  - # 4
    frequency:     5.5370469422
  - # 5
    frequency:     6.3497475198
  - # 6
    frequency:     6.5633048575
  - # 7
    frequency:     7.1639268027
  - # 8
    frequency:     7.8262635919
  - # 9
    frequency:     7.9450964749

- q-position: [    0.3571429,    0.0238095,    0.0000000 ]
  distance_from_gamma:  0.121696564
  weight: 4    
  band:
  - # 1
    frequency:     2.6901671932
  - # 2
    frequency:     2.8106687421
  - # 3
    frequency:     3.7380428464
  - # 4
    frequency:     5.5732197623
  - # 5
    frequency:     6.3807343832
  - # 6
    frequency:     6.5910558307
  - # 7
    frequency:     7.1518447615
  - # 8
    frequency:     7.8268365418
  - # 9
    frequency:     7.8543074977

- q-position: [    0.3809524,    0.0238095,    0.0000000 ]
  distance_from_gamma:  0.130060814
  weight: 4    
  band:
  - # 1
    frequency:     2.8003066269
  - # 2
    frequency:     3.0105499791
  - # 3
    frequency:     3.8030554079
  - # 4
    frequency:     5.6055535826
  - # 5
    frequency:     6.3859045377
  - # 6
    frequency:     6.6270257151
  - # 7
    frequency:     7.1406459228
  - # 8
    frequency:     7.7820750365
  - # 9
    frequency:     7.8247463461

- q-position: [    0.4047619,    0.0238095,    0.0000000 ]
  distance_from_gamma:  0.138426751
  weight: 4    
  band:
  - # 1
    frequency:     2.8943838666
  - # 2
    frequency:     3.1918268357
  - # 3
    frequency:     3.8493130724
  - # 4
    frequency:     5.6334041351
  - # 5
    frequency:     6.3680387446
  - # 6
    frequency:     6.6665823975
  - # 7
    frequency:     7.1307911105
  - # 8
    frequency:     7.7294957595
  - # 9
    frequency:     7.8208695152

- q-position: [    0.4285714,    0.0238095,    0.0000000 ]
  distance_from_gamma:  0.146794087
  weight: 4    
  band:
  - # 1
    frequency:     2.9714798709
  - # 2
    frequency:     3.3491086033
  - # 3
    frequency:     3.8811986262
  - # 4
    frequency:     5.6562234638
  - # 5
    frequency:     6.3340120717
  - # 6
    frequency:     6.7049868708
  - # 7
    frequency:     7.1226986507
  - # 8
    frequency:     7.6946988541
  - # 9
    frequency:     7.8161917527

- q-position: [    0.4523810,    0.0238095,    0.0000000 ]
  distance_from_gamma:  0.155162596
  weight: 4    
  band:
  - # 1
    frequency:     3.0308279837
  - # 2
    frequency:     3.4761531567
  - # 3
    frequency:     3.9025694729
  - # 4
    frequency:     5.6735600001
  - # 5
    frequency:     6.2937957674
  - # 6
    frequency:     6.7379197557
  - # 7
    frequency:     7.1166797840
  - # 8
    frequency:     7.6737628690
  - # 9
    frequency:     7.8117638037

- q-position: [    0.4761905,    0.0238095,    0.0000000 ]
  distance_from_gamma:  0.163532098
  weight: 4    
  band:
  - # 1
    frequency:     3.0718376181
  - # 2
    frequency:     3.5663116048
  - # 3
    frequency:     3.9164422492
  - # 4
    frequency:     5.6850538834
  - # 5
    frequency:     6.2583284321
  - # 6
    frequency:     6.7618917769
  - # 7
    frequency:     7.1128830631
  - # 8
    frequency:     7.6623435008
  - # 9
    frequency:     7.8085989880

- q-position: [    0.5000000,    0.0238095,    0.0000000 ]
  distance_from_gamma:  0.171902448
  weight: 4    
  band:
  - # 1
    frequency:     3.0941051227
  - # 2
    frequency:     3.6136241562
  - # 3
    frequency:     3.9248371213
  - # 4
    frequency:     5.6904377172
  - # 5
    frequency:     6.2370364196
  - # 6
    frequency:     6.7745135868
  - # 7
    frequency:     7.1112995280
  - # 8
    frequency:     7.6570088288
  - # 9
    frequency:     7.8075119024

- q-position: [   -0.4761905,    0.0238095,    0.0000000 ]
  distance_from_gamma:  0.171910473
  weight: 4    
  band:
  - # 1
    frequency:     3.0974132160
  - # 2
    frequency:     3.6144052583
  - # 3
    frequency:     3.9287250835
  - # 4
    frequency:     5.6895603026
  - # 5
    frequency:     6.2355062186
  - # 6
    frequency:     6.7746097540
  - # 7
    frequency:     7.1118599969
  - # 8
    frequency:     7.6559249733
  - # 9
    frequency:     7.8089399696

- q-position: [   -0.4523810,    0.0238095,    0.0000000 ]
  distance_from_gamma:  0.163540122
  weight: 4    
  band:
  - # 1
    frequency:     3.0817272992
  - # 2
    frequency:     3.5685215603
  - # 3
    frequency:     3.9280202644
  - # 4
    frequency:     5.6824256843
  - # 5
    frequency:     6.2539188232
  - # 6
    frequency:     6.7622235950
  - # 7
    frequency:     7.1145506205
  - # 8
    frequency:     7.6590873764
  - # 9
    frequency:     7.8128264911

- q-position: [   -0.4285714,    0.0238095,    0.0000000 ]
  distance_from_gamma:  0.155170619
  weight: 4    
  band:
  - # 1
    frequency:     3.0471970315
  - # 2
    frequency:     3.4794430350
  - # 3
    frequency:     3.9215815164
  - # 4
    frequency:     5.6692025361
  - # 5
    frequency:     6.2869808684
  - # 6
    frequency:     6.7386065148
  - # 7
    frequency:     7.1194163556
  - # 8
    frequency:     7.6683282248
  - # 9
    frequency:     7.8186299585

- q-position: [   -0.4047619,    0.0238095,    0.0000000 ]
  distance_from_gamma:  0.146802109
  weight: 4    
  band:
  - # 1
    frequency:     2.9941631249
  - # 2
    frequency:     3.3530273122
  - # 3
    frequency:     3.9072232003
  - # 4
    frequency:     5.6501923597
  - # 5
    frequency:     6.3254013534
  - # 6
    frequency:     6.7061994190
  - # 7
    frequency:     7.1264495028
  - # 8
    frequency:     7.6871027626
  - # 9
    frequency:     7.8254546026

- q-position: [   -0.3809524,    0.0238095,    0.0000000 ]
  distance_from_gamma:  0.138434772
  weight: 4    
  band:
  - # 1
    frequency:     2.9231607659
  - # 2
    frequency:     3.1959254142
  - # 3
    frequency:     3.8817714778
  - # 4
    frequency:     5.6257977031
  - # 5
    frequency:     6.3582148577
  - # 6
    frequency:     6.6685200132
  - # 7
    frequency:     7.1354904614
  - # 8
    frequency:     7.7198237075
  - # 9
    frequency:     7.8322319245

- q-position: [   -0.3571429,    0.0238095,    0.0000000 ]
  distance_from_gamma:  0.130068833
  weight: 4    
  band:
  - # 1
    frequency:     2.8349109339
  - # 2
    frequency:     3.0144411168
  - # 3
    frequency:     3.8412263983
  - # 4
    frequency:     5.5965121375
  - # 5
    frequency:     6.3753077164
  - # 6
    frequency:     6.6299018934
  - # 7
    frequency:     7.1462170056
  - # 8
    frequency:     7.7705323826
  - # 9
    frequency:     7.8378770313

- q-position: [   -0.3333333,    0.0238095,    0.0000000 ]
  distance_from_gamma:  0.121704582
  weight: 4    
  band:
  - # 1
    frequency:     2.7302977539
  - # 2
    frequency:     2.8140466012
  - # 3
    frequency:     3.7810896142
  - # 4
    frequency:     5.5629208944
  - # 5
    frequency:     6.3696205747
  - # 6
    frequency:     6.5950869723
  - # 7
    frequency:     7.1581956072
  - # 8
    frequency:     7.8412403223
  - # 9
    frequency:     7.8413838569

- q-position: [   -0.3095238,    0.0238095,    0.0000000 ]
  distance_from_gamma:  0.113342392
  weight: 4    
  band:
  - # 1
    frequency:     2.5993527555
  - # 2
    frequency:     2.6103365517
  - # 3
    frequency:     3.6968772567
  - # 4
    frequency:     5.5257001164
  - # 5
    frequency:     6.3382262463
  - # 6
    frequency:     6.5686893437
  - # 7
    frequency:     7.1709451370
  - # 8
    frequency:     7.8418637143
  - # 9
    frequency:     7.9309547756

- q-position: [   -0.2857143,    0.0238095,    0.0000000 ]
  distance_from_gamma:  0.104982755
  weight: 4    
  band:
  - # 1
    frequency:     2.3742868259
  - # 2
    frequency:     2.4761393199
  - # 3
    frequency:     3.5847496489
  - # 4
    frequency:     5.4856113383
  - # 5
    frequency:     6.2818383946
  - # 6
    frequency:     6.5545926728
  - # 7
    frequency:     7.1839882046
  - # 8
    frequency:     7.8385488737
  - # 9
    frequency:     8.0360820018

- q-position: [   -0.2619048,    0.0238095,    0.0000000 ]
  distance_from_gamma:  0.096626334
  weight: 4    
  band:
  - # 1
    frequency:     2.1423237733
  - # 2
    frequency:     2.3288828538
  - # 3
    frequency:     3.4420900569
  - # 4
    frequency:     5.4434916582
  - # 5
    frequency:     6.2034043003
  - # 6
    frequency:     6.5554252789
  - # 7
    frequency:     7.1968860272
  - # 8
    frequency:     7.8307817673
  - # 9
    frequency:     8.1517070139

- q-position: [   -0.2380952,    0.0238095,    0.0000000 ]
  distance_from_gamma:  0.088274044
  weight: 4    
  band:
  - # 1
    frequency:     1.9067035568
  - # 2
    frequency:     2.1697824617
  - # 3
    frequency:     3.2678387947
  - # 4
    frequency:     5.4002404559
  - # 5
    frequency:     6.1068234608
  - # 6
    frequency:     6.5722868279
  - # 7
    frequency:     7.2092597202
  - # 8
    frequency:     7.8180028939
  - # 9
    frequency:     8.2727732514

- q-position: [   -0.2142857,    0.0238095,    0.0000000 ]
  distance_from_gamma:  0.079927177
  weight: 4    
  band:
  - # 1
    frequency:     1.6706128094
  - # 2
    frequency:     2.0000725591
  - # 3
    frequency:     3.0624891964
  - # 4
    frequency:     5.3568031304
  - # 5
    frequency:     5.9962520145
  - # 6
    frequency:     6.6048096296
  - # 7
    frequency:     7.2208014287
  - # 8
    frequency:     7.7997436670
  - # 9
    frequency:     8.3947199310

- q-position: [   -0.1904762,    0.0238095,    0.0000000 ]
  distance_from_gamma:  0.071587632
  weight: 4    
  band:
  - # 1
    frequency:     1.4373264050
  - # 2
    frequency:     1.8209950842
  - # 3
    frequency:     2.8278128538
  - # 4
    frequency:     5.3141520619
  - # 5
    frequency:     5.8758923080
  - # 6
    frequency:     6.6514841251
  - # 7
    frequency:     7.2312777952
  - # 8
    frequency:     7.7756263529
  - # 9
    frequency:     8.5136747024

- q-position: [   -0.1666667,    0.0238095,    0.0000000 ]
  distance_from_gamma:  0.063258304
  weight: 4    
  band:
  - # 1
    frequency:     1.2103048371
  - # 2
    frequency:     1.6337976742
  - # 3
    frequency:     2.5664787286
  - # 4
    frequency:     5.2732649444
  - # 5
    frequency:     5.7500297490
  - # 6
    frequency:     6.7100859943
  - # 7
    frequency:     7.2405274525
  - # 8
    frequency:     7.7453716628
  - # 9
    frequency:     8.6264275233

- q-position: [   -0.1428571,    0.0238095,    0.0000000 ]
  distance_from_gamma:  0.054943841
  weight: 4    
  band:
  - # 1
    frequency:     0.9932334875
  - # 2
    frequency:     1.4397465484
  - # 3
    frequency:     2.2817186019
  - # 4
    frequency:     5.2351007111
  - # 5
    frequency:     5.6231476648
  - # 6
    frequency:     6.7780591444
  - # 7
    frequency:     7.2484537203
  - # 8
    frequency:     7.7088150466
  - # 9
    frequency:     8.7303369691

- q-position: [   -0.1190476,    0.0238095,    0.0000000 ]
  distance_from_gamma:  0.046652190
  weight: 4    
  band:
  - # 1
    frequency:     0.7899715975
  - # 2
    frequency:     1.2401666066
  - # 3
    frequency:     1.9771273964
  - # 4
    frequency:     5.2005733760
  - # 5
    frequency:     5.5000270307
  - # 6
    frequency:     6.8527810738
  - # 7
    frequency:     7.2550132854
  - # 8
    frequency:     7.6659358051
  - # 9
    frequency:     8.8232360062

- q-position: [   -0.0952381,    0.0238095,    0.0000000 ]
  distance_from_gamma:  0.038398133
  weight: 4    
  band:
  - # 1
    frequency:     0.6043552016
  - # 2
    frequency:     1.0365420882
  - # 3
    frequency:     1.6566525258
  - # 4
    frequency:     5.1705240740
  - # 5
    frequency:     5.3857732842
  - # 6
    frequency:     6.9316939041
  - # 7
    frequency:     7.2602010140
  - # 8
    frequency:     7.6169122978
  - # 9
    frequency:     8.9033577474

- q-position: [   -0.0714286,    0.0238095,    0.0000000 ]
  distance_from_gamma:  0.030212497
  weight: 4    
  band:
  - # 1
    frequency:     0.4397909313
  - # 2
    frequency:     0.8307776184
  - # 3
    frequency:     1.3248982538
  - # 4
    frequency:     5.1456908778
  - # 5
    frequency:     5.2857207798
  - # 6
    frequency:     7.0122869679