phonopy:
  version: 2.6.0
  frequency_unit_conversion_factor: 15.633302
  symmetry_tolerance: 1.00000e-05
  configuration:
    atom_name: "W Se"
    dim: "3 3 1"
    mesh: "42 42 1"
    gamma_center: ".TRUE."
    cell_filename: "/n/home04/jzlu/codes/ml-ph/testfiles/WSe2_2/analyses/phonon_calculations/POSCAR_unit"

physical_unit:
  atomic_mass: "AMU"
  length: "Angstrom"
  force_constants: "eV/Angstrom^2"

supercell_matrix:
- [   3,   0,   0 ]
- [   0,   3,   0 ]
- [   0,   0,   1 ]

space_group:
  type: "Amm2"
  number: 38
  Hall_symbol: "A 2 -2"

primitive_cell:
  lattice:
  - [     3.282000000000000,     0.000000000000000,     0.000000000000000 ] # a
  - [     1.641000000000000,     2.840480000000000,     0.000000000000000 ] # b
  - [     0.000000000000000,     0.000000000000000,    20.000000000000000 ] # c
  points:
  - symbol: W  # 1
    coordinates: [  0.999900000000000,  0.000200000000000,  0.000000000000000 ]
    mass: 183.840000
  - symbol: Se # 2
    coordinates: [  0.333277000000000,  0.333446000000000,  0.915459000000000 ]
    mass: 78.960000
  - symbol: Se # 3
    coordinates: [  0.333277000000000,  0.333446000000000,  0.084541000000000 ]
    mass: 78.960000
  reciprocal_lattice: # without 2pi
  - [     0.304692260816575,    -0.176026587055709,     0.000000000000000 ] # a*
  - [     0.000000000000000,     0.352053174111418,     0.000000000000000 ] # b*
  - [     0.000000000000000,     0.000000000000000,     0.050000000000000 ] # c*

unit_cell:
  lattice:
  - [     3.282000000000000,     0.000000000000000,     0.000000000000000 ] # a
  - [     1.641000000000000,     2.840480000000000,     0.000000000000000 ] # b
  - [     0.000000000000000,     0.000000000000000,    20.000000000000000 ] # c
  points:
  - symbol: W  # 1
    coordinates: [  0.999900000000000,  0.000200000000000, -0.000000000000000 ]
    mass: 183.840000
    reduced_to: 1
  - symbol: Se # 2
    coordinates: [  0.333277000000000,  0.333446000000000,  0.915459000000000 ]
    mass: 78.960000
    reduced_to: 2
  - symbol: Se # 3
    coordinates: [  0.333277000000000,  0.333446000000000,  0.084541000000000 ]
    mass: 78.960000
    reduced_to: 3

supercell:
  lattice:
  - [     9.846000000000000,     0.000000000000000,     0.000000000000000 ] # a
  - [     4.923000000000000,     8.521440000000000,     0.000000000000000 ] # b
  - [     0.000000000000000,     0.000000000000000,    20.000000000000000 ] # c
  points:
  - symbol: W  # 1
    coordinates: [  0.333300000000000,  0.000066666666667,  0.000000000000000 ]
    mass: 183.840000
    reduced_to: 1
  - symbol: W  # 2
    coordinates: [  0.666633333333333,  0.000066666666667,  0.000000000000000 ]
    mass: 183.840000
    reduced_to: 1
  - symbol: W  # 3
    coordinates: [  0.999966666666667,  0.000066666666667,  0.000000000000000 ]
    mass: 183.840000
    reduced_to: 1
  - symbol: W  # 4
    coordinates: [  0.333300000000000,  0.333400000000000,  0.000000000000000 ]
    mass: 183.840000
    reduced_to: 1
  - symbol: W  # 5
    coordinates: [  0.666633333333333,  0.333400000000000,  0.000000000000000 ]
    mass: 183.840000
    reduced_to: 1
  - symbol: W  # 6
    coordinates: [  0.999966666666667,  0.333400000000000,  0.000000000000000 ]
    mass: 183.840000
    reduced_to: 1
  - symbol: W  # 7
    coordinates: [  0.333300000000000,  0.666733333333333,  0.000000000000000 ]
    mass: 183.840000
    reduced_to: 1
  - symbol: W  # 8
    coordinates: [  0.666633333333333,  0.666733333333333,  0.000000000000000 ]
    mass: 183.840000
    reduced_to: 1
  - symbol: W  # 9
    coordinates: [  0.999966666666667,  0.666733333333333,  0.000000000000000 ]
    mass: 183.840000
    reduced_to: 1
  - symbol: Se # 10
    coordinates: [  0.111092333333333,  0.111148666666667,  0.915459000000000 ]
    mass: 78.960000
    reduced_to: 10
  - symbol: Se # 11
    coordinates: [  0.444425666666667,  0.111148666666667,  0.915459000000000 ]
    mass: 78.960000
    reduced_to: 10
  - symbol: Se # 12
    coordinates: [  0.777759000000000,  0.111148666666667,  0.915459000000000 ]
    mass: 78.960000
    reduced_to: 10
  - symbol: Se # 13
    coordinates: [  0.111092333333333,  0.444482000000000,  0.915459000000000 ]
    mass: 78.960000
    reduced_to: 10
  - symbol: Se # 14
    coordinates: [  0.444425666666667,  0.444482000000000,  0.915459000000000 ]
    mass: 78.960000
    reduced_to: 10
  - symbol: Se # 15
    coordinates: [  0.777759000000000,  0.444482000000000,  0.915459000000000 ]
    mass: 78.960000
    reduced_to: 10
  - symbol: Se # 16
    coordinates: [  0.111092333333333,  0.777815333333333,  0.915459000000000 ]
    mass: 78.960000
    reduced_to: 10
  - symbol: Se # 17
    coordinates: [  0.444425666666667,  0.777815333333333,  0.915459000000000 ]
    mass: 78.960000
    reduced_to: 10
  - symbol: Se # 18
    coordinates: [  0.777759000000000,  0.777815333333333,  0.915459000000000 ]
    mass: 78.960000
    reduced_to: 10
  - symbol: Se # 19
    coordinates: [  0.111092333333333,  0.111148666666667,  0.084541000000000 ]
    mass: 78.960000
    reduced_to: 19
  - symbol: Se # 20
    coordinates: [  0.444425666666667,  0.111148666666667,  0.084541000000000 ]
    mass: 78.960000
    reduced_to: 19
  - symbol: Se # 21
    coordinates: [  0.777759000000000,  0.111148666666667,  0.084541000000000 ]
    mass: 78.960000
    reduced_to: 19
  - symbol: Se # 22
    coordinates: [  0.111092333333333,  0.444482000000000,  0.084541000000000 ]
    mass: 78.960000
    reduced_to: 19
  - symbol: Se # 23
    coordinates: [  0.444425666666667,  0.444482000000000,  0.084541000000000 ]
    mass: 78.960000
    reduced_to: 19
  - symbol: Se # 24
    coordinates: [  0.777759000000000,  0.444482000000000,  0.084541000000000 ]
    mass: 78.960000
    reduced_to: 19
  - symbol: Se # 25
    coordinates: [  0.111092333333333,  0.777815333333333,  0.084541000000000 ]
    mass: 78.960000
    reduced_to: 19
  - symbol: Se # 26
    coordinates: [  0.444425666666667,  0.777815333333333,  0.084541000000000 ]
    mass: 78.960000
    reduced_to: 19
  - symbol: Se # 27
    coordinates: [  0.777759000000000,  0.777815333333333,  0.084541000000000 ]
    mass: 78.960000
    reduced_to: 19
