   2   2   0   0
  0.5238761E+02  0.2459512E-09  0.2459512E-09  0.2000000E-08  0.5000000E-15
  1.000000000000000E-004
  CAR 
 C-2                                     
     14.29676453    -24.03954878  301     -2.72173432      1.00000000
    -24.040  0.0000E+00  0.0000E+00
    -23.912  0.0000E+00  0.0000E+00
    -23.784  0.0000E+00  0.0000E+00
    -23.656  0.0000E+00  0.0000E+00
    -23.528  0.0000E+00  0.0000E+00
    -23.401  0.0000E+00  0.0000E+00
    -23.273  0.0000E+00  0.0000E+00
    -23.145  0.0000E+00  0.0000E+00
    -23.017  0.0000E+00  0.0000E+00
    -22.889  0.0000E+00  0.0000E+00
    -22.762  0.0000E+00  0.0000E+00
    -22.634  0.0000E+00  0.0000E+00
    -22.506  0.0000E+00  0.0000E+00
    -22.378  0.0000E+00  0.0000E+00
    -22.251  0.8396E-03  0.1073E-03
    -22.123  0.2569E-02  0.7252E-03
    -21.995  0.0000E+00  0.1077E-02
    -21.867  0.5323E-02  0.1757E-02
    -21.739  0.2662E-02  0.2098E-02
    -21.612  0.2901E-02  0.2468E-02
    -21.484  0.4599E-12  0.3118E-02
    -21.356  0.0000E+00  0.3458E-02
    -21.228  0.5323E-02  0.4138E-02
    -21.100  0.5323E-02  0.4819E-02
    -20.973  0.1259E-03  0.4835E-02
    -20.845  0.2469E-02  0.5474E-02
    -20.717  0.0000E+00  0.6179E-02
    -20.589  0.5323E-02  0.6859E-02
    -20.461  0.0000E+00  0.6859E-02
    -20.334  0.3822E-02  0.7348E-02
    -20.206  0.5282E-02  0.8555E-02
    -20.078  0.0000E+00  0.8560E-02
    -19.950  0.5323E-02  0.9240E-02
    -19.823  0.0000E+00  0.9240E-02
    -19.695  0.9267E-02  0.1042E-01
    -19.567  0.7408E-05  0.1060E-01
    -19.439  0.0000E+00  0.1128E-01
    -19.311  0.1696E-05  0.1128E-01
    -19.184  0.0000E+00  0.1196E-01
    -19.056  0.5323E-02  0.1264E-01
    -18.928  0.6746E-02  0.1350E-01
    -18.800  0.2644E-05  0.1366E-01
    -18.672  0.0000E+00  0.1434E-01
    -18.545  0.0000E+00  0.1434E-01
    -18.417  0.5323E-02  0.1502E-01
    -18.289  0.5323E-02  0.1604E-01
    -18.161  0.5218E-02  0.1671E-01
    -18.034  0.2662E-02  0.1706E-01
    -17.906  0.5323E-02  0.1774E-01
    -17.778  0.0000E+00  0.1774E-01
    -17.650  0.5662E-12  0.1774E-01
    -17.522  0.5324E-02  0.1910E-01
    -17.395  0.0000E+00  0.1978E-01
    -17.267  0.5323E-02  0.2046E-01
    -17.139  0.4023E-12  0.2080E-01
    -17.011  0.5785E-06  0.2149E-01
    -16.883  0.0000E+00  0.2183E-01
    -16.756  0.4310E-02  0.2238E-01
    -16.628  0.5323E-02  0.2387E-01
    -16.500  0.0000E+00  0.2387E-01
    -16.372  0.0000E+00  0.2387E-01
    -16.244  0.0000E+00  0.2387E-01
    -16.117  0.2662E-02  0.2421E-01
    -15.989  0.4337E-02  0.2476E-01
    -15.861  0.0000E+00  0.2523E-01
    -15.733  0.2662E-02  0.2557E-01
    -15.606  0.5323E-02  0.2659E-01
    -15.478  0.0000E+00  0.2659E-01
    -15.350  0.3777E-04  0.2659E-01
    -15.222  0.1331E-01  0.2851E-01
    -15.094  0.0000E+00  0.2851E-01
    -14.967  0.5323E-02  0.2920E-01
    -14.839  0.5323E-02  0.2988E-01
    -14.711  0.2662E-02  0.3022E-01
    -14.583  0.1065E-01  0.3158E-01
    -14.455  0.0000E+00  0.3158E-01
    -14.328  0.1972E-02  0.3183E-01
    -14.200  0.2662E-02  0.3260E-01
    -14.072  0.0000E+00  0.3328E-01
    -13.944  0.4827E-02  0.3389E-01
    -13.817  0.0000E+00  0.3396E-01
    -13.689  0.5323E-02  0.3464E-01
    -13.561  0.2662E-02  0.3498E-01
    -13.433  0.5323E-02  0.3566E-01
    -13.305  0.8861E-03  0.3577E-01
    -13.178  0.0000E+00  0.3645E-01
    -13.050  0.0000E+00  0.3645E-01
    -12.922  0.1068E-01  0.3782E-01
    -12.794  0.5319E-02  0.3883E-01
    -12.666  0.3204E-09  0.3883E-01
    -12.539  0.0000E+00  0.3917E-01
    -12.411  0.9278E-11  0.3917E-01
    -12.283  0.7215E-02  0.4043E-01
    -12.155  0.5323E-02  0.4189E-01
    -12.028  0.0000E+00  0.4189E-01
    -11.900  0.5238E-02  0.4256E-01
    -11.772  0.4247E-12  0.4257E-01
    -11.644  0.5323E-02  0.4393E-01
    -11.516  0.0000E+00  0.4393E-01
    -11.389  0.4582E-02  0.4452E-01
    -11.261  0.4029E-02  0.4581E-01
    -11.133  0.2133E-06  0.4598E-01
    -11.005  0.3407E-03  0.4704E-01
    -10.877  0.0000E+00  0.4768E-01
    -10.750  0.0000E+00  0.4768E-01
    -10.622  0.4617E-11  0.4768E-01
    -10.494  0.1248E-01  0.4995E-01
    -10.366  0.4435E-03  0.5079E-01
    -10.238  0.6600E-11  0.5181E-01
    -10.111  0.2660E-02  0.5249E-01
     -9.983  0.5323E-02  0.5317E-01
     -9.855  0.8080E-02  0.5489E-01
     -9.727  0.1481E-04  0.5624E-01
     -9.600  0.1056E-01  0.5827E-01
     -9.472  0.5303E-02  0.5963E-01
     -9.344  0.2770E-02  0.5999E-01
     -9.216  0.1065E-01  0.6168E-01
     -9.088  0.9530E-02  0.6426E-01
     -8.961  0.2662E-02  0.6576E-01
     -8.833  0.5465E-02  0.6646E-01
     -8.705  0.5328E-02  0.6848E-01
     -8.577  0.7985E-02  0.6984E-01
     -8.449  0.8606E-02  0.7094E-01
     -8.322  0.0000E+00  0.7188E-01
     -8.194  0.5323E-02  0.7256E-01
     -8.066  0.1625E-01  0.7464E-01
     -7.938  0.5288E-02  0.7596E-01
     -7.811  0.2662E-02  0.7630E-01
     -7.683  0.5456E-02  0.7700E-01
     -7.555  0.4174E-02  0.7854E-01
     -7.427  0.1441E-03  0.7904E-01
     -7.299  0.7985E-02  0.8039E-01
     -7.172  0.5322E-02  0.8107E-01
     -7.044  0.8126E-02  0.8244E-01
     -6.916  0.4819E-02  0.8372E-01
     -6.788  0.0000E+00  0.8379E-01
     -6.660  0.4009E-02  0.8430E-01
     -6.533  0.1083E-01  0.8619E-01
     -6.405  0.1339E-06  0.8685E-01
     -6.277  0.0000E+00  0.8787E-01
     -6.149  0.2662E-02  0.8821E-01
     -6.021  0.7985E-02  0.8923E-01
     -5.894  0.3159E-02  0.8963E-01
     -5.766  0.2761E-03  0.9096E-01
     -5.638  0.0000E+00  0.9206E-01
     -5.510  0.5323E-02  0.9274E-01
     -5.383  0.5664E-03  0.9282E-01
     -5.255  0.0000E+00  0.9342E-01
     -5.127  0.2662E-02  0.9376E-01
     -4.999  0.1604E-01  0.9581E-01
     -4.871  0.0000E+00  0.9683E-01
     -4.744  0.0000E+00  0.9683E-01
     -4.616  0.2662E-02  0.9717E-01
     -4.488  0.0000E+00  0.9717E-01
     -4.360  0.5323E-02  0.9785E-01
     -4.232  0.7337E-02  0.9878E-01
     -4.105  0.0000E+00  0.9887E-01
     -3.977  0.0000E+00  0.9887E-01
     -3.849  0.2661E-02  0.9921E-01
     -3.721  0.0000E+00  0.9921E-01
     -3.594  0.0000E+00  0.9921E-01
     -3.466  0.5323E-02  0.9989E-01
     -3.338  0.0000E+00  0.9989E-01
     -3.210  0.0000E+00  0.9989E-01
     -3.082  0.0000E+00  0.9989E-01
     -2.955  0.0000E+00  0.9989E-01
     -2.827  0.0000E+00  0.9989E-01
     -2.699  0.1773E-02  0.1001E+00
     -2.571  0.0000E+00  0.1001E+00
     -2.443  0.0000E+00  0.1001E+00
     -2.316  0.0000E+00  0.1001E+00
     -2.188  0.0000E+00  0.1001E+00
     -2.060  0.0000E+00  0.1001E+00
     -1.932  0.5323E-02  0.1008E+00
     -1.804  0.0000E+00  0.1008E+00
     -1.677  0.4624E-03  0.1009E+00
     -1.549  0.0000E+00  0.1011E+00
     -1.421  0.0000E+00  0.1011E+00
     -1.293  0.9795E-10  0.1011E+00
     -1.166  0.1064E-01  0.1032E+00
     -1.038  0.2568E-02  0.1035E+00
     -0.910  0.7980E-02  0.1045E+00
     -0.782  0.1576E-02  0.1047E+00
     -0.654  0.2181E-03  0.1052E+00
     -0.527  0.4733E-02  0.1065E+00
     -0.399  0.4280E-06  0.1066E+00
     -0.271  0.7618E-05  0.1073E+00
     -0.143  0.2662E-02  0.1083E+00
     -0.015  0.0000E+00  0.1083E+00
      0.112  0.1502E-11  0.1083E+00
      0.240  0.0000E+00  0.1090E+00
      0.368  0.5323E-02  0.1096E+00
      0.496  0.5323E-02  0.1103E+00
      0.623  0.5322E-02  0.1111E+00
      0.751  0.2080E-02  0.1113E+00
      0.879  0.7985E-02  0.1124E+00
      1.007  0.2662E-02  0.1128E+00
      1.135  0.2812E-14  0.1134E+00
      1.262  0.2662E-02  0.1138E+00
      1.390  0.6467E-03  0.1145E+00
      1.518  0.5331E-02  0.1159E+00
      1.646  0.2659E-02  0.1179E+00
      1.774  0.4841E-02  0.1185E+00
      1.901  0.5456E-02  0.1193E+00
      2.029  0.5323E-02  0.1210E+00
      2.157  0.5323E-02  0.1224E+00
      2.285  0.1213E-01  0.1239E+00
      2.413  0.5323E-02  0.1251E+00
      2.540  0.1065E-01  0.1265E+00
      2.668  0.8024E-02  0.1282E+00
      2.796  0.9669E-02  0.1301E+00
      2.924  0.1065E-01  0.1327E+00
      3.051  0.1191E-04  0.1327E+00
      3.179  0.1853E-01  0.1351E+00
      3.307  0.1608E-01  0.1371E+00
      3.435  0.1331E-01  0.1399E+00
      3.563  0.6982E-02  0.1407E+00
      3.690  0.1065E-01  0.1443E+00
      3.818  0.7983E-02  0.1460E+00
      3.946  0.3203E-03  0.1460E+00
      4.074  0.2662E-01  0.1497E+00
      4.202  0.7599E-02  0.1517E+00
      4.329  0.5230E-02  0.1538E+00
      4.457  0.5623E-02  0.1545E+00
      4.585  0.1008E-01  0.1571E+00
      4.713  0.6940E-02  0.1598E+00
      4.840  0.8474E-02  0.1617E+00
      4.968  0.2902E-01  0.1661E+00
      5.096  0.1339E-01  0.1692E+00
      5.224  0.5699E-02  0.1712E+00
      5.352  0.1611E-01  0.1753E+00
      5.479  0.1072E-01  0.1794E+00
      5.607  0.1942E-01  0.1826E+00
      5.735  0.2165E-01  0.1863E+00
      5.863  0.2532E-01  0.1929E+00
      5.991  0.2752E-01  0.1973E+00
      6.118  0.1432E-01  0.1993E+00
      6.246  0.1625E-01  0.2026E+00
      6.374  0.7985E-02  0.2080E+00
      6.502  0.1026E-01  0.2100E+00
      6.630  0.5409E-02  0.2108E+00
      6.757  0.3195E-01  0.2155E+00
      6.885  0.1863E-01  0.2186E+00
      7.013  0.9997E-02  0.2206E+00
      7.141  0.3077E-01  0.2246E+00
      7.268  0.1065E-01  0.2268E+00
      7.396  0.9796E-02  0.2294E+00
      7.524  0.5326E-02  0.2308E+00
      7.652  0.1923E-01  0.2347E+00
      7.780  0.1017E-01  0.2362E+00
      7.907  0.1093E-01  0.2380E+00
      8.035  0.3431E-01  0.2435E+00
      8.163  0.1065E-01  0.2459E+00
      8.291  0.1334E-01  0.2493E+00
      8.419  0.1065E-01  0.2514E+00
      8.546  0.2396E-01  0.2544E+00
      8.674  0.1819E-01  0.2578E+00
      8.802  0.1065E-01  0.2599E+00
      8.930  0.1023E-01  0.2615E+00
      9.057  0.1338E-01  0.2640E+00
      9.185  0.2025E-02  0.2649E+00
      9.313  0.2350E-01  0.2697E+00
      9.441  0.1055E-01  0.2718E+00
      9.569  0.1469E-01  0.2747E+00
      9.696  0.1946E-08  0.2748E+00
      9.824  0.1598E-01  0.2772E+00
      9.952  0.1857E-01  0.2813E+00
     10.080  0.1164E-01  0.2845E+00
     10.208  0.1633E-01  0.2878E+00
     10.335  0.3251E-02  0.2894E+00
     10.463  0.6813E-02  0.2923E+00
     10.591  0.6515E-02  0.2932E+00
     10.719  0.5323E-02  0.2948E+00
     10.846  0.9145E-03  0.2949E+00
     10.974  0.3836E-02  0.2957E+00
     11.102  0.0000E+00  0.2976E+00
     11.230  0.5323E-02  0.2983E+00
     11.358  0.4918E-02  0.2989E+00
     11.485  0.0000E+00  0.2990E+00
     11.613  0.0000E+00  0.2990E+00
     11.741  0.0000E+00  0.2990E+00
     11.869  0.0000E+00  0.2990E+00
     11.997  0.0000E+00  0.2990E+00
     12.124  0.5251E-02  0.2997E+00
     12.252  0.1774E-02  0.2999E+00
     12.380  0.0000E+00  0.2999E+00
     12.508  0.2208E-13  0.2999E+00
     12.636  0.0000E+00  0.3000E+00
     12.763  0.0000E+00  0.3000E+00
     12.891  0.0000E+00  0.3000E+00
     13.019  0.0000E+00  0.3000E+00
     13.147  0.0000E+00  0.3000E+00
     13.274  0.0000E+00  0.3000E+00
     13.402  0.0000E+00  0.3000E+00
     13.530  0.0000E+00  0.3000E+00
     13.658  0.0000E+00  0.3000E+00
     13.786  0.0000E+00  0.3000E+00
     13.913  0.0000E+00  0.3000E+00
     14.041  0.0000E+00  0.3000E+00
     14.169  0.0000E+00  0.3000E+00
     14.297  0.0000E+00  0.3000E+00
