    2    2   80    1
  0.5238761E+02  0.2459512E-09  0.2459512E-09  0.2000000E-08  0.5000000E-15
  1.000000000000000E-004
  CAR 
 C-2                                     
      8     48     12
 
  0.3742002E-15  0.3742002E-15  0.1262379E-14  0.2267574E-02
    1      -22.296989   1.000000
    2      -10.390136   1.000000
    3       -5.749989   1.000000
    4       -5.749930   1.000000
    5        0.526505   0.000000
    6        1.327813   0.000000
    7        1.695858   0.000000
    8        2.603520   0.000000
    9        3.065089   0.000000
   10        4.730621   0.000000
   11        5.345142   0.000000
   12        5.650158   0.000000
 
  0.4761905E-01  0.3771171E-15  0.1262379E-14  0.1360544E-01
    1      -22.243154   1.000000
    2      -10.325717   1.000000
    3       -5.970839   1.000000
    4       -5.866823   1.000000
    5        0.599582   0.000000
    6        1.401872   0.000000
    7        1.770801   0.000000
    8        2.677815   0.000000
    9        3.139131   0.000000
   10        4.804170   0.000000
   11        5.412273   0.000000
   12        5.687544   0.000000
 
  0.9523810E-01  0.3768972E-15  0.1262379E-14  0.1360544E-01
    1      -22.081829   1.000000
    2      -10.132947   1.000000
    3       -6.590713   1.000000
    4       -6.186613   1.000000
    5        0.818860   0.000000
    6        1.623938   0.000000
    7        1.995642   0.000000
    8        2.900614   0.000000
    9        3.361301   0.000000
   10        5.024607   0.000000
   11        5.593099   0.000000
   12        5.775855   0.000000
 
  0.1428571E+00  0.3593300E-15  0.1262379E-14  0.1360544E-01
    1      -21.813581   1.000000
    2       -9.813548   1.000000
    3       -7.510100   1.000000
    4       -6.638247   1.000000
    5        1.184318   0.000000
    6        1.993586   0.000000
    7        2.370388   0.000000
    8        3.271564   0.000000
    9        3.731493   0.000000
   10        5.390878   0.000000
   11        5.680119   0.000000
   12        6.045901   0.000000
 
  0.1904762E+00  0.3695184E-15  0.1262379E-14  0.1360544E-01
    1      -21.439411   1.000000
    2       -9.370659   1.000000
    3       -8.622725   1.000000
    4       -7.147006   1.000000
    5        1.695636   0.000000
    6        2.509650   0.000000
    7        2.895002   0.000000
    8        3.789453   0.000000
    9        4.248768   0.000000
   10        5.599972   0.000000
   11        5.881841   0.000000
   12        6.162391   0.000000
 
  0.2380952E+00  0.1267399E-14  0.1262379E-14  0.1360544E-01
    1      -20.960823   1.000000
    2       -9.842362   1.000000
    3       -8.809627   1.000000
    4       -7.654009   1.000000
    5        2.352057   0.000000
    6        3.166683   0.000000
    7        3.569341   0.000000
    8        4.436593   0.000000
    9        4.905365   0.000000
   10        4.928899   0.000000
   11        5.454017   0.000000
   12        6.571828   0.000000
 
  0.2857143E+00  0.3625559E-15  0.1262379E-14  0.1360544E-01
    1      -20.380077   1.000000
    2      -11.106300   1.000000
    3       -8.139610   1.000000
    4       -8.118380   1.000000
    5        3.151921   0.000000
    6        3.504741   0.000000
    7        4.052075   0.000000
    8        4.392639   0.000000
    9        5.232596   0.000000
   10        5.284880   0.000000
   11        5.759636   0.000000
   12        7.371810   0.000000
 
  0.3333333E+00  0.3588666E-15  0.1262379E-14  0.1360544E-01
    1      -19.700645   1.000000
    2      -12.369914   1.000000
    3       -8.513286   1.000000
    4       -7.377202   1.000000
    5        2.215666   0.000000
    6        4.089034   0.000000
    7        4.961858   0.000000
    8        5.065766   0.000000
    9        5.375314   0.000000
   10        6.241831   0.000000
   11        6.709505   0.000000
   12        8.313003   0.000000
 
  0.3809524E+00  0.3551772E-15  0.1262379E-14  0.1360544E-01
    1      -18.928653   1.000000
    2      -13.599741   1.000000
    3       -8.821451   1.000000
    4       -6.556250   1.000000
    5        0.933714   0.000000
    6        4.859991   0.000000
    7        5.237846   0.000000
    8        6.055621   0.000000
    9        6.494188   0.000000
   10        7.345829   0.000000
   11        7.816541   0.000000
   12        9.386337   0.000000
 
  0.4285714E+00  0.3810475E-15  0.1262379E-14  0.1360544E-01
    1      -18.079220   1.000000
    2      -14.763045   1.000000
    3       -9.032078   1.000000
    4       -5.756826   1.000000
    5       -0.190547   0.000000
    6        4.790382   0.000000
    7        6.424886   0.000000
    8        7.289087   0.000000
    9        7.766750   0.000000
   10        8.590154   0.000000
   11        9.069294   0.000000
   12       10.558491   0.000000
 
  0.4761905E+00  0.3496025E-15  0.1262379E-14  0.1360544E-01
    1      -17.234435   1.000000
    2      -15.767202   1.000000
    3       -9.138831   1.000000
    4       -5.184147   1.000000
    5       -0.930479   0.000000
    6        4.738892   0.000000
    7        7.772071   0.000000
    8        8.646008   0.000000
    9        9.183442   0.000000
   10        9.250859   0.000000
   11        9.921927   0.000000
   12       10.174516   0.000000
 
  0.9523810E-01  0.4761905E-01  0.1262379E-14  0.1360544E-01
    1      -22.135574   1.000000
    2      -10.197121   1.000000
    3       -6.375824   1.000000
    4       -6.100641   1.000000
    5        0.745772   0.000000
    6        1.549938   0.000000
    7        1.920696   0.000000
    8        2.826365   0.000000
    9        3.287259   0.000000
   10        4.951176   0.000000
   11        5.543690   0.000000
   12        5.784796   0.000000
 
  0.1428571E+00  0.4761905E-01  0.1262379E-14  0.2721088E-01
    1      -21.920791   1.000000
    2       -9.941001   1.000000
    3       -7.112659   1.000000
    4       -6.519707   1.000000
    5        1.038212   0.000000
    6        1.845826   0.000000
    7        2.220501   0.000000
    8        3.123277   0.000000
    9        3.583584   0.000000
   10        5.244730   0.000000
   11        5.761484   0.000000
   12        5.961681   0.000000
 
  0.1904762E+00  0.4761905E-01  0.1262379E-14  0.2721088E-01
    1      -21.599585   1.000000
    2       -9.559737   1.000000
    3       -8.098735   1.000000
    4       -7.030636   1.000000
    5        1.476746   0.000000
    6        2.288870   0.000000
    7        2.670211   0.000000
    8        3.567966   0.000000
    9        4.027827   0.000000
   10        5.682290   0.000000
   11        5.831846   0.000000
   12        6.335953   0.000000
 
  0.2380952E+00  0.4761905E-01  0.1262379E-14  0.2721088E-01
    1      -21.173208   1.000000
    2       -9.243543   1.000000
    3       -9.057422   1.000000
    4       -7.560491   1.000000
    5        2.060855   0.000000
    6        2.876934   0.000000
    7        3.269757   0.000000
    8        4.157423   0.000000
    9        4.618304   0.000000
   10        5.451856   0.000000
   11        5.745443   0.000000
   12        6.278721   0.000000
 
  0.2857143E+00  0.4761905E-01  0.1262379E-14  0.2721088E-01
    1      -20.643530   1.000000
    2      -10.471502   1.000000
    3       -8.441016   1.000000
    4       -8.060361   1.000000
    5        2.789496   0.000000
    6        3.584250   0.000000
    7        4.018912   0.000000
    8        4.202870   0.000000
    9        4.919329   0.000000
   10        5.329458   0.000000
   11        5.616561   0.000000
   12        7.004631   0.000000
 
  0.3333333E+00  0.4761905E-01  0.1262379E-14  0.2721088E-01
    1      -20.013366   1.000000
    2      -11.726702   1.000000
    3       -8.498698   1.000000
    4       -7.722602   1.000000
    5        2.839266   0.000000
    6        3.660273   0.000000
    7        4.522104   0.000000
    8        4.915656   0.000000
    9        5.391138   0.000000
   10        5.796814   0.000000
   11        6.270041   0.000000
   12        7.874390   0.000000
 
  0.3809524E+00  0.4761905E-01  0.1262379E-14  0.2721088E-01
    1      -19.287254   1.000000
    2      -12.968534   1.000000
    3       -8.855369   1.000000
    4       -6.925270   1.000000
    5        1.539029   0.000000
    6        4.658979   0.000000
    7        5.243162   0.000000
    8        5.540337   0.000000
    9        5.970992   0.000000
   10        6.827491   0.000000
   11        7.300054   0.000000
   12        8.878893   0.000000
 
  0.4285714E+00  0.4761905E-01  0.1262379E-14  0.2721088E-01
    1      -18.474331   1.000000
    2      -14.164196   1.000000
    3       -9.117658   1.000000
    4       -6.099623   1.000000
    5        0.326107   0.000000
    6        5.071380   0.000000
    7        5.859044   0.000000
    8        6.702973   0.000000
    9        7.167898   0.000000
   10        8.000181   0.000000
   11        8.480028   0.000000
   12        9.999690   0.000000
 
  0.4761905E+00  0.4761905E-01  0.1262379E-14  0.2721088E-01
    1      -17.605249   1.000000
    2      -15.268279   1.000000
    3       -9.277810   1.000000
    4       -5.373733   1.000000
    5       -0.642097   0.000000
    6        5.001550   0.000000
    7        7.135210   0.000000
    8        7.995114   0.000000
    9        8.514922   0.000000
   10        9.303377   0.000000
   11        9.798964   0.000000
   12       10.055204   0.000000
 
 -0.4761905E+00  0.4761905E-01  0.1262379E-14  0.1360544E-01
    1      -16.986348   1.000000
    2      -15.966371   1.000000
    3       -9.331629   1.000000
    4       -5.047640   1.000000
    5       -1.050564   0.000000
    6        4.975314   0.000000
    7        8.467319   0.000000
    8        8.623263   0.000000
    9        9.272646   0.000000
   10        9.528751   0.000000
   11       10.006302   0.000000
   12       10.015273   0.000000
 
  0.1904762E+00  0.9523810E-01  0.1262379E-14  0.1360544E-01
    1      -21.653049   1.000000
    2       -9.622943   1.000000
    3       -7.854827   1.000000
    4       -7.060163   1.000000
    5        1.403851   0.000000
    6        2.215218   0.000000
    7        2.595294   0.000000
    8        3.494066   0.000000
    9        3.954256   0.000000
   10        5.610913   0.000000
   11        6.061125   0.000000
   12        6.317386   0.000000
 
  0.2380952E+00  0.9523810E-01  0.1262379E-14  0.2721088E-01
    1      -21.279649   1.000000
    2       -9.181921   1.000000
    3       -8.797656   1.000000
    4       -7.668845   1.000000
    5        1.915430   0.000000
    6        2.731133   0.000000
    7        3.119992   0.000000
    8        4.012093   0.000000
    9        4.472924   0.000000
   10        5.755790   0.000000
   11        6.124570   0.000000
   12        6.286229   0.000000
 
  0.2857143E+00  0.9523810E-01  0.1262379E-14  0.2721088E-01
    1      -20.802182   1.000000
    2       -9.897487   1.000000
    3       -8.623233   1.000000
    4       -8.245876   1.000000
    5        2.572185   0.000000
    6        3.388921   0.000000
    7        3.794504   0.000000
    8        4.576170   0.000000
    9        4.716331   0.000000
   10        5.137757   0.000000
   11        6.285015   0.000000
   12        6.778494   0.000000
 
  0.3333333E+00  0.9523810E-01  0.1262379E-14  0.2721088E-01
    1      -20.223025   1.000000
    2      -11.085248   1.000000
    3       -8.751661   1.000000
    4       -7.955779   1.000000
    5        3.346140   0.000000
    6        3.372795   0.000000
    7        4.221527   0.000000
    8        4.618578   0.000000
    9        5.494888   0.000000
   10        5.920958   0.000000
   11        6.191531   0.000000
   12        7.573580   0.000000
 
  0.3809524E+00  0.9523810E-01  0.1262379E-14  0.2721088E-01
    1      -19.545831   1.000000
    2      -12.301029   1.000000
    3       -9.169811   1.000000
    4       -7.195660   1.000000
    5        2.083649   0.000000
    6        4.314426   0.000000
    7        5.162816   0.000000
    8        5.589753   0.000000
    9        5.987322   0.000000
   10        6.450747   0.000000
   11        6.934706   0.000000
   12        8.501461   0.000000
 
  0.4285714E+00  0.9523810E-01  0.1262379E-14  0.2721088E-01
    1      -18.776972   1.000000
    2      -13.500299   1.000000
    3       -9.490611   1.000000
    4       -6.375334   1.000000
    5        0.847278   0.000000
    6        5.379414   0.000000
    7        5.861818   0.000000
    8        6.249965   0.000000
    9        6.719366   0.000000
   10        7.547348   0.000000
   11        8.037715   0.000000
   12        9.542121   0.000000
 
  0.4761905E+00  0.9523810E-01  0.1262379E-14  0.2721088E-01
    1      -17.932029   1.000000
    2      -14.643597   1.000000
    3       -9.707720   1.000000
    4       -5.571998   1.000000
    5       -0.249947   0.000000
    6        5.716615   0.000000
    7        6.640197   0.000000
    8        7.464046   0.000000
    9        7.991009   0.000000
   10        8.773072   0.000000
   11        9.287616   0.000000
   12       10.587353   0.000000
 
 -0.4761905E+00  0.9523810E-01  0.1262379E-14  0.2721088E-01
    1      -17.093728   1.000000
    2      -15.634278   1.000000
    3       -9.817220   1.000000
    4       -4.989771   1.000000
    5       -0.984012   0.000000
    6        5.668832   0.000000
    7        7.974659   0.000000
    8        8.760892   0.000000
    9        9.398617   0.000000
   10        9.441182   0.000000
   11        9.966506   0.000000
   12       10.364743   0.000000
 
  0.2857143E+00  0.1428571E+00  0.1262379E-14  0.1360544E-01
    1      -20.855157   1.000000
    2       -9.612802   1.000000
    3       -8.684173   1.000000
    4       -8.407792   1.000000
    5        2.499744   0.000000
    6        3.319176   0.000000
    7        3.719674   0.000000
    8        4.603180   0.000000
    9        4.763792   0.000000
   10        5.066214   0.000000
   11        6.701232   0.000000
   12        6.833643   0.000000
 
  0.3333333E+00  0.1428571E+00  0.1262379E-14  0.2721088E-01
    1      -20.328195   1.000000
    2      -10.579265   1.000000
    3       -9.084477   1.000000
    4       -8.073226   1.000000
    5        3.228579   0.000000
    6        3.652111   0.000000
    7        4.056436   0.000000
    8        4.469135   0.000000
    9        5.340089   0.000000
   10        5.805964   0.000000
   11        7.104686   0.000000
   12        7.419175   0.000000
 
  0.3809524E+00  0.1428571E+00  0.1262379E-14  0.2721088E-01
    1      -19.701864   1.000000
    2      -11.670922   1.000000
    3       -9.627364   1.000000
    4       -7.360453   1.000000
    5        2.480280   0.000000
    6        4.100192   0.000000
    7        4.928018   0.000000
    8        5.368126   0.000000
    9        6.220128   0.000000
   10        6.678955   0.000000
   11        7.086469   0.000000
   12        8.266342   0.000000
 
  0.4285714E+00  0.1428571E+00  0.1262379E-14  0.2721088E-01
    1      -18.981134   1.000000
    2      -12.816333   1.000000
    3      -10.038496   1.000000
    4       -6.567125   1.000000
    5        1.289911   0.000000
    6        5.111249   0.000000
    7        5.936979   0.000000
    8        6.415088   0.000000
    9        6.930167   0.000000
   10        7.237857   0.000000
   11        7.747825   0.000000
   12        9.215361   0.000000
 
  0.4761905E+00  0.1428571E+00  0.1262379E-14  0.2721088E-01
    1      -18.175856   1.000000
    2      -13.953658   1.000000
    3      -10.328255   1.000000
    4       -5.739327   1.000000
    5        0.156170   0.000000
    6        6.248069   0.000000
    7        6.822781   0.000000
    8        7.064705   0.000000
    9        7.617459   0.000000
   10        8.377877   0.000000
   11        8.919705   0.000000
   12       10.153981   0.000000
 
 -0.4761905E+00  0.1428571E+00  0.1262379E-14  0.2721088E-01
    1      -17.317657   1.000000
    2      -15.021110   1.000000
    3      -10.501215   1.000000
    4       -4.997761   1.000000
    5       -0.778397   0.000000
    6        6.711979   0.000000
    7        7.554119   0.000000
    8        8.254584   0.000000
    9        8.962555   0.000000
   10        9.563628   0.000000
   11       10.216900   0.000000
   12       10.362727   0.000000
 
 -0.4285714E+00  0.1428571E+00  0.1262379E-14  0.1360544E-01
    1      -16.710140   1.000000
    2      -15.699931   1.000000
    3      -10.558810   1.000000
    4       -4.654807   1.000000
    5       -1.187336   0.000000
    6        6.689676   0.000000
    7        8.838562   0.000000
    8        9.022785   0.000000
    9        9.076195   0.000000
   10        9.973852   0.000000
   11       10.449964   0.000000
   12       10.461481   0.000000
 
  0.3809524E+00  0.1904762E+00  0.1262379E-14  0.1360544E-01
    1      -19.754009   1.000000
    2      -11.341507   1.000000
    3       -9.906629   1.000000
    4       -7.415791   1.000000
    5        2.629110   0.000000
    6        4.028334   0.000000
    7        4.846924   0.000000
    8        5.293459   0.000000
    9        6.141988   0.000000
   10        6.620375   0.000000
   11        7.922758   0.000000
   12        8.185838   0.000000
 
  0.4285714E+00  0.1904762E+00  0.1262379E-14  0.2721088E-01
    1      -19.083855   1.000000
    2      -12.251290   1.000000
    3      -10.554633   1.000000
    4       -6.665250   1.000000
    5        1.551982   0.000000
    6        4.968841   0.000000
    7        5.774415   0.000000
    8        6.267179   0.000000
    9        7.079320   0.000000
   10        7.573864   0.000000
   11        8.200722   0.000000
   12        9.041606   0.000000
 
  0.4761905E+00  0.1904762E+00  0.1262379E-14  0.2721088E-01
    1      -18.325020   1.000000
    2      -13.277044   1.000000
    3      -10.994439   1.000000
    4       -5.849253   1.000000
    5        0.469881   0.000000
    6        6.045180   0.000000
    7        6.810018   0.000000
    8        7.389207   0.000000
    9        8.101087   0.000000
   10        8.129563   0.000000
   11        8.707407   0.000000
   12        9.844100   0.000000
 
 -0.4761905E+00  0.1904762E+00  0.1262379E-14  0.2721088E-01
    1      -17.494246   1.000000
    2      -14.325343   1.000000
    3      -11.265699   1.000000
    4       -5.033435   1.000000
    5       -0.535245   0.000000
    6        7.243372   0.000000
    7        7.868820   0.000000
    8        8.012905   0.000000
    9        8.664295   0.000000
   10        9.203934   0.000000
   11        9.938947   0.000000
   12       10.342790   0.000000
 
 -0.4285714E+00  0.1904762E+00  0.1262379E-14  0.2721088E-01
    1      -16.674342   1.000000
    2      -15.264109   1.000000
    3      -11.396211   1.000000
    4       -4.413009   1.000000
    5       -1.254406   0.000000
    6        7.929452   0.000000
    7        8.576271   0.000000
    8        8.618580   0.000000
    9        9.926399   0.000000
   10       10.086281   0.000000
   11       10.096564   0.000000
   12       11.005758   0.000000
 
  0.4761905E+00  0.2380952E+00  0.1262379E-14  0.1360544E-01
    1      -18.375127   1.000000
    2      -12.906254   1.000000
    3      -11.367077   1.000000
    4       -5.887396   1.000000
    5        0.589547   0.000000
    6        5.974184   0.000000
    7        6.720945   0.000000
    8        7.315251   0.000000
    9        8.043893   0.000000
   10        8.601557   0.000000
   11        9.259269   0.000000
   12        9.730463   0.000000
 
 -0.4761905E+00  0.2380952E+00  0.1262379E-14  0.2721088E-01
    1      -17.587064   1.000000
    2      -13.720453   1.000000
    3      -11.914869   1.000000
    4       -5.060946   1.000000
    5       -0.372138   0.000000
    6        7.106850   0.000000
    7        7.649779   0.000000
    8        8.510949   0.000000
    9        9.006988   0.000000
   10        9.349292   0.000000
   11        9.805666   0.000000
   12       10.143494   0.000000
 
 -0.4285714E+00  0.2380952E+00  0.1262379E-14  0.2721088E-01
    1      -16.752134   1.000000
    2      -14.626313   1.000000
    3      -12.200007   1.000000
    4       -4.278588   1.000000
    5       -1.238084   0.000000
    6        8.201466   0.000000
    7        8.340267   0.000000
    8        9.272640   0.000000
    9        9.856827   0.000000
   10        9.916095   0.000000
   11       10.657107   0.000000
   12       10.979738   0.000000
 
 -0.3809524E+00  0.2380952E+00  0.1262379E-14  0.1360544E-01
    1      -16.158905   1.000000
    2      -15.252880   1.000000
    3      -12.287238   1.000000
    4       -3.875044   1.000000
    5       -1.670056   0.000000
    6        8.305763   0.000000
    7        9.192541   0.000000
    8        9.516060   0.000000
    9        9.808601   0.000000
   10       10.862885   0.000000
   11       11.328751   0.000000
   12       11.350386   0.000000
 
 -0.4285714E+00  0.2857143E+00  0.1262379E-14  0.1360544E-01
    1      -16.786746   1.000000
    2      -14.246984   1.000000
    3      -12.629922   1.000000
    4       -4.237367   1.000000
    5       -1.219285   0.000000
    6        8.042613   0.000000
    7        8.273322   0.000000
    8        9.776684   0.000000
    9        9.838577   0.000000
   10       10.324979   0.000000
   11       10.442232   0.000000
   12       10.927999   0.000000
 
 -0.3809524E+00  0.2857143E+00  0.1262379E-14  0.2721088E-01
    1      -15.995243   1.000000
    2      -14.910911   1.000000
    3      -12.984784   1.000000
    4       -3.499510   1.000000
    5       -1.965163   0.000000
    6        8.022915   0.000000
    7        9.461302   0.000000
    8       10.208201   0.000000
    9       10.604136   0.000000
   10       10.998209   0.000000
   11       11.197017   0.000000
   12       12.108745   0.000000
 
 -0.3333333E+00  0.3333333E+00  0.1262379E-14  0.4535147E-02
    1      -15.335661   1.000000
    2      -15.335629   1.000000
    3      -13.326452   1.000000
    4       -2.721748   0.500749
    5       -2.721721   0.499251
    6        7.911819   0.000000
    7       10.220587   0.000000
    8       10.220600   0.000000
    9       10.810213   0.000000
   10       12.192853   0.000000
   11       12.192875   0.000000
   12       12.554205   0.000000
