       N       E                     dE             d eps       ncg     rms          rms(c)
DAV:   1     0.441806642884E+02    0.44181E+02   -0.38191E+03  1152   0.683E+02
DAV:   2    -0.166601925296E+02   -0.60841E+02   -0.50436E+02  1404   0.948E+01
DAV:   3    -0.197504129720E+02   -0.30902E+01   -0.30902E+01  1680   0.307E+01
DAV:   4    -0.197682347961E+02   -0.17822E-01   -0.17822E-01  1740   0.250E+00
DAV:   5    -0.197682552048E+02   -0.20409E-04   -0.20409E-04  1608   0.726E-02    0.558E+00
DAV:   6    -0.188326166378E+02    0.93564E+00   -0.91754E-01  1596   0.463E+00    0.293E+00
DAV:   7    -0.184740862434E+02    0.35853E+00   -0.10522E+00  1668   0.484E+00    0.505E-01
DAV:   8    -0.184632046230E+02    0.10882E-01   -0.89499E-03  1620   0.584E-01    0.858E-02
DAV:   9    -0.184606956915E+02    0.25089E-02   -0.11711E-03  1524   0.136E-01    0.663E-02
DAV:  10    -0.184559731707E+02    0.47225E-02   -0.27440E-03  1440   0.175E-01    0.347E-02
DAV:  11    -0.184556486350E+02    0.32454E-03   -0.39692E-04  1296   0.666E-02    0.233E-02
DAV:  12    -0.184568772285E+02   -0.12286E-02   -0.48238E-04  1248   0.832E-02    0.214E-02
DAV:  13    -0.184569954872E+02   -0.11826E-03   -0.35137E-04  1392   0.562E-02    0.156E-02
DAV:  14    -0.184572464824E+02   -0.25100E-03   -0.10828E-04  1200   0.385E-02    0.156E-02
DAV:  15    -0.184573401302E+02   -0.93648E-04   -0.29158E-05  1428   0.277E-02    0.718E-03
DAV:  16    -0.184576135858E+02   -0.27346E-03   -0.18250E-05  1320   0.164E-02    0.215E-03
DAV:  17    -0.184576588065E+02   -0.45221E-04   -0.55974E-07  1308   0.461E-03    0.103E-03
DAV:  18    -0.184576854599E+02   -0.26653E-04   -0.38212E-07  1284   0.277E-03    0.212E-04
DAV:  19    -0.184576888510E+02   -0.33911E-05   -0.75571E-08  1320   0.836E-04    0.526E-05
DAV:  20    -0.184576889655E+02   -0.11452E-06   -0.15069E-09  1488   0.142E-04    0.139E-05
DAV:  21    -0.184576890318E+02   -0.66294E-07   -0.65164E-10  1248   0.782E-05    0.515E-06
DAV:  22    -0.184576890327E+02   -0.85384E-09   -0.39625E-12  1440   0.100E-05
   1 F= -.18457689E+02 E0= -.18457663E+02  d E =-.184577E+02
