 vasp.5.4.4.18Apr17-6-g9f103f2a35 (build May 31 2018 21:15:54) complex          
  
 executed on          c7_intel_O1 date 2020.08.11  21:52:19
 running on   36 total cores
 distrk:  each k-point on   36 cores,    1 groups
 distr:  one band on NCORES_PER_BAND=   6 cores,    6 groups


--------------------------------------------------------------------------------------------------------


 INCAR:
 POTCAR:   PAW_PBE C 08Apr2002                    
 POTCAR:   PAW_PBE C 08Apr2002                    
   VRHFIN =C: s2p2                                                              
   LEXCH  = PE                                                                  
   EATOM  =   147.1560 eV,   10.8157 Ry                                         
                                                                                
   TITEL  = PAW_PBE C 08Apr2002                                                 
   LULTRA =        F    use ultrasoft PP ?                                      
   IUNSCR =        0    unscreen: 0-lin 1-nonlin 2-no                           
   RPACOR =     .000    partial core radius                                     
   POMASS =   12.011; ZVAL   =    4.000    mass and valenz                      
   RCORE  =    1.500    outmost cutoff radius                                   
   RWIGS  =    1.630; RWIGS  =     .863    wigner-seitz radius (au A)           
   ENMAX  =  400.000; ENMIN  =  300.000 eV                                      
   ICORE  =        2    local potential                                         
   LCOR   =        T    correct aug charges                                     
   LPAW   =        T    paw PP                                                  
   EAUG   =  644.873                                                            
   DEXC   =     .000                                                            
   RMAX   =    2.266    core radius for proj-oper                               
   RAUG   =    1.300    factor for augmentation sphere                          
   RDEP   =    1.501    radius for radial grids                                 
   RDEPT  =    1.300    core radius for aug-charge                              
   QCUT   =   -5.516; QGAM   =   11.032    optimization parameters              
                                                                                
   Description                                                                  
     l     E      TYP  RCUT    TYP  RCUT                                        
     0   .000     23  1.200                                                     
     0   .000     23  1.200                                                     
     1   .000     23  1.500                                                     
     1  2.500     23  1.500                                                     
     2   .000      7  1.500                                                     
  local pseudopotential read in
  atomic valenz-charges read in
  non local Contribution for L=           0  read in
    real space projection operators read in
  non local Contribution for L=           0  read in
    real space projection operators read in
  non local Contribution for L=           1  read in
    real space projection operators read in
  non local Contribution for L=           1  read in
    real space projection operators read in
    PAW grid and wavefunctions read in
 
   number of l-projection  operators is LMAX  =           4
   number of lm-projection operators is LMMAX =           8
 
 PAW_PBE C 08Apr2002                    :
 energy of atom  1       EATOM= -147.1560
 kinetic energy error for atom=    0.0016 (will be added to EATOM!!)
 
 
 POSCAR: C2                                      
  positions in direct lattice
  No initial velocities read in
 exchange correlation table for  LEXCH =        8
   RHO(1)=    0.500       N(1)  =     2000
   RHO(2)=  100.500       N(2)  =     4000
 


--------------------------------------------------------------------------------------------------------


 ion  position               nearest neighbor table
   1  0.000  0.000  0.000-   2 1.42   2 1.42   2 1.42
   2  0.333  0.333  0.000-   1 1.42   1 1.42   1 1.42
 
  LATTYP: Found a hexagonal cell.
 ALAT       =     2.4595120000
 C/A-ratio  =     8.1316944174
  
  Lattice vectors:
  
 A1 = (   0.0000000000,  -2.4595120000,   0.0000000000)
 A2 = (  -2.1300000000,   1.2297560000,   0.0000000000)
 A3 = (   0.0000000000,   0.0000000000, -20.0000000000)


Analysis of symmetry for initial positions (statically):
=====================================================================
 Subroutine PRICEL returns:
 Original cell was already a primitive cell.
 

 Routine SETGRP: Setting up the symmetry group for a 
 hexagonal supercell.


 Subroutine GETGRP returns: Found 24 space group operations
 (whereof 12 operations were pure point group operations)
 out of a pool of 24 trial point group operations.


The static configuration has the point symmetry D_3h.
 The point group associated with its full space group is D_6h.


Analysis of symmetry for dynamics (positions and initial velocities):
=====================================================================
 Subroutine PRICEL returns:
 Original cell was already a primitive cell.
 

 Routine SETGRP: Setting up the symmetry group for a 
 hexagonal supercell.


 Subroutine GETGRP returns: Found 24 space group operations
 (whereof 12 operations were pure point group operations)
 out of a pool of 24 trial point group operations.


The dynamic configuration has the point symmetry D_3h.
 The point group associated with its full space group is D_6h.


 Subroutine INISYM returns: Found 24 space group operations
 (whereof 12 operations are pure point group operations),
 and found     1 'primitive' translations

 
 
 KPOINTS: C-2                                     

Automatic generation of k-mesh.
Space group operators:
 irot       det(A)        alpha          n_x          n_y          n_z        tau_x        tau_y        tau_z
    1     1.000000     0.000000     1.000000     0.000000     0.000000     0.000000     0.000000     0.000000
    2    -1.000000    60.000000     0.000000     0.000000     1.000000     0.000000     0.000000     0.000000
    3     1.000000   120.000000     0.000000     0.000000     1.000000     0.000000     0.000000     0.000000
    4    -1.000000   180.000000     0.000000     0.000000     1.000000     0.000000     0.000000     0.000000
    5     1.000000   120.000000     0.000000     0.000000    -1.000000     0.000000     0.000000     0.000000
    6    -1.000000    60.000000     0.000000     0.000000    -1.000000     0.000000     0.000000     0.000000
    7    -1.000000   180.000000    -0.000000     1.000000     0.000000     0.000000     0.000000     0.000000
    8     1.000000   180.000000     0.500000    -0.866025     0.000000     0.000000     0.000000     0.000000
    9    -1.000000   180.000000     0.866025    -0.500000     0.000000     0.000000     0.000000     0.000000
   10     1.000000   180.000000     1.000000     0.000000     0.000000     0.000000     0.000000     0.000000
   11    -1.000000   180.000000     0.866025     0.500000     0.000000     0.000000     0.000000     0.000000
   12     1.000000   180.000000    -0.500000    -0.866025     0.000000     0.000000     0.000000     0.000000
   13    -1.000000     0.000000     1.000000     0.000000     0.000000     0.333333    -0.666667     0.000000
   14     1.000000    60.000000     0.000000     0.000000     1.000000     0.333333    -0.666667     0.000000
   15    -1.000000   120.000000     0.000000     0.000000     1.000000     0.333333    -0.666667     0.000000
   16     1.000000   180.000000     0.000000     0.000000     1.000000     0.333333    -0.666667     0.000000
   17    -1.000000   120.000000     0.000000     0.000000    -1.000000     0.333333    -0.666667     0.000000
   18     1.000000    60.000000     0.000000     0.000000    -1.000000     0.333333    -0.666667     0.000000
   19     1.000000   180.000000    -0.000000     1.000000     0.000000     0.333333    -0.666667     0.000000
   20    -1.000000   180.000000     0.500000    -0.866025     0.000000     0.333333    -0.666667     0.000000
   21     1.000000   180.000000     0.866025    -0.500000     0.000000     0.333333    -0.666667     0.000000
   22    -1.000000   180.000000     1.000000     0.000000     0.000000     0.333333    -0.666667     0.000000
   23     1.000000   180.000000     0.866025     0.500000     0.000000     0.333333    -0.666667     0.000000
   24    -1.000000   180.000000    -0.500000    -0.866025     0.000000     0.333333    -0.666667     0.000000
 
 Subroutine IBZKPT returns following result:
 ===========================================
 
 Found     48 irreducible k-points:
 
 Following reciprocal coordinates:
            Coordinates               Weight
  0.000000  0.000000  0.000000      1.000000
  0.047619  0.000000  0.000000      6.000000
  0.095238  0.000000  0.000000      6.000000
  0.142857  0.000000  0.000000      6.000000
  0.190476  0.000000  0.000000      6.000000
  0.238095  0.000000  0.000000      6.000000
  0.285714  0.000000  0.000000      6.000000
  0.333333  0.000000  0.000000      6.000000
  0.380952  0.000000  0.000000      6.000000
  0.428571  0.000000  0.000000      6.000000
  0.476190  0.000000  0.000000      6.000000
  0.095238  0.047619  0.000000      6.000000
  0.142857  0.047619  0.000000     12.000000
  0.190476  0.047619  0.000000     12.000000
  0.238095  0.047619  0.000000     12.000000
  0.285714  0.047619  0.000000     12.000000
  0.333333  0.047619  0.000000     12.000000
  0.380952  0.047619  0.000000     12.000000
  0.428571  0.047619  0.000000     12.000000
  0.476190  0.047619  0.000000     12.000000
 -0.476190  0.047619  0.000000      6.000000
  0.190476  0.095238  0.000000      6.000000
  0.238095  0.095238  0.000000     12.000000
  0.285714  0.095238  0.000000     12.000000
  0.333333  0.095238  0.000000     12.000000
  0.380952  0.095238  0.000000     12.000000
  0.428571  0.095238  0.000000     12.000000
  0.476190  0.095238  0.000000     12.000000
 -0.476190  0.095238  0.000000     12.000000
  0.285714  0.142857  0.000000      6.000000
  0.333333  0.142857  0.000000     12.000000
  0.380952  0.142857  0.000000     12.000000
  0.428571  0.142857  0.000000     12.000000
  0.476190  0.142857  0.000000     12.000000
 -0.476190  0.142857  0.000000     12.000000
 -0.428571  0.142857  0.000000      6.000000
  0.380952  0.190476  0.000000      6.000000
  0.428571  0.190476  0.000000     12.000000
  0.476190  0.190476  0.000000     12.000000
 -0.476190  0.190476  0.000000     12.000000
 -0.428571  0.190476  0.000000     12.000000
  0.476190  0.238095  0.000000      6.000000
 -0.476190  0.238095  0.000000     12.000000
 -0.428571  0.238095  0.000000     12.000000
 -0.380952  0.238095  0.000000      6.000000
 -0.428571  0.285714  0.000000      6.000000
 -0.380952  0.285714  0.000000     12.000000
 -0.333333  0.333333  0.000000      2.000000
 
 Following cartesian coordinates:
            Coordinates               Weight
  0.000000  0.000000  0.000000      1.000000
  0.011178 -0.019361  0.000000      6.000000
  0.022356 -0.038722  0.000000      6.000000
  0.033535 -0.058084  0.000000      6.000000
  0.044713 -0.077445  0.000000      6.000000
  0.055891 -0.096806  0.000000      6.000000
  0.067069 -0.116167  0.000000      6.000000
  0.078247 -0.135528  0.000000      6.000000
  0.089425 -0.154889  0.000000      6.000000
  0.100604 -0.174251  0.000000      6.000000
  0.111782 -0.193612  0.000000      6.000000
  0.033535 -0.019361  0.000000      6.000000
  0.044713 -0.038722  0.000000     12.000000
  0.055891 -0.058084  0.000000     12.000000
  0.067069 -0.077445  0.000000     12.000000
  0.078247 -0.096806  0.000000     12.000000
  0.089425 -0.116167  0.000000     12.000000
  0.100604 -0.135528  0.000000     12.000000
  0.111782 -0.154889  0.000000     12.000000
  0.122960 -0.174251  0.000000     12.000000
 -0.100604  0.212973  0.000000      6.000000
  0.067069 -0.038722  0.000000      6.000000
  0.078247 -0.058084  0.000000     12.000000
  0.089425 -0.077445  0.000000     12.000000
  0.100604 -0.096806  0.000000     12.000000
  0.111782 -0.116167  0.000000     12.000000
  0.122960 -0.135528  0.000000     12.000000
  0.134138 -0.154889  0.000000     12.000000
 -0.089425  0.232334  0.000000     12.000000
  0.100604 -0.058084  0.000000      6.000000
  0.111782 -0.077445  0.000000     12.000000
  0.122960 -0.096806  0.000000     12.000000
  0.134138 -0.116167  0.000000     12.000000
  0.145316 -0.135528  0.000000     12.000000
 -0.078247  0.251695  0.000000     12.000000
 -0.067069  0.232334  0.000000      6.000000
  0.134138 -0.077445  0.000000      6.000000
  0.145316 -0.096806  0.000000     12.000000
  0.156495 -0.116167  0.000000     12.000000
 -0.067069  0.271056  0.000000     12.000000
 -0.055891  0.251695  0.000000     12.000000
  0.167673 -0.096806  0.000000      6.000000
 -0.055891  0.290418  0.000000     12.000000
 -0.044713  0.271056  0.000000     12.000000
 -0.033535  0.251695  0.000000      6.000000
 -0.033535  0.290418  0.000000      6.000000
 -0.022356  0.271056  0.000000     12.000000
  0.000000  0.271056  0.000000      2.000000
 


--------------------------------------------------------------------------------------------------------




 Dimension of arrays:
   k-points           NKPTS =     48   k-points in BZ     NKDIM =     48   number of bands    NBANDS=     12
   number of dos      NEDOS =    301   number of ions     NIONS =      2
   non local maximal  LDIM  =      4   non local SUM 2l+1 LMDIM =      8
   total plane-waves  NPLWV = 110592
   max r-space proj   IRMAX =      1   max aug-charges    IRDMAX=  99836
   dimension x,y,z NGX =    24 NGY =   24 NGZ =  192
   dimension x,y,z NGXF=    48 NGYF=   48 NGZF=  384
   support grid    NGXF=    96 NGYF=   96 NGZF=  768
   ions per type =               2
   NGX,Y,Z   is equivalent  to a cutoff of  16.22, 16.22, 15.96 a.u.
   NGXF,Y,Z  is equivalent  to a cutoff of  32.44, 32.44, 31.92 a.u.

 SYSTEM =  C-2                                     
 POSCAR =  C2                                      

 Startparameter for this run:
   NWRITE =      2    write-flag & timer
   PREC   = accura    normal or accurate (medium, high low for compatibility)
   ISTART =      0    job   : 0-new  1-cont  2-samecut
   ICHARG =      2    charge: 1-file 2-atom 10-const
   ISPIN  =      1    spin polarized calculation?
   LNONCOLLINEAR =      F non collinear calculations
   LSORBIT =      F    spin-orbit coupling
   INIWAV =      1    electr: 0-lowe 1-rand  2-diag
   LASPH  =      F    aspherical Exc in radial PAW
   METAGGA=      F    non-selfconsistent MetaGGA calc.

 Electronic Relaxation 1
   ENCUT  =  800.0 eV  58.80 Ry    7.67 a.u.   5.67  5.67 46.12*2*pi/ulx,y,z
   ENINI  =  800.0     initial cutoff
   ENAUG  =  644.9 eV  augmentation charge cutoff
   NELM   =     60;   NELMIN=  5; NELMDL= -5     # of ELM steps 
   EDIFF  = 0.1E-07   stopping-criterion for ELM
   LREAL  =      F    real-space projection
   NLSPLINE    = F    spline interpolate recip. space projectors
   LCOMPAT=      F    compatible to vasp.4.4
   GGA_COMPAT  = T    GGA compatible to vasp.4.4-vasp.4.6
   LMAXPAW     = -100 max onsite density
   LMAXMIX     =    2 max onsite mixed and CHGCAR
   VOSKOWN=      0    Vosko Wilk Nusair interpolation
   ROPT   =    0.00000
 Ionic relaxation
   EDIFFG = -.1E-07   stopping-criterion for IOM
   NSW    =     80    number of steps for IOM
   NBLOCK =      1;   KBLOCK =     80    inner block; outer block 
   IBRION =      2    ionic relax: 0-MD 1-quasi-New 2-CG
   NFREE  =      1    steps in history (QN), initial steepest desc. (CG)
   ISIF   =      2    stress and relaxation
   IWAVPR =     11    prediction:  0-non 1-charg 2-wave 3-comb
   ISYM   =      2    0-nonsym 1-usesym 2-fastsym
   LCORR  =      T    Harris-Foulkes like correction to forces

   POTIM  = 0.5000    time-step for ionic-motion
   TEIN   =    0.0    initial temperature
   TEBEG  =    0.0;   TEEND  =   0.0 temperature during run
   SMASS  =  -3.00    Nose mass-parameter (am)
   estimated Nose-frequenzy (Omega)   =  0.10E-29 period in steps =****** mass=  -0.138E-27a.u.
   SCALEE = 1.0000    scale energy and forces
   NPACO  =    256;   APACO  = 16.0  distance and # of slots for P.C.
   PSTRESS=    0.0 pullay stress

  Mass of Ions in am
   POMASS =  12.01
  Ionic Valenz
   ZVAL   =   4.00
  Atomic Wigner-Seitz radii
   RWIGS  =  -1.00
  virtual crystal weights 
   VCA    =   1.00
   NELECT =       8.0000    total number of electrons
   NUPDOWN=      -1.0000    fix difference up-down

 DOS related values:
   EMIN   =  10.00;   EMAX   =-10.00  energy-range for DOS
   EFERMI =   0.00
   ISMEAR =     0;   SIGMA  =   0.01  broadening in eV -4-tet -1-fermi 0-gaus

 Electronic relaxation 2 (details)
   IALGO  =     38    algorithm
   LDIAG  =      T    sub-space diagonalisation (order eigenvalues)
   LSUBROT=      F    optimize rotation matrix (better conditioning)
   TURBO    =      0    0=normal 1=particle mesh
   IRESTART =      0    0=no restart 2=restart with 2 vectors
   NREBOOT  =      0    no. of reboots
   NMIN     =      0    reboot dimension
   EREF     =   0.00    reference energy to select bands
   IMIX   =      4    mixing-type and parameters
     AMIX     =   0.40;   BMIX     =  1.00
     AMIX_MAG =   1.60;   BMIX_MAG =  1.00
     AMIN     =   0.01
     WC   =   100.;   INIMIX=   1;  MIXPRE=   1;  MAXMIX= -45

 Intra band minimization:
   WEIMIN = 0.0010     energy-eigenvalue tresh-hold
   EBREAK =  0.21E-10  absolut break condition
   DEPER  =   0.30     relativ break condition  

   TIME   =   0.40     timestep for ELM

  volume/ion in A,a.u.               =      52.39       353.53
  Fermi-wavevector in a.u.,A,eV,Ry     =   0.694521  1.312454  6.562896  0.482359
  Thomas-Fermi vector in A             =   1.777037
 
 Write flags
   LWAVE        =      F    write WAVECAR
   LDOWNSAMPLE  =      F    k-point downsampling of WAVECAR
   LCHARG       =      T    write CHGCAR
   LVTOT        =      F    write LOCPOT, total local potential
   LVHAR        =      F    write LOCPOT, Hartree potential only
   LELF         =      F    write electronic localiz. function (ELF)
   LORBIT       =      0    0 simple, 1 ext, 2 COOP (PROOUT), +10 PAW based schemes


 Dipole corrections
   LMONO  =      F    monopole corrections only (constant potential shift)
   LDIPOL =      F    correct potential (dipole corrections)
   IDIPOL =      0    1-x, 2-y, 3-z, 4-all directions 
   EPSILON=  1.0000000 bulk dielectric constant

 Exchange correlation treatment:
   GGA     =    --    GGA type
   LEXCH   =     8    internal setting for exchange type
   VOSKOWN=      0    Vosko Wilk Nusair interpolation
   LHFCALC =     F    Hartree Fock is set to
   LHFONE  =     F    Hartree Fock one center treatment
   AEXX    =    0.0000 exact exchange contribution

 Linear response parameters
   LEPSILON=     F    determine dielectric tensor
   LRPA    =     F    only Hartree local field effects (RPA)
   LNABLA  =     F    use nabla operator in PAW spheres
   LVEL    =     F    velocity operator in full k-point grid
   LINTERFAST=   F  fast interpolation
   KINTER  =     0    interpolate to denser k-point grid
   CSHIFT  =0.1000    complex shift for real part using Kramers Kronig
   OMEGAMAX=  -1.0    maximum frequency
   DEG_THRESHOLD= 0.2000000E-02 threshold for treating states as degnerate
   RTIME   =   -0.100 relaxation time in fs
  (WPLASMAI=    0.000 imaginary part of plasma frequency in eV, 0.658/RTIME)
   DFIELD  = 0.0000000 0.0000000 0.0000000 field for delta impulse in time
 
 Orbital magnetization related:
   ORBITALMAG=     F  switch on orbital magnetization
   LCHIMAG   =     F  perturbation theory with respect to B field
   DQ        =  0.001000  dq finite difference perturbation B field
   LLRAUG    =     F  two centre corrections for induced B field



--------------------------------------------------------------------------------------------------------


 conjugate gradient relaxation of ions
 charge density and potential will be updated during run
 non-spin polarized calculation
 Variant of blocked Davidson
 Davidson routine will perform the subspace rotation
 perform sub-space diagonalisation
    after iterative eigenvector-optimisation
 modified Broyden-mixing scheme, WC =      100.0
 initial mixing is a Kerker type mixing with AMIX =  0.4000 and BMIX =      1.0000
 Hartree-type preconditioning will be used
 using additional bands            8
 reciprocal scheme for non local part
 calculate Harris-corrections to forces 
   (improved forces if not selfconsistent)
 use gradient corrections 
 use of overlap-Matrix (Vanderbilt PP)
 Gauss-broadening in eV      SIGMA  =   0.01


--------------------------------------------------------------------------------------------------------


  energy-cutoff  :      800.00
  volume of cell :      104.78
      direct lattice vectors                 reciprocal lattice vectors
     2.130000000 -1.229756000  0.000000000     0.234741784 -0.406584721  0.000000000
     2.130000000  1.229756000  0.000000000     0.234741784  0.406584721  0.000000000
     0.000000000  0.000000000 20.000000000     0.000000000  0.000000000  0.050000000

  length of vectors
     2.459512110  2.459512110 20.000000000     0.469483589  0.469483589  0.050000000


 
 k-points in units of 2pi/SCALE and weight: C-2                                     
   0.00000000  0.00000000  0.00000000       0.002
   0.01117818 -0.01936118  0.00000000       0.014
   0.02235636 -0.03872235  0.00000000       0.014
   0.03353454 -0.05808353  0.00000000       0.014
   0.04471272 -0.07744471  0.00000000       0.014
   0.05589090 -0.09680589  0.00000000       0.014
   0.06706908 -0.11616706  0.00000000       0.014
   0.07824726 -0.13552824  0.00000000       0.014
   0.08942544 -0.15488942  0.00000000       0.014
   0.10060362 -0.17425059  0.00000000       0.014
   0.11178180 -0.19361177  0.00000000       0.014
   0.03353454 -0.01936118  0.00000000       0.014
   0.04471272 -0.03872235  0.00000000       0.027
   0.05589090 -0.05808353  0.00000000       0.027
   0.06706908 -0.07744471  0.00000000       0.027
   0.07824726 -0.09680589  0.00000000       0.027
   0.08942544 -0.11616706  0.00000000       0.027
   0.10060362 -0.13552824  0.00000000       0.027
   0.11178180 -0.15488942  0.00000000       0.027
   0.12295998 -0.17425059  0.00000000       0.027
  -0.10060362  0.21297295  0.00000000       0.014
   0.06706908 -0.03872235  0.00000000       0.014
   0.07824726 -0.05808353  0.00000000       0.027
   0.08942544 -0.07744471  0.00000000       0.027
   0.10060362 -0.09680589  0.00000000       0.027
   0.11178180 -0.11616706  0.00000000       0.027
   0.12295998 -0.13552824  0.00000000       0.027
   0.13413816 -0.15488942  0.00000000       0.027
  -0.08942544  0.23233413  0.00000000       0.027
   0.10060362 -0.05808353  0.00000000       0.014
   0.11178180 -0.07744471  0.00000000       0.027
   0.12295998 -0.09680589  0.00000000       0.027
   0.13413816 -0.11616706  0.00000000       0.027
   0.14531634 -0.13552824  0.00000000       0.027
  -0.07824726  0.25169530  0.00000000       0.027
  -0.06706908  0.23233413  0.00000000       0.014
   0.13413816 -0.07744471  0.00000000       0.014
   0.14531634 -0.09680589  0.00000000       0.027
   0.15649452 -0.11616706  0.00000000       0.027
  -0.06706908  0.27105648  0.00000000       0.027
  -0.05589090  0.25169530  0.00000000       0.027
   0.16767270 -0.09680589  0.00000000       0.014
  -0.05589090  0.29041766  0.00000000       0.027
  -0.04471272  0.27105648  0.00000000       0.027
  -0.03353454  0.25169530  0.00000000       0.014
  -0.03353454  0.29041766  0.00000000       0.014
  -0.02235636  0.27105648  0.00000000       0.027
   0.00000000  0.27105648  0.00000000       0.005
 
 k-points in reciprocal lattice and weights: C-2                                     
   0.00000000  0.00000000  0.00000000       0.002
   0.04761905  0.00000000  0.00000000       0.014
   0.09523810  0.00000000  0.00000000       0.014
   0.14285714  0.00000000  0.00000000       0.014
   0.19047619  0.00000000  0.00000000       0.014
   0.23809524  0.00000000  0.00000000       0.014
   0.28571429  0.00000000  0.00000000       0.014
   0.33333333  0.00000000  0.00000000       0.014
   0.38095238  0.00000000  0.00000000       0.014
   0.42857143  0.00000000  0.00000000       0.014
   0.47619048  0.00000000  0.00000000       0.014
   0.09523810  0.04761905  0.00000000       0.014
   0.14285714  0.04761905  0.00000000       0.027
   0.19047619  0.04761905  0.00000000       0.027
   0.23809524  0.04761905  0.00000000       0.027
   0.28571429  0.04761905  0.00000000       0.027
   0.33333333  0.04761905  0.00000000       0.027
   0.38095238  0.04761905  0.00000000       0.027
   0.42857143  0.04761905  0.00000000       0.027
   0.47619048  0.04761905  0.00000000       0.027
  -0.47619048  0.04761905  0.00000000       0.014
   0.19047619  0.09523810  0.00000000       0.014
   0.23809524  0.09523810  0.00000000       0.027
   0.28571429  0.09523810  0.00000000       0.027
   0.33333333  0.09523810  0.00000000       0.027
   0.38095238  0.09523810  0.00000000       0.027
   0.42857143  0.09523810  0.00000000       0.027
   0.47619048  0.09523810  0.00000000       0.027
  -0.47619048  0.09523810  0.00000000       0.027
   0.28571429  0.14285714  0.00000000       0.014
   0.33333333  0.14285714  0.00000000       0.027
   0.38095238  0.14285714  0.00000000       0.027
   0.42857143  0.14285714  0.00000000       0.027
   0.47619048  0.14285714  0.00000000       0.027
  -0.47619048  0.14285714  0.00000000       0.027
  -0.42857143  0.14285714  0.00000000       0.014
   0.38095238  0.19047619  0.00000000       0.014
   0.42857143  0.19047619  0.00000000       0.027
   0.47619048  0.19047619  0.00000000       0.027
  -0.47619048  0.19047619  0.00000000       0.027
  -0.42857143  0.19047619  0.00000000       0.027
   0.47619048  0.23809524  0.00000000       0.014
  -0.47619048  0.23809524  0.00000000       0.027
  -0.42857143  0.23809524  0.00000000       0.027
  -0.38095238  0.23809524  0.00000000       0.014
  -0.42857143  0.28571429  0.00000000       0.014
  -0.38095238  0.28571429  0.00000000       0.027
  -0.33333333  0.33333333  0.00000000       0.005
 
 position of ions in fractional coordinates (direct lattice) 
   0.00000000  0.00000000  0.00000000
   0.33333300  0.33333300  0.00000000
 
 position of ions in cartesian coordinates  (Angst):
   0.00000000  0.00000000  0.00000000
   1.41999858  0.00000000  0.00000000
 


--------------------------------------------------------------------------------------------------------


 k-point  1 :   0.0000 0.0000 0.0000  plane waves:    5409
 k-point  2 :   0.0476 0.0000 0.0000  plane waves:    5413
 k-point  3 :   0.0952 0.0000 0.0000  plane waves:    5402
 k-point  4 :   0.1429 0.0000 0.0000  plane waves:    5398
 k-point  5 :   0.1905 0.0000 0.0000  plane waves:    5404
 k-point  6 :   0.2381 0.0000 0.0000  plane waves:    5408
 k-point  7 :   0.2857 0.0000 0.0000  plane waves:    5404
 k-point  8 :   0.3333 0.0000 0.0000  plane waves:    5394
 k-point  9 :   0.3810 0.0000 0.0000  plane waves:    5382
 k-point 10 :   0.4286 0.0000 0.0000  plane waves:    5396
 k-point 11 :   0.4762 0.0000 0.0000  plane waves:    5380
 k-point 12 :   0.0952 0.0476 0.0000  plane waves:    5411
 k-point 13 :   0.1429 0.0476 0.0000  plane waves:    5415
 k-point 14 :   0.1905 0.0476 0.0000  plane waves:    5413
 k-point 15 :   0.2381 0.0476 0.0000  plane waves:    5399
 k-point 16 :   0.2857 0.0476 0.0000  plane waves:    5396
 k-point 17 :   0.3333 0.0476 0.0000  plane waves:    5389
 k-point 18 :   0.3810 0.0476 0.0000  plane waves:    5378
 k-point 19 :   0.4286 0.0476 0.0000  plane waves:    5381
 k-point 20 :   0.4762 0.0476 0.0000  plane waves:    5391
 k-point 21 :  -0.4762 0.0476 0.0000  plane waves:    5394
 k-point 22 :   0.1905 0.0952 0.0000  plane waves:    5403
 k-point 23 :   0.2381 0.0952 0.0000  plane waves:    5409
 k-point 24 :   0.2857 0.0952 0.0000  plane waves:    5419
 k-point 25 :   0.3333 0.0952 0.0000  plane waves:    5384
 k-point 26 :   0.3810 0.0952 0.0000  plane waves:    5369
 k-point 27 :   0.4286 0.0952 0.0000  plane waves:    5364
 k-point 28 :   0.4762 0.0952 0.0000  plane waves:    5382
 k-point 29 :  -0.4762 0.0952 0.0000  plane waves:    5404
 k-point 30 :   0.2857 0.1429 0.0000  plane waves:    5405
 k-point 31 :   0.3333 0.1429 0.0000  plane waves:    5404
 k-point 32 :   0.3810 0.1429 0.0000  plane waves:    5382
 k-point 33 :   0.4286 0.1429 0.0000  plane waves:    5347
 k-point 34 :   0.4762 0.1429 0.0000  plane waves:    5367
 k-point 35 :  -0.4762 0.1429 0.0000  plane waves:    5376
 k-point 36 :  -0.4286 0.1429 0.0000  plane waves:    5400
 k-point 37 :   0.3810 0.1905 0.0000  plane waves:    5390
 k-point 38 :   0.4286 0.1905 0.0000  plane waves:    5358
 k-point 39 :   0.4762 0.1905 0.0000  plane waves:    5365
 k-point 40 :  -0.4762 0.1905 0.0000  plane waves:    5363
 k-point 41 :  -0.4286 0.1905 0.0000  plane waves:    5377
 k-point 42 :   0.4762 0.2381 0.0000  plane waves:    5364
 k-point 43 :  -0.4762 0.2381 0.0000  plane waves:    5368
 k-point 44 :  -0.4286 0.2381 0.0000  plane waves:    5360
 k-point 45 :  -0.3810 0.2381 0.0000  plane waves:    5366
 k-point 46 :  -0.4286 0.2857 0.0000  plane waves:    5362
 k-point 47 :  -0.3810 0.2857 0.0000  plane waves:    5326
 k-point 48 :  -0.3333 0.3333 0.0000  plane waves:    5334

 maximum and minimum number of plane-waves per node :       928      874

 maximum number of plane-waves:      5419
 maximum index in each direction: 
   IXMAX=    6   IYMAX=    5   IZMAX=   46
   IXMIN=   -6   IYMIN=   -5   IZMIN=  -46


 parallel 3D FFT for wavefunctions:
    minimum data exchange during FFTs selected (reduces bandwidth)
 parallel 3D FFT for charge:
    minimum data exchange during FFTs selected (reduces bandwidth)


 total amount of memory used by VASP MPI-rank0    41299. kBytes
=======================================================================

   base      :      30000. kBytes
   nonl-proj :       2793. kBytes
   fftplans  :       4589. kBytes
   grid      :       2514. kBytes
   one-center:          3. kBytes
   wavefun   :       1400. kBytes
 
     INWAV:  cpu time    0.0000: real time    0.0000
 Broyden mixing: mesh for mixing (old mesh)
   NGX = 11   NGY = 11   NGZ = 93
  (NGX  = 48   NGY  = 48   NGZ  =384)
  gives a total of  11253 points

 initial charge density was supplied:
 charge density of overlapping atoms calculated
 number of electron       8.0000000 magnetization 
 keeping initial charge density in first step


--------------------------------------------------------------------------------------------------------


 Maximum index for augmentation-charges         3260 (set IRDMAX)


--------------------------------------------------------------------------------------------------------


 First call to EWALD:  gamma=   0.376
 Maximum number of real-space cells 5x 5x 1
 Maximum number of reciprocal cells 2x 2x10

    FEWALD:  cpu time    0.0011: real time    0.0011


--------------------------------------- Iteration      1(   1)  ---------------------------------------


    POTLOK:  cpu time    0.0203: real time    0.0381
    SETDIJ:  cpu time    0.0115: real time    0.0116
     EDDAV:  cpu time    0.1883: real time    0.1888
       DOS:  cpu time    0.0004: real time    0.0004
    --------------------------------------------
      LOOP:  cpu time    0.2205: real time    0.2389

 eigenvalue-minimisations  :  1152
 total energy-change (2. order) : 0.4418066E+02  (-0.3819088E+03)
 number of electron       8.0000000 magnetization 
 augmentation part        8.0000000 magnetization 

 Free energy of the ion-electron system (eV)
  ---------------------------------------------------
  alpha Z        PSCENC =         3.11066570
  Ewald energy   TEWEN  =      1303.03316907
  -Hartree energ DENC   =     -1515.21333444
  -exchange      EXHF   =         0.00000000
  -V(xc)+E(xc)   XCENC  =        27.59068089
  PAW double counting   =        75.66288619      -77.96384553
  entropy T*S    EENTRO =        -0.00012010
  eigenvalues    EBANDS =       -66.34828439
  atomic energy  EATOM  =       294.30884690
  Solvation  Ediel_sol  =         0.00000000
  ---------------------------------------------------
  free energy    TOTEN  =        44.18066429 eV

  energy without entropy =       44.18078439  energy(sigma->0) =       44.18072434


--------------------------------------------------------------------------------------------------------




--------------------------------------- Iteration      1(   2)  ---------------------------------------


     EDDAV:  cpu time    0.2208: real time    0.2239
       DOS:  cpu time    0.0002: real time    0.0002
    --------------------------------------------
      LOOP:  cpu time    0.2210: real time    0.2241

 eigenvalue-minimisations  :  1404
 total energy-change (2. order) :-0.6084086E+02  (-0.5043565E+02)
 number of electron       8.0000000 magnetization 
 augmentation part        8.0000000 magnetization 

 Free energy of the ion-electron system (eV)
  ---------------------------------------------------
  alpha Z        PSCENC =         3.11066570
  Ewald energy   TEWEN  =      1303.03316907
  -Hartree energ DENC   =     -1515.21333444
  -exchange      EXHF   =         0.00000000
  -V(xc)+E(xc)   XCENC  =        27.59068089
  PAW double counting   =        75.66288619      -77.96384553
  entropy T*S    EENTRO =        -0.00000000
  eigenvalues    EBANDS =      -127.18926131
  atomic energy  EATOM  =       294.30884690
  Solvation  Ediel_sol  =         0.00000000
  ---------------------------------------------------
  free energy    TOTEN  =       -16.66019253 eV

  energy without entropy =      -16.66019253  energy(sigma->0) =      -16.66019253


--------------------------------------------------------------------------------------------------------




--------------------------------------- Iteration      1(   3)  ---------------------------------------


     EDDAV:  cpu time    0.2643: real time    0.2650
       DOS:  cpu time    0.0003: real time    0.0003
    --------------------------------------------
      LOOP:  cpu time    0.2646: real time    0.2654

 eigenvalue-minimisations  :  1680
 total energy-change (2. order) :-0.3090220E+01  (-0.3090170E+01)
 number of electron       8.0000000 magnetization 
 augmentation part        8.0000000 magnetization 

 Free energy of the ion-electron system (eV)
  ---------------------------------------------------
  alpha Z        PSCENC =         3.11066570
  Ewald energy   TEWEN  =      1303.03316907
  -Hartree energ DENC   =     -1515.21333444
  -exchange      EXHF   =         0.00000000
  -V(xc)+E(xc)   XCENC  =        27.59068089
  PAW double counting   =        75.66288619      -77.96384553
  entropy T*S    EENTRO =        -0.00005117
  eigenvalues    EBANDS =      -130.27943058
  atomic energy  EATOM  =       294.30884690
  Solvation  Ediel_sol  =         0.00000000
  ---------------------------------------------------
  free energy    TOTEN  =       -19.75041297 eV

  energy without entropy =      -19.75036180  energy(sigma->0) =      -19.75038739


--------------------------------------------------------------------------------------------------------




--------------------------------------- Iteration      1(   4)  ---------------------------------------


     EDDAV:  cpu time    0.2763: real time    0.2770
       DOS:  cpu time    0.0003: real time    0.0003
    --------------------------------------------
      LOOP:  cpu time    0.2766: real time    0.2774

 eigenvalue-minimisations  :  1740
 total energy-change (2. order) :-0.1782182E-01  (-0.1782182E-01)
 number of electron       8.0000000 magnetization 
 augmentation part        8.0000000 magnetization 

 Free energy of the ion-electron system (eV)
  ---------------------------------------------------
  alpha Z        PSCENC =         3.11066570
  Ewald energy   TEWEN  =      1303.03316907
  -Hartree energ DENC   =     -1515.21333444
  -exchange      EXHF   =         0.00000000
  -V(xc)+E(xc)   XCENC  =        27.59068089
  PAW double counting   =        75.66288619      -77.96384553
  entropy T*S    EENTRO =        -0.00005117
  eigenvalues    EBANDS =      -130.29725240
  atomic energy  EATOM  =       294.30884690
  Solvation  Ediel_sol  =         0.00000000
  ---------------------------------------------------
  free energy    TOTEN  =       -19.76823480 eV

  energy without entropy =      -19.76818362  energy(sigma->0) =      -19.76820921


--------------------------------------------------------------------------------------------------------




--------------------------------------- Iteration      1(   5)  ---------------------------------------


     EDDAV:  cpu time    0.2756: real time    0.2763
       DOS:  cpu time    0.0003: real time    0.0003
    CHARGE:  cpu time    0.0251: real time    0.0252
    MIXING:  cpu time    0.0009: real time    0.0009
    --------------------------------------------
      LOOP:  cpu time    0.3019: real time    0.3029

 eigenvalue-minimisations  :  1608
 total energy-change (2. order) :-0.2040865E-04  (-0.2040864E-04)
 number of electron       8.0000000 magnetization 
 augmentation part        0.2146002 magnetization 

 Broyden mixing:
  rms(total) = 0.55832E+00    rms(broyden)= 0.55832E+00
  rms(prec ) = 0.60856E+00
  weight for this iteration     100.00

 Free energy of the ion-electron system (eV)
  ---------------------------------------------------
  alpha Z        PSCENC =         3.11066570
  Ewald energy   TEWEN  =      1303.03316907
  -Hartree energ DENC   =     -1515.21333444
  -exchange      EXHF   =         0.00000000
  -V(xc)+E(xc)   XCENC  =        27.59068089
  PAW double counting   =        75.66288619      -77.96384553
  entropy T*S    EENTRO =        -0.00005117
  eigenvalues    EBANDS =      -130.29727281
  atomic energy  EATOM  =       294.30884690
  Solvation  Ediel_sol  =         0.00000000
  ---------------------------------------------------
  free energy    TOTEN  =       -19.76825520 eV

  energy without entropy =      -19.76820403  energy(sigma->0) =      -19.76822962


--------------------------------------------------------------------------------------------------------




--------------------------------------- Iteration      1(   6)  ---------------------------------------


    POTLOK:  cpu time    0.0125: real time    0.0140
    SETDIJ:  cpu time    0.0080: real time    0.0080
     EDDAV:  cpu time    0.2549: real time    0.2555
       DOS:  cpu time    0.0003: real time    0.0003
    CHARGE:  cpu time    0.0239: real time    0.0239
    MIXING:  cpu time    0.0007: real time    0.0007
    --------------------------------------------
      LOOP:  cpu time    0.3004: real time    0.3025

 eigenvalue-minimisations  :  1596
 total energy-change (2. order) : 0.9356386E+00  (-0.9175418E-01)
 number of electron       8.0000000 magnetization 
 augmentation part        0.2043564 magnetization 

 Broyden mixing:
  rms(total) = 0.29328E+00    rms(broyden)= 0.29328E+00
  rms(prec ) = 0.32124E+00
  weight for this iteration     100.00

 eigenvalues of (default mixing * dielectric matrix)
  average eigenvalue GAMMA=   2.0363
  2.0363

 Free energy of the ion-electron system (eV)
  ---------------------------------------------------
  alpha Z        PSCENC =         3.11066570
  Ewald energy   TEWEN  =      1303.03316907
  -Hartree energ DENC   =     -1525.88637063
  -exchange      EXHF   =         0.00000000
  -V(xc)+E(xc)   XCENC  =        28.09179630
  PAW double counting   =       103.21367758     -105.69998240
  entropy T*S    EENTRO =        -0.00005117
  eigenvalues    EBANDS =      -119.00436800
  atomic energy  EATOM  =       294.30884690
  Solvation  Ediel_sol  =         0.00000000
  ---------------------------------------------------
  free energy    TOTEN  =       -18.83261664 eV

  energy without entropy =      -18.83256546  energy(sigma->0) =      -18.83259105


--------------------------------------------------------------------------------------------------------




--------------------------------------- Iteration      1(   7)  ---------------------------------------


    POTLOK:  cpu time    0.0125: real time    0.0126
    SETDIJ:  cpu time    0.0078: real time    0.0078
     EDDAV:  cpu time    0.2661: real time    0.2668
       DOS:  cpu time    0.0003: real time    0.0003
    CHARGE:  cpu time    0.0235: real time    0.0235
    MIXING:  cpu time    0.0006: real time    0.0006
    --------------------------------------------
      LOOP:  cpu time    0.3108: real time    0.3116

 eigenvalue-minimisations  :  1668
 total energy-change (2. order) : 0.3585304E+00  (-0.1052176E+00)
 number of electron       8.0000000 magnetization 
 augmentation part        0.1935004 magnetization 

 Broyden mixing:
  rms(total) = 0.50535E-01    rms(broyden)= 0.50533E-01
  rms(prec ) = 0.58621E-01
  weight for this iteration     100.00

 eigenvalues of (default mixing * dielectric matrix)
  average eigenvalue GAMMA=   2.2407
  2.0962  2.3852

 Free energy of the ion-electron system (eV)
  ---------------------------------------------------
  alpha Z        PSCENC =         3.11066570
  Ewald energy   TEWEN  =      1303.03316907
  -Hartree energ DENC   =     -1539.20505024
  -exchange      EXHF   =         0.00000000
  -V(xc)+E(xc)   XCENC  =        28.70940991
  PAW double counting   =       138.28789842     -140.92710767
  entropy T*S    EENTRO =        -0.00005117
  eigenvalues    EBANDS =      -105.79186717
  atomic energy  EATOM  =       294.30884690
  Solvation  Ediel_sol  =         0.00000000
  ---------------------------------------------------
  free energy    TOTEN  =       -18.47408624 eV

  energy without entropy =      -18.47403507  energy(sigma->0) =      -18.47406066


--------------------------------------------------------------------------------------------------------




--------------------------------------- Iteration      1(   8)  ---------------------------------------


    POTLOK:  cpu time    0.0125: real time    0.0126
    SETDIJ:  cpu time    0.0077: real time    0.0077
     EDDAV:  cpu time    0.2602: real time    0.2608
       DOS:  cpu time    0.0004: real time    0.0004
    CHARGE:  cpu time    0.0235: real time    0.0236
    MIXING:  cpu time    0.0006: real time    0.0006
    --------------------------------------------
      LOOP:  cpu time    0.3049: real time    0.3057

 eigenvalue-minimisations  :  1620
 total energy-change (2. order) : 0.1088162E-01  (-0.8949920E-03)
 number of electron       8.0000000 magnetization 
 augmentation part        0.1931709 magnetization 

 Broyden mixing:
  rms(total) = 0.85798E-02    rms(broyden)= 0.85793E-02
  rms(prec ) = 0.20084E-01
  weight for this iteration     100.00

 eigenvalues of (default mixing * dielectric matrix)
  average eigenvalue GAMMA=   2.0241
  1.3379  2.6906  2.0438

 Free energy of the ion-electron system (eV)
  ---------------------------------------------------
  alpha Z        PSCENC =         3.11066570
  Ewald energy   TEWEN  =      1303.03316907
  -Hartree energ DENC   =     -1541.96671681
  -exchange      EXHF   =         0.00000000
  -V(xc)+E(xc)   XCENC  =        28.75895237
  PAW double counting   =       140.41933740     -143.00197993
  entropy T*S    EENTRO =        -0.00005117
  eigenvalues    EBANDS =      -103.12542815
  atomic energy  EATOM  =       294.30884690
  Solvation  Ediel_sol  =         0.00000000
  ---------------------------------------------------
  free energy    TOTEN  =       -18.46320462 eV

  energy without entropy =      -18.46315345  energy(sigma->0) =      -18.46317904


--------------------------------------------------------------------------------------------------------




--------------------------------------- Iteration      1(   9)  ---------------------------------------


    POTLOK:  cpu time    0.0125: real time    0.0127
    SETDIJ:  cpu time    0.0077: real time    0.0077
     EDDAV:  cpu time    0.2443: real time    0.2449
       DOS:  cpu time    0.0003: real time    0.0003
    CHARGE:  cpu time    0.0236: real time    0.0237
    MIXING:  cpu time    0.0005: real time    0.0005
    --------------------------------------------
      LOOP:  cpu time    0.2891: real time    0.2899

 eigenvalue-minimisations  :  1524
 total energy-change (2. order) : 0.2508932E-02  (-0.1171084E-03)
 number of electron       8.0000000 magnetization 
 augmentation part        0.1929083 magnetization 

 Broyden mixing:
  rms(total) = 0.66322E-02    rms(broyden)= 0.66321E-02
  rms(prec ) = 0.16323E-01
  weight for this iteration     100.00

 eigenvalues of (default mixing * dielectric matrix)
  average eigenvalue GAMMA=   2.2735
  3.6573  0.9620  2.4851  1.9894

 Free energy of the ion-electron system (eV)
  ---------------------------------------------------
  alpha Z        PSCENC =         3.11066570
  Ewald energy   TEWEN  =      1303.03316907
  -Hartree energ DENC   =     -1543.23100407
  -exchange      EXHF   =         0.00000000
  -V(xc)+E(xc)   XCENC  =        28.78195687
  PAW double counting   =       140.68839281     -143.26839999
  entropy T*S    EENTRO =        -0.00005117
  eigenvalues    EBANDS =      -101.88427182
  atomic energy  EATOM  =       294.30884690
  Solvation  Ediel_sol  =         0.00000000
  ---------------------------------------------------
  free energy    TOTEN  =       -18.46069569 eV

  energy without entropy =      -18.46064452  energy(sigma->0) =      -18.46067010


--------------------------------------------------------------------------------------------------------




--------------------------------------- Iteration      1(  10)  ---------------------------------------


    POTLOK:  cpu time    0.0121: real time    0.0123
    SETDIJ:  cpu time    0.0077: real time    0.0077
     EDDAV:  cpu time    0.2324: real time    0.2330
       DOS:  cpu time    0.0003: real time    0.0003
    CHARGE:  cpu time    0.0236: real time    0.0237
    MIXING:  cpu time    0.0006: real time    0.0006
    --------------------------------------------
      LOOP:  cpu time    0.2768: real time    0.2776

 eigenvalue-minimisations  :  1440
 total energy-change (2. order) : 0.4722521E-02  (-0.2744018E-03)
 number of electron       8.0000000 magnetization 
 augmentation part        0.1926095 magnetization 

 Broyden mixing:
  rms(total) = 0.34750E-02    rms(broyden)= 0.34749E-02
  rms(prec ) = 0.10123E-01
  weight for this iteration     100.00

 eigenvalues of (default mixing * dielectric matrix)
  average eigenvalue GAMMA=   2.6162
  5.2465  0.9815  2.6653  1.9992  2.1885

 Free energy of the ion-electron system (eV)
  ---------------------------------------------------
  alpha Z        PSCENC =         3.11066570
  Ewald energy   TEWEN  =      1303.03316907
  -Hartree energ DENC   =     -1545.97752469
  -exchange      EXHF   =         0.00000000
  -V(xc)+E(xc)   XCENC  =        28.81400099
  PAW double counting   =       139.82274000     -142.40533806
  entropy T*S    EENTRO =        -0.00005117
  eigenvalues    EBANDS =       -99.16248192
  atomic energy  EATOM  =       294.30884690
  Solvation  Ediel_sol  =         0.00000000
  ---------------------------------------------------
  free energy    TOTEN  =       -18.45597317 eV

  energy without entropy =      -18.45592200  energy(sigma->0) =      -18.45594758


--------------------------------------------------------------------------------------------------------




--------------------------------------- Iteration      1(  11)  ---------------------------------------


    POTLOK:  cpu time    0.0117: real time    0.0118
    SETDIJ:  cpu time    0.0077: real time    0.0077
     EDDAV:  cpu time    0.2148: real time    0.2153
       DOS:  cpu time    0.0007: real time    0.0007
    CHARGE:  cpu time    0.0244: real time    0.0244
    MIXING:  cpu time    0.0018: real time    0.0018
    --------------------------------------------
      LOOP:  cpu time    0.2610: real time    0.2617

 eigenvalue-minimisations  :  1296
 total energy-change (2. order) : 0.3245357E-03  (-0.3969220E-04)
 number of electron       8.0000000 magnetization 
 augmentation part        0.1925162 magnetization 

 Broyden mixing:
  rms(total) = 0.23300E-02    rms(broyden)= 0.23300E-02
  rms(prec ) = 0.74459E-02
  weight for this iteration     100.00

 eigenvalues of (default mixing * dielectric matrix)
  average eigenvalue GAMMA=   2.6971
  6.0056  3.4637  2.5547  1.9954  0.9737  1.1898

 Free energy of the ion-electron system (eV)
  ---------------------------------------------------
  alpha Z        PSCENC =         3.11066570
  Ewald energy   TEWEN  =      1303.03316907
  -Hartree energ DENC   =     -1547.51779888
  -exchange      EXHF   =         0.00000000
  -V(xc)+E(xc)   XCENC  =        28.82046067
  PAW double counting   =       139.88601057     -142.46698476
  entropy T*S    EENTRO =        -0.00005117
  eigenvalues    EBANDS =       -97.62996674
  atomic energy  EATOM  =       294.30884690
  Solvation  Ediel_sol  =         0.00000000
  ---------------------------------------------------
  free energy    TOTEN  =       -18.45564863 eV

  energy without entropy =      -18.45559746  energy(sigma->0) =      -18.45562305


--------------------------------------------------------------------------------------------------------




--------------------------------------- Iteration      1(  12)  ---------------------------------------


    POTLOK:  cpu time    0.0126: real time    0.0142
    SETDIJ:  cpu time    0.0084: real time    0.0084
     EDDAV:  cpu time    0.2106: real time    0.2111
       DOS:  cpu time    0.0004: real time    0.0004
    CHARGE:  cpu time    0.0244: real time    0.0244
    MIXING:  cpu time    0.0007: real time    0.0007
    --------------------------------------------
      LOOP:  cpu time    0.2570: real time    0.2591

 eigenvalue-minimisations  :  1248
 total energy-change (2. order) :-0.1228594E-02  (-0.4823773E-04)
 number of electron       8.0000000 magnetization 
 augmentation part        0.1925293 magnetization 

 Broyden mixing:
  rms(total) = 0.21415E-02    rms(broyden)= 0.21415E-02
  rms(prec ) = 0.59721E-02
  weight for this iteration     100.00

 eigenvalues of (default mixing * dielectric matrix)
  average eigenvalue GAMMA=   3.1400
  8.3244  4.3324  2.8466  2.4814  1.9852  0.9899  1.0204

 Free energy of the ion-electron system (eV)
  ---------------------------------------------------
  alpha Z        PSCENC =         3.11066570
  Ewald energy   TEWEN  =      1303.03316907
  -Hartree energ DENC   =     -1547.90397526
  -exchange      EXHF   =         0.00000000
  -V(xc)+E(xc)   XCENC  =        28.81253747
  PAW double counting   =       140.09430483     -142.67438046
  entropy T*S    EENTRO =        -0.00005117
  eigenvalues    EBANDS =       -97.23799432
  atomic energy  EATOM  =       294.30884690
  Solvation  Ediel_sol  =         0.00000000
  ---------------------------------------------------
  free energy    TOTEN  =       -18.45687723 eV

  energy without entropy =      -18.45682605  energy(sigma->0) =      -18.45685164


--------------------------------------------------------------------------------------------------------




--------------------------------------- Iteration      1(  13)  ---------------------------------------


    POTLOK:  cpu time    0.0112: real time    0.0117
    SETDIJ:  cpu time    0.0077: real time    0.0077
     EDDAV:  cpu time    0.2265: real time    0.2271
       DOS:  cpu time    0.0004: real time    0.0004
    CHARGE:  cpu time    0.0235: real time    0.0236
    MIXING:  cpu time    0.0006: real time    0.0006
    --------------------------------------------
      LOOP:  cpu time    0.2700: real time    0.2710

 eigenvalue-minimisations  :  1392
 total energy-change (2. order) :-0.1182587E-03  (-0.3513702E-04)
 number of electron       8.0000000 magnetization 
 augmentation part        0.1924964 magnetization 

 Broyden mixing:
  rms(total) = 0.15588E-02    rms(broyden)= 0.15588E-02
  rms(prec ) = 0.38424E-02
  weight for this iteration     100.00

 eigenvalues of (default mixing * dielectric matrix)
  average eigenvalue GAMMA=   3.4072
  9.4893  5.2611  0.9883  1.0091  1.9756  3.0394  3.0394  2.4556

 Free energy of the ion-electron system (eV)
  ---------------------------------------------------
  alpha Z        PSCENC =         3.11066570
  Ewald energy   TEWEN  =      1303.03316907
  -Hartree energ DENC   =     -1549.05450227
  -exchange      EXHF   =         0.00000000
  -V(xc)+E(xc)   XCENC  =        28.81730803
  PAW double counting   =       139.88840677     -142.46906799
  entropy T*S    EENTRO =        -0.00005117
  eigenvalues    EBANDS =       -96.09177054
  atomic energy  EATOM  =       294.30884690
  Solvation  Ediel_sol  =         0.00000000
  ---------------------------------------------------
  free energy    TOTEN  =       -18.45699549 eV

  energy without entropy =      -18.45694431  energy(sigma->0) =      -18.45696990


--------------------------------------------------------------------------------------------------------




--------------------------------------- Iteration      1(  14)  ---------------------------------------


    POTLOK:  cpu time    0.0111: real time    0.0113
    SETDIJ:  cpu time    0.0077: real time    0.0077
     EDDAV:  cpu time    0.1962: real time    0.1967
       DOS:  cpu time    0.0004: real time    0.0004
    CHARGE:  cpu time    0.0234: real time    0.0235
    MIXING:  cpu time    0.0006: real time    0.0006
    --------------------------------------------
      LOOP:  cpu time    0.2394: real time    0.2401

 eigenvalue-minimisations  :  1200
 total energy-change (2. order) :-0.2509951E-03  (-0.1082795E-04)
 number of electron       8.0000000 magnetization 
 augmentation part        0.1924199 magnetization 

 Broyden mixing:
  rms(total) = 0.15608E-02    rms(broyden)= 0.15608E-02
  rms(prec ) = 0.21823E-02
  weight for this iteration     100.00

 eigenvalues of (default mixing * dielectric matrix)
  average eigenvalue GAMMA=   3.4471
 11.2162  5.9788  3.5892  2.7799  2.5059  1.9923  1.0322  0.9646  0.9646

 Free energy of the ion-electron system (eV)
  ---------------------------------------------------
  alpha Z        PSCENC =         3.11066570
  Ewald energy   TEWEN  =      1303.03316907
  -Hartree energ DENC   =     -1549.80884765
  -exchange      EXHF   =         0.00000000
  -V(xc)+E(xc)   XCENC  =        28.82078982
  PAW double counting   =       139.96106351     -142.54336855
  entropy T*S    EENTRO =        -0.00005117
  eigenvalues    EBANDS =       -95.33951412
  atomic energy  EATOM  =       294.30884690
  Solvation  Ediel_sol  =         0.00000000
  ---------------------------------------------------
  free energy    TOTEN  =       -18.45724648 eV

  energy without entropy =      -18.45719531  energy(sigma->0) =      -18.45722090


--------------------------------------------------------------------------------------------------------




--------------------------------------- Iteration      1(  15)  ---------------------------------------


    POTLOK:  cpu time    0.0112: real time    0.0113
    SETDIJ:  cpu time    0.0077: real time    0.0077
     EDDAV:  cpu time    0.2302: real time    0.2307
       DOS:  cpu time    0.0003: real time    0.0003
    CHARGE:  cpu time    0.0237: real time    0.0237
    MIXING:  cpu time    0.0007: real time    0.0007
    --------------------------------------------
      LOOP:  cpu time    0.2737: real time    0.2745

 eigenvalue-minimisations  :  1428
 total energy-change (2. order) :-0.9364784E-04  (-0.2915832E-05)
 number of electron       8.0000000 magnetization 
 augmentation part        0.1924660 magnetization 

 Broyden mixing:
  rms(total) = 0.71827E-03    rms(broyden)= 0.71826E-03
  rms(prec ) = 0.11574E-02
  weight for this iteration     100.00

 eigenvalues of (default mixing * dielectric matrix)
  average eigenvalue GAMMA=   4.6374
 20.5424  7.8358  4.6718  3.0911  2.7657  2.5004  1.9909  1.0168  0.9796  0.9796

 Free energy of the ion-electron system (eV)
  ---------------------------------------------------
  alpha Z        PSCENC =         3.11066570
  Ewald energy   TEWEN  =      1303.03316907
  -Hartree energ DENC   =     -1549.88071993
  -exchange      EXHF   =         0.00000000
  -V(xc)+E(xc)   XCENC  =        28.81763262
  PAW double counting   =       139.91410919     -142.49422682
  entropy T*S    EENTRO =        -0.00005117
  eigenvalues    EBANDS =       -95.26676569
  atomic energy  EATOM  =       294.30884690
  Solvation  Ediel_sol  =         0.00000000
  ---------------------------------------------------
  free energy    TOTEN  =       -18.45734013 eV

  energy without entropy =      -18.45728896  energy(sigma->0) =      -18.45731454


--------------------------------------------------------------------------------------------------------




--------------------------------------- Iteration      1(  16)  ---------------------------------------


    POTLOK:  cpu time    0.0114: real time    0.0115
    SETDIJ:  cpu time    0.0079: real time    0.0079
     EDDAV:  cpu time    0.2134: real time    0.2139
       DOS:  cpu time    0.0004: real time    0.0004
    CHARGE:  cpu time    0.0237: real time    0.0238
    MIXING:  cpu time    0.0009: real time    0.0009
    --------------------------------------------
      LOOP:  cpu time    0.2576: real time    0.2584

 eigenvalue-minimisations  :  1320
 total energy-change (2. order) :-0.2734556E-03  (-0.1824966E-05)
 number of electron       8.0000000 magnetization 
 augmentation part        0.1924646 magnetization 

 Broyden mixing:
  rms(total) = 0.21549E-03    rms(broyden)= 0.21549E-03
  rms(prec ) = 0.27839E-03
  weight for this iteration     100.00

 eigenvalues of (default mixing * dielectric matrix)
  average eigenvalue GAMMA=   4.8229
 24.0302  8.2047  4.5849  3.5029  2.6032  2.6032  1.9900  2.5428  0.9861  0.9861
  1.0176

 Free energy of the ion-electron system (eV)
  ---------------------------------------------------
  alpha Z        PSCENC =         3.11066570
  Ewald energy   TEWEN  =      1303.03316907
  -Hartree energ DENC   =     -1550.03294429
  -exchange      EXHF   =         0.00000000
  -V(xc)+E(xc)   XCENC  =        28.81781073
  PAW double counting   =       139.92089031     -142.50136934
  entropy T*S    EENTRO =        -0.00005117
  eigenvalues    EBANDS =       -95.11463150
  atomic energy  EATOM  =       294.30884690
  Solvation  Ediel_sol  =         0.00000000
  ---------------------------------------------------
  free energy    TOTEN  =       -18.45761359 eV

  energy without entropy =      -18.45756241  energy(sigma->0) =      -18.45758800


--------------------------------------------------------------------------------------------------------




--------------------------------------- Iteration      1(  17)  ---------------------------------------


    POTLOK:  cpu time    0.0113: real time    0.0115
    SETDIJ:  cpu time    0.0077: real time    0.0077
     EDDAV:  cpu time    0.2114: real time    0.2119
       DOS:  cpu time    0.0003: real time    0.0003
    CHARGE:  cpu time    0.0236: real time    0.0236
    MIXING:  cpu time    0.0008: real time    0.0008
    --------------------------------------------
      LOOP:  cpu time    0.2551: real time    0.2559

 eigenvalue-minimisations  :  1308
 total energy-change (2. order) :-0.4522065E-04  (-0.5597372E-07)
 number of electron       8.0000000 magnetization 
 augmentation part        0.1924616 magnetization 

 Broyden mixing:
  rms(total) = 0.10290E-03    rms(broyden)= 0.10290E-03
  rms(prec ) = 0.13476E-03
  weight for this iteration     100.00

 eigenvalues of (default mixing * dielectric matrix)
  average eigenvalue GAMMA=   4.8672
 27.1300  8.4652  5.1654  3.6765  2.9514  2.5642  2.4490  1.9933  0.9915  1.0048
  1.0075  1.0075

 Free energy of the ion-electron system (eV)
  ---------------------------------------------------
  alpha Z        PSCENC =         3.11066570
  Ewald energy   TEWEN  =      1303.03316907
  -Hartree energ DENC   =     -1550.03649529
  -exchange      EXHF   =         0.00000000
  -V(xc)+E(xc)   XCENC  =        28.81784658
  PAW double counting   =       139.92945117     -142.50999731
  entropy T*S    EENTRO =        -0.00005117
  eigenvalues    EBANDS =       -95.11109447
  atomic energy  EATOM  =       294.30884690
  Solvation  Ediel_sol  =         0.00000000
  ---------------------------------------------------
  free energy    TOTEN  =       -18.45765881 eV

  energy without entropy =      -18.45760763  energy(sigma->0) =      -18.45763322


--------------------------------------------------------------------------------------------------------




--------------------------------------- Iteration      1(  18)  ---------------------------------------


    POTLOK:  cpu time    0.0115: real time    0.0117
    SETDIJ:  cpu time    0.0077: real time    0.0077
     EDDAV:  cpu time    0.2077: real time    0.2082
       DOS:  cpu time    0.0003: real time    0.0003
    CHARGE:  cpu time    0.0236: real time    0.0237
    MIXING:  cpu time    0.0008: real time    0.0008
    --------------------------------------------
      LOOP:  cpu time    0.2517: real time    0.2525

 eigenvalue-minimisations  :  1284
 total energy-change (2. order) :-0.2665340E-04  (-0.3821183E-07)
 number of electron       8.0000000 magnetization 
 augmentation part        0.1924606 magnetization 

 Broyden mixing:
  rms(total) = 0.21202E-04    rms(broyden)= 0.21202E-04
  rms(prec ) = 0.26509E-04
  weight for this iteration     100.00

 eigenvalues of (default mixing * dielectric matrix)
  average eigenvalue GAMMA=   4.7694
 27.3341  8.5232  5.1797  4.0317  2.9775  2.9775  1.9933  2.4525  2.5347  0.9977
  0.9977  0.9915  1.0105

 Free energy of the ion-electron system (eV)
  ---------------------------------------------------
  alpha Z        PSCENC =         3.11066570
  Ewald energy   TEWEN  =      1303.03316907
  -Hartree energ DENC   =     -1550.04431848
  -exchange      EXHF   =         0.00000000
  -V(xc)+E(xc)   XCENC  =        28.81794970
  PAW double counting   =       139.92096369     -142.50148886
  entropy T*S    EENTRO =        -0.00005117
  eigenvalues    EBANDS =       -95.10342201
  atomic energy  EATOM  =       294.30884690
  Solvation  Ediel_sol  =         0.00000000
  ---------------------------------------------------
  free energy    TOTEN  =       -18.45768546 eV

  energy without entropy =      -18.45763429  energy(sigma->0) =      -18.45765987


--------------------------------------------------------------------------------------------------------




--------------------------------------- Iteration      1(  19)  ---------------------------------------


    POTLOK:  cpu time    0.0116: real time    0.0118
    SETDIJ:  cpu time    0.0077: real time    0.0077
     EDDAV:  cpu time    0.2124: real time    0.2129
       DOS:  cpu time    0.0003: real time    0.0003
    CHARGE:  cpu time    0.0234: real time    0.0235
    MIXING:  cpu time    0.0008: real time    0.0008
    --------------------------------------------
      LOOP:  cpu time    0.2564: real time    0.2571

 eigenvalue-minimisations  :  1320
 total energy-change (2. order) :-0.3391141E-05  (-0.7557063E-08)
 number of electron       8.0000000 magnetization 
 augmentation part        0.1924611 magnetization 

 Broyden mixing:
  rms(total) = 0.52620E-05    rms(broyden)= 0.52604E-05
  rms(prec ) = 0.61976E-05
  weight for this iteration     100.00

 eigenvalues of (default mixing * dielectric matrix)
  average eigenvalue GAMMA=   4.5330
 27.3359  8.5238  5.1895  3.9895  3.1978  2.7907  2.5403  2.3444  1.9966  1.0128
  0.9957  0.9957  0.9886  1.5608

 Free energy of the ion-electron system (eV)
  ---------------------------------------------------
  alpha Z        PSCENC =         3.11066570
  Ewald energy   TEWEN  =      1303.03316907
  -Hartree energ DENC   =     -1550.04150448
  -exchange      EXHF   =         0.00000000
  -V(xc)+E(xc)   XCENC  =        28.81788060
  PAW double counting   =       139.92187046     -142.50238466
  entropy T*S    EENTRO =        -0.00005117
  eigenvalues    EBANDS =       -95.10618128
  atomic energy  EATOM  =       294.30884690
  Solvation  Ediel_sol  =         0.00000000
  ---------------------------------------------------
  free energy    TOTEN  =       -18.45768885 eV

  energy without entropy =      -18.45763768  energy(sigma->0) =      -18.45766326


--------------------------------------------------------------------------------------------------------




--------------------------------------- Iteration      1(  20)  ---------------------------------------


    POTLOK:  cpu time    0.0116: real time    0.0118
    SETDIJ:  cpu time    0.0078: real time    0.0078
     EDDAV:  cpu time    0.2377: real time    0.2382
       DOS:  cpu time    0.0003: real time    0.0003
    CHARGE:  cpu time    0.0234: real time    0.0235
    MIXING:  cpu time    0.0009: real time    0.0009
    --------------------------------------------
      LOOP:  cpu time    0.2817: real time    0.2825

 eigenvalue-minimisations  :  1488
 total energy-change (2. order) :-0.1145229E-06  (-0.1506928E-09)
 number of electron       8.0000000 magnetization 
 augmentation part        0.1924609 magnetization 

 Broyden mixing:
  rms(total) = 0.13936E-05    rms(broyden)= 0.13874E-05
  rms(prec ) = 0.16225E-05
  weight for this iteration     100.00

 eigenvalues of (default mixing * dielectric matrix)
  average eigenvalue GAMMA=   4.4035
 27.3389  8.5229  5.1967  4.0402  3.3706  1.9938  2.9066  2.7249  2.5241  2.4460
  1.0138  1.0019  1.0019  0.9851  0.9851

 Free energy of the ion-electron system (eV)
  ---------------------------------------------------
  alpha Z        PSCENC =         3.11066570
  Ewald energy   TEWEN  =      1303.03316907
  -Hartree energ DENC   =     -1550.04187763
  -exchange      EXHF   =         0.00000000
  -V(xc)+E(xc)   XCENC  =        28.81789665
  PAW double counting   =       139.92202571     -142.50254610
  entropy T*S    EENTRO =        -0.00005117
  eigenvalues    EBANDS =       -95.10581810
  atomic energy  EATOM  =       294.30884690
  Solvation  Ediel_sol  =         0.00000000
  ---------------------------------------------------
  free energy    TOTEN  =       -18.45768897 eV

  energy without entropy =      -18.45763779  energy(sigma->0) =      -18.45766338


--------------------------------------------------------------------------------------------------------




--------------------------------------- Iteration      1(  21)  ---------------------------------------


    POTLOK:  cpu time    0.0118: real time    0.0119
    SETDIJ:  cpu time    0.0079: real time    0.0079
     EDDAV:  cpu time    0.2029: real time    0.2033
       DOS:  cpu time    0.0003: real time    0.0003
    CHARGE:  cpu time    0.0234: real time    0.0234
    MIXING:  cpu time    0.0009: real time    0.0009
    --------------------------------------------
      LOOP:  cpu time    0.2472: real time    0.2479

 eigenvalue-minimisations  :  1248
 total energy-change (2. order) :-0.6629381E-07  (-0.6516442E-10)
 number of electron       8.0000000 magnetization 
 augmentation part        0.1924609 magnetization 

 Broyden mixing:
  rms(total) = 0.51460E-06    rms(broyden)= 0.49740E-06
  rms(prec ) = 0.53374E-06
  weight for this iteration     100.00

 eigenvalues of (default mixing * dielectric matrix)
  average eigenvalue GAMMA=   4.2109
 27.3387  8.5230  5.1957  4.0454  3.3575  2.9057  2.7492  2.5137  2.4616  1.9940
  0.9925  0.9925  0.9891  1.0133  1.0623  1.2400

 Free energy of the ion-electron system (eV)
  ---------------------------------------------------
  alpha Z        PSCENC =         3.11066570
  Ewald energy   TEWEN  =      1303.03316907
  -Hartree energ DENC   =     -1550.04197510
  -exchange      EXHF   =         0.00000000
  -V(xc)+E(xc)   XCENC  =        28.81789852
  PAW double counting   =       139.92186913     -142.50239044
  entropy T*S    EENTRO =        -0.00005117
  eigenvalues    EBANDS =       -95.10572165
  atomic energy  EATOM  =       294.30884690
  Solvation  Ediel_sol  =         0.00000000
  ---------------------------------------------------
  free energy    TOTEN  =       -18.45768903 eV

  energy without entropy =      -18.45763786  energy(sigma->0) =      -18.45766345


--------------------------------------------------------------------------------------------------------




--------------------------------------- Iteration      1(  22)  ---------------------------------------


    POTLOK:  cpu time    0.0119: real time    0.0121
    SETDIJ:  cpu time    0.0077: real time    0.0077
     EDDAV:  cpu time    0.2307: real time    0.2312
       DOS:  cpu time    0.0003: real time    0.0003
    --------------------------------------------
      LOOP:  cpu time    0.2506: real time    0.2513

 eigenvalue-minimisations  :  1440
 total energy-change (2. order) :-0.8538450E-09  (-0.3962502E-12)
 number of electron       8.0000000 magnetization 
 augmentation part        0.1924609 magnetization 

 Free energy of the ion-electron system (eV)
  ---------------------------------------------------
  alpha Z        PSCENC =         3.11066570
  Ewald energy   TEWEN  =      1303.03316907
  -Hartree energ DENC   =     -1550.04196038
  -exchange      EXHF   =         0.00000000
  -V(xc)+E(xc)   XCENC  =        28.81789765
  PAW double counting   =       139.92183882     -142.50235946
  entropy T*S    EENTRO =        -0.00005117
  eigenvalues    EBANDS =       -95.10573617
  atomic energy  EATOM  =       294.30884690
  Solvation  Ediel_sol  =         0.00000000
  ---------------------------------------------------
  free energy    TOTEN  =       -18.45768903 eV

  energy without entropy =      -18.45763786  energy(sigma->0) =      -18.45766345


--------------------------------------------------------------------------------------------------------




 average (electrostatic) potential at core
  the test charge radii are     0.6991
  (the norm of the test charge is              1.0000)
       1 -58.1429       2 -58.1430
 
 
 
 E-fermi :  -2.7217     XC(G=0):  -2.1526     alpha+bet : -1.9163


 k-point     1 :       0.0000    0.0000    0.0000
  band No.  band energies     occupation 
      1     -22.2970      2.00000
      2     -10.3901      2.00000
      3      -5.7500      2.00000
      4      -5.7499      2.00000
      5       0.5265      0.00000
      6       1.3278      0.00000
      7       1.6959      0.00000
      8       2.6035      0.00000
      9       3.0651      0.00000
     10       4.7306      0.00000
     11       5.3451      0.00000
     12       5.6502      0.00000

 k-point     2 :       0.0476    0.0000    0.0000
  band No.  band energies     occupation 
      1     -22.2432      2.00000
      2     -10.3257      2.00000
      3      -5.9708      2.00000
      4      -5.8668      2.00000
      5       0.5996      0.00000
      6       1.4019      0.00000
      7       1.7708      0.00000
      8       2.6778      0.00000
      9       3.1391      0.00000
     10       4.8042      0.00000
     11       5.4123      0.00000
     12       5.6875      0.00000

 k-point     3 :       0.0952    0.0000    0.0000
  band No.  band energies     occupation 
      1     -22.0818      2.00000
      2     -10.1329      2.00000
      3      -6.5907      2.00000
      4      -6.1866      2.00000
      5       0.8189      0.00000
      6       1.6239      0.00000
      7       1.9956      0.00000
      8       2.9006      0.00000
      9       3.3613      0.00000
     10       5.0246      0.00000
     11       5.5931      0.00000
     12       5.7759      0.00000

 k-point     4 :       0.1429    0.0000    0.0000
  band No.  band energies     occupation 
      1     -21.8136      2.00000
      2      -9.8135      2.00000
      3      -7.5101      2.00000
      4      -6.6382      2.00000
      5       1.1843      0.00000
      6       1.9936      0.00000
      7       2.3704      0.00000
      8       3.2716      0.00000
      9       3.7315      0.00000
     10       5.3909      0.00000
     11       5.6801      0.00000
     12       6.0459      0.00000

 k-point     5 :       0.1905    0.0000    0.0000
  band No.  band energies     occupation 
      1     -21.4394      2.00000
      2      -9.3707      2.00000
      3      -8.6227      2.00000
      4      -7.1470      2.00000
      5       1.6956      0.00000
      6       2.5096      0.00000
      7       2.8950      0.00000
      8       3.7895      0.00000
      9       4.2488      0.00000
     10       5.6000      0.00000
     11       5.8818      0.00000
     12       6.1624      0.00000

 k-point     6 :       0.2381    0.0000    0.0000
  band No.  band energies     occupation 
      1     -20.9608      2.00000
      2      -9.8424      2.00000
      3      -8.8096      2.00000
      4      -7.6540      2.00000
      5       2.3521      0.00000
      6       3.1667      0.00000
      7       3.5693      0.00000
      8       4.4366      0.00000
      9       4.9054      0.00000
     10       4.9289      0.00000
     11       5.4540      0.00000
     12       6.5718      0.00000

 k-point     7 :       0.2857    0.0000    0.0000
  band No.  band energies     occupation 
      1     -20.3801      2.00000
      2     -11.1063      2.00000
      3      -8.1396      2.00000
      4      -8.1184      2.00000
      5       3.1519      0.00000
      6       3.5047      0.00000
      7       4.0521      0.00000
      8       4.3926      0.00000
      9       5.2326      0.00000
     10       5.2849      0.00000
     11       5.7596      0.00000
     12       7.3718      0.00000

 k-point     8 :       0.3333    0.0000    0.0000
  band No.  band energies     occupation 
      1     -19.7006      2.00000
      2     -12.3699      2.00000
      3      -8.5133      2.00000
      4      -7.3772      2.00000
      5       2.2157      0.00000
      6       4.0890      0.00000
      7       4.9619      0.00000
      8       5.0658      0.00000
      9       5.3753      0.00000
     10       6.2418      0.00000
     11       6.7095      0.00000
     12       8.3130      0.00000

 k-point     9 :       0.3810    0.0000    0.0000
  band No.  band energies     occupation 
      1     -18.9287      2.00000
      2     -13.5997      2.00000
      3      -8.8215      2.00000
      4      -6.5562      2.00000
      5       0.9337      0.00000
      6       4.8600      0.00000
      7       5.2378      0.00000
      8       6.0556      0.00000
      9       6.4942      0.00000
     10       7.3458      0.00000
     11       7.8165      0.00000
     12       9.3863      0.00000

 k-point    10 :       0.4286    0.0000    0.0000
  band No.  band energies     occupation 
      1     -18.0792      2.00000
      2     -14.7630      2.00000
      3      -9.0321      2.00000
      4      -5.7568      2.00000
      5      -0.1905      0.00000
      6       4.7904      0.00000
      7       6.4249      0.00000
      8       7.2891      0.00000
      9       7.7668      0.00000
     10       8.5902      0.00000
     11       9.0693      0.00000
     12      10.5585      0.00000

 k-point    11 :       0.4762    0.0000    0.0000
  band No.  band energies     occupation 
      1     -17.2344      2.00000
      2     -15.7672      2.00000
      3      -9.1388      2.00000
      4      -5.1841      2.00000
      5      -0.9305      0.00000
      6       4.7389      0.00000
      7       7.7721      0.00000
      8       8.6460      0.00000
      9       9.1834      0.00000
     10       9.2509      0.00000
     11       9.9219      0.00000
     12      10.1745      0.00000

 k-point    12 :       0.0952    0.0476    0.0000
  band No.  band energies     occupation 
      1     -22.1356      2.00000
      2     -10.1971      2.00000
      3      -6.3758      2.00000
      4      -6.1006      2.00000
      5       0.7458      0.00000
      6       1.5499      0.00000
      7       1.9207      0.00000
      8       2.8264      0.00000
      9       3.2873      0.00000
     10       4.9512      0.00000
     11       5.5437      0.00000
     12       5.7848      0.00000

 k-point    13 :       0.1429    0.0476    0.0000
  band No.  band energies     occupation 
      1     -21.9208      2.00000
      2      -9.9410      2.00000
      3      -7.1127      2.00000
      4      -6.5197      2.00000
      5       1.0382      0.00000
      6       1.8458      0.00000
      7       2.2205      0.00000
      8       3.1233      0.00000
      9       3.5836      0.00000
     10       5.2447      0.00000
     11       5.7615      0.00000
     12       5.9617      0.00000

 k-point    14 :       0.1905    0.0476    0.0000
  band No.  band energies     occupation 
      1     -21.5996      2.00000
      2      -9.5597      2.00000
      3      -8.0987      2.00000
      4      -7.0306      2.00000
      5       1.4767      0.00000
      6       2.2889      0.00000
      7       2.6702      0.00000
      8       3.5680      0.00000
      9       4.0278      0.00000
     10       5.6823      0.00000
     11       5.8318      0.00000
     12       6.3360      0.00000

 k-point    15 :       0.2381    0.0476    0.0000
  band No.  band energies     occupation 
      1     -21.1732      2.00000
      2      -9.2435      2.00000
      3      -9.0574      2.00000
      4      -7.5605      2.00000
      5       2.0609      0.00000
      6       2.8769      0.00000
      7       3.2698      0.00000
      8       4.1574      0.00000
      9       4.6183      0.00000
     10       5.4519      0.00000
     11       5.7454      0.00000
     12       6.2787      0.00000

 k-point    16 :       0.2857    0.0476    0.0000
  band No.  band energies     occupation 
      1     -20.6435      2.00000
      2     -10.4715      2.00000
      3      -8.4410      2.00000
      4      -8.0604      2.00000
      5       2.7895      0.00000
      6       3.5842      0.00000
      7       4.0189      0.00000
      8       4.2029      0.00000
      9       4.9193      0.00000
     10       5.3295      0.00000
     11       5.6166      0.00000
     12       7.0046      0.00000

 k-point    17 :       0.3333    0.0476    0.0000
  band No.  band energies     occupation 
      1     -20.0134      2.00000
      2     -11.7267      2.00000
      3      -8.4987      2.00000
      4      -7.7226      2.00000
      5       2.8393      0.00000
      6       3.6603      0.00000
      7       4.5221      0.00000
      8       4.9157      0.00000
      9       5.3911      0.00000
     10       5.7968      0.00000
     11       6.2700      0.00000
     12       7.8744      0.00000

 k-point    18 :       0.3810    0.0476    0.0000
  band No.  band energies     occupation 
      1     -19.2873      2.00000
      2     -12.9685      2.00000
      3      -8.8554      2.00000
      4      -6.9253      2.00000
      5       1.5390      0.00000
      6       4.6590      0.00000
      7       5.2432      0.00000
      8       5.5403      0.00000
      9       5.9710      0.00000
     10       6.8275      0.00000
     11       7.3001      0.00000
     12       8.8789      0.00000

 k-point    19 :       0.4286    0.0476    0.0000
  band No.  band energies     occupation 
      1     -18.4743      2.00000
      2     -14.1642      2.00000
      3      -9.1177      2.00000
      4      -6.0996      2.00000
      5       0.3261      0.00000
      6       5.0714      0.00000
[...]

 k-point    23 :       0.2381    0.0952    0.0000
  band No.  band energies     occupation 
      1     -21.2796      2.00000
      2      -9.1819      2.00000
      3      -8.7977      2.00000
      4      -7.6688      2.00000
      5       1.9154      0.00000
      6       2.7311      0.00000
      7       3.1200      0.00000
      8       4.0121      0.00000
      9       4.4729      0.00000
     10       5.7558      0.00000
     11       6.1246      0.00000
     12       6.2862      0.00000

 k-point    24 :       0.2857    0.0952    0.0000
  band No.  band energies     occupation 
      1     -20.8022      2.00000
      2      -9.8975      2.00000
      3      -8.6232      2.00000
      4      -8.2459      2.00000
      5       2.5722      0.00000
      6       3.3889      0.00000
      7       3.7945      0.00000
      8       4.5762      0.00000
      9       4.7163      0.00000
     10       5.1378      0.00000
     11       6.2850      0.00000
     12       6.7785      0.00000

 k-point    25 :       0.3333    0.0952    0.0000
  band No.  band energies     occupation 
      1     -20.2230      2.00000
      2     -11.0852      2.00000
      3      -8.7517      2.00000
      4      -7.9558      2.00000
      5       3.3461      0.00000
      6       3.3728      0.00000
      7       4.2215      0.00000
      8       4.6186      0.00000
      9       5.4949      0.00000
     10       5.9210      0.00000
     11       6.1915      0.00000
     12       7.5736      0.00000

 k-point    26 :       0.3810    0.0952    0.0000
  band No.  band energies     occupation 
      1     -19.5458      2.00000
      2     -12.3010      2.00000
      3      -9.1698      2.00000
      4      -7.1957      2.00000
      5       2.0836      0.00000
      6       4.3144      0.00000
      7       5.1628      0.00000
      8       5.5898      0.00000
      9       5.9873      0.00000
     10       6.4507      0.00000
     11       6.9347      0.00000
     12       8.5015      0.00000

 k-point    27 :       0.4286    0.0952    0.0000
  band No.  band energies     occupation 
      1     -18.7770      2.00000
      2     -13.5003      2.00000
      3      -9.4906      2.00000
      4      -6.3753      2.00000
      5       0.8473      0.00000
      6       5.3794      0.00000
      7       5.8618      0.00000
      8       6.2500      0.00000
      9       6.7194      0.00000
     10       7.5473      0.00000
     11       8.0377      0.00000
     12       9.5421      0.00000

 k-point    28 :       0.4762    0.0952    0.0000
  band No.  band energies     occupation 
      1     -17.9320      2.00000
      2     -14.6436      2.00000
      3      -9.7077      2.00000
      4      -5.5720      2.00000
      5      -0.2499      0.00000
      6       5.7166      0.00000
      7       6.6402      0.00000
      8       7.4640      0.00000
      9       7.9910      0.00000
     10       8.7731      0.00000
     11       9.2876      0.00000
     12      10.5874      0.00000

 k-point    29 :      -0.4762    0.0952    0.0000
  band No.  band energies     occupation 
      1     -17.0937      2.00000
      2     -15.6343      2.00000
      3      -9.8172      2.00000
      4      -4.9898      2.00000
      5      -0.9840      0.00000
      6       5.6688      0.00000
      7       7.9747      0.00000
      8       8.7609      0.00000
      9       9.3986      0.00000
     10       9.4412      0.00000
     11       9.9665      0.00000
     12      10.3647      0.00000

 k-point    30 :       0.2857    0.1429    0.0000
  band No.  band energies     occupation 
      1     -20.8552      2.00000
      2      -9.6128      2.00000
      3      -8.6842      2.00000
      4      -8.4078      2.00000
      5       2.4997      0.00000
      6       3.3192      0.00000
      7       3.7197      0.00000
      8       4.6032      0.00000
      9       4.7638      0.00000
     10       5.0662      0.00000
     11       6.7012      0.00000
     12       6.8336      0.00000

 k-point    31 :       0.3333    0.1429    0.0000
  band No.  band energies     occupation 
      1     -20.3282      2.00000
      2     -10.5793      2.00000
      3      -9.0845      2.00000
      4      -8.0732      2.00000
      5       3.2286      0.00000
      6       3.6521      0.00000
      7       4.0564      0.00000
      8       4.4691      0.00000
      9       5.3401      0.00000
     10       5.8060      0.00000
     11       7.1047      0.00000
     12       7.4192      0.00000

 k-point    32 :       0.3810    0.1429    0.0000
  band No.  band energies     occupation 
      1     -19.7019      2.00000
      2     -11.6709      2.00000
      3      -9.6274      2.00000
      4      -7.3605      2.00000
      5       2.4803      0.00000
      6       4.1002      0.00000
      7       4.9280      0.00000
      8       5.3681      0.00000
      9       6.2201      0.00000
     10       6.6790      0.00000
     11       7.0865      0.00000
     12       8.2663      0.00000

 k-point    33 :       0.4286    0.1429    0.0000
  band No.  band energies     occupation 
      1     -18.9811      2.00000
      2     -12.8163      2.00000
      3     -10.0385      2.00000
      4      -6.5671      2.00000
      5       1.2899      0.00000
      6       5.1112      0.00000
      7       5.9370      0.00000
      8       6.4151      0.00000
      9       6.9302      0.00000
     10       7.2379      0.00000
     11       7.7478      0.00000
     12       9.2154      0.00000

 k-point    34 :       0.4762    0.1429    0.0000
  band No.  band energies     occupation 
      1     -18.1759      2.00000
      2     -13.9537      2.00000
      3     -10.3283      2.00000
      4      -5.7393      2.00000
      5       0.1562      0.00000
      6       6.2481      0.00000
      7       6.8228      0.00000
      8       7.0647      0.00000
      9       7.6175      0.00000
     10       8.3779      0.00000
     11       8.9197      0.00000
     12      10.1540      0.00000

 k-point    35 :      -0.4762    0.1429    0.0000
  band No.  band energies     occupation 
      1     -17.3177      2.00000
      2     -15.0211      2.00000
      3     -10.5012      2.00000
      4      -4.9978      2.00000
      5      -0.7784      0.00000
      6       6.7120      0.00000
      7       7.5541      0.00000
      8       8.2546      0.00000
      9       8.9626      0.00000
     10       9.5636      0.00000
     11      10.2169      0.00000
     12      10.3627      0.00000

 k-point    36 :      -0.4286    0.1429    0.0000
  band No.  band energies     occupation 
      1     -16.7101      2.00000
      2     -15.6999      2.00000
      3     -10.5588      2.00000
      4      -4.6548      2.00000
      5      -1.1873      0.00000
      6       6.6897      0.00000
      7       8.8386      0.00000
      8       9.0228      0.00000
      9       9.0762      0.00000
     10       9.9739      0.00000
     11      10.4500      0.00000
     12      10.4615      0.00000

 k-point    37 :       0.3810    0.1905    0.0000
  band No.  band energies     occupation 
      1     -19.7540      2.00000
      2     -11.3415      2.00000
      3      -9.9066      2.00000
      4      -7.4158      2.00000
      5       2.6291      0.00000
      6       4.0283      0.00000
      7       4.8469      0.00000
      8       5.2935      0.00000
      9       6.1420      0.00000
     10       6.6204      0.00000
     11       7.9228      0.00000
     12       8.1858      0.00000

 k-point    38 :       0.4286    0.1905    0.0000
  band No.  band energies     occupation 
      1     -19.0839      2.00000
      2     -12.2513      2.00000
      3     -10.5546      2.00000
      4      -6.6653      2.00000
      5       1.5520      0.00000
      6       4.9688      0.00000
      7       5.7744      0.00000
      8       6.2672      0.00000
      9       7.0793      0.00000
     10       7.5739      0.00000
     11       8.2007      0.00000
     12       9.0416      0.00000

 k-point    39 :       0.4762    0.1905    0.0000
  band No.  band energies     occupation 
      1     -18.3250      2.00000
      2     -13.2770      2.00000
      3     -10.9944      2.00000
      4      -5.8493      2.00000
      5       0.4699      0.00000
      6       6.0452      0.00000
      7       6.8100      0.00000
      8       7.3892      0.00000
      9       8.1011      0.00000
     10       8.1296      0.00000
     11       8.7074      0.00000
     12       9.8441      0.00000

 k-point    40 :      -0.4762    0.1905    0.0000
  band No.  band energies     occupation 
      1     -17.4942      2.00000
      2     -14.3253      2.00000
      3     -11.2657      2.00000
      4      -5.0334      2.00000
      5      -0.5352      0.00000
      6       7.2434      0.00000
      7       7.8688      0.00000
      8       8.0129      0.00000
      9       8.6643      0.00000
     10       9.2039      0.00000
     11       9.9389      0.00000
     12      10.3428      0.00000

 k-point    41 :      -0.4286    0.1905    0.0000
  band No.  band energies     occupation 
      1     -16.6743      2.00000
      2     -15.2641      2.00000
      3     -11.3962      2.00000
      4      -4.4130      2.00000
      5      -1.2544      0.00000
      6       7.9295      0.00000
      7       8.5763      0.00000
      8       8.6186      0.00000
      9       9.9264      0.00000
     10      10.0863      0.00000
     11      10.0966      0.00000
     12      11.0058      0.00000

 k-point    42 :       0.4762    0.2381    0.0000
  band No.  band energies     occupation 
      1     -18.3751      2.00000
      2     -12.9063      2.00000
      3     -11.3671      2.00000
      4      -5.8874      2.00000
      5       0.5895      0.00000
      6       5.9742      0.00000
      7       6.7209      0.00000
      8       7.3153      0.00000
      9       8.0439      0.00000
     10       8.6016      0.00000
     11       9.2593      0.00000
     12       9.7305      0.00000

 k-point    43 :      -0.4762    0.2381    0.0000
  band No.  band energies     occupation 
      1     -17.5871      2.00000
      2     -13.7205      2.00000
      3     -11.9149      2.00000
      4      -5.0609      2.00000
      5      -0.3721      0.00000
      6       7.1069      0.00000
      7       7.6498      0.00000
      8       8.5109      0.00000
      9       9.0070      0.00000
     10       9.3493      0.00000
     11       9.8057      0.00000
     12      10.1435      0.00000

 k-point    44 :      -0.4286    0.2381    0.0000
  band No.  band energies     occupation 
      1     -16.7521      2.00000
      2     -14.6263      2.00000
      3     -12.2000      2.00000
      4      -4.2786      2.00000
      5      -1.2381      0.00000
      6       8.2015      0.00000
      7       8.3403      0.00000
      8       9.2726      0.00000
      9       9.8568      0.00000
     10       9.9161      0.00000
     11      10.6571      0.00000
     12      10.9797      0.00000

 k-point    45 :      -0.3810    0.2381    0.0000
  band No.  band energies     occupation 
      1     -16.1589      2.00000
      2     -15.2529      2.00000
      3     -12.2872      2.00000
      4      -3.8750      2.00000
      5      -1.6701      0.00000
      6       8.3058      0.00000
      7       9.1925      0.00000
      8       9.5161      0.00000
      9       9.8086      0.00000
     10      10.8629      0.00000
     11      11.3288      0.00000
     12      11.3504      0.00000

 k-point    46 :      -0.4286    0.2857    0.0000
  band No.  band energies     occupation 
      1     -16.7867      2.00000
      2     -14.2470      2.00000
      3     -12.6299      2.00000
      4      -4.2374      2.00000
      5      -1.2193      0.00000
      6       8.0426      0.00000
      7       8.2733      0.00000
      8       9.7767      0.00000
      9       9.8386      0.00000
     10      10.3250      0.00000
     11      10.4422      0.00000
     12      10.9280      0.00000

 k-point    47 :      -0.3810    0.2857    0.0000
  band No.  band energies     occupation 
      1     -15.9952      2.00000
      2     -14.9109      2.00000
      3     -12.9848      2.00000
      4      -3.4995      2.00000
      5      -1.9652      0.00000
      6       8.0229      0.00000
      7       9.4613      0.00000
      8      10.2082      0.00000
      9      10.6041      0.00000
     10      10.9982      0.00000
     11      11.1970      0.00000
     12      12.1087      0.00000

 k-point    48 :      -0.3333    0.3333    0.0000
  band No.  band energies     occupation 
      1     -15.3357      2.00000
      2     -15.3356      2.00000
      3     -13.3265      2.00000
      4      -2.7217      1.00150
      5      -2.7217      0.99850
      6       7.9118      0.00000
      7      10.2206      0.00000
      8      10.2206      0.00000
      9      10.8102      0.00000
     10      12.1929      0.00000
     11      12.1929      0.00000
     12      12.5542      0.00000


--------------------------------------------------------------------------------------------------------


 soft charge-density along one line, spin component           1
         0         1         2         3         4         5         6         7         8         9
 total charge-density along one line
 
 pseudopotential strength for first ion, spin component:           1
 10.225   0.019  -0.000   0.000   0.000   0.000  -0.000  -0.000
  0.019  -0.002   0.000  -0.000  -0.000   0.000  -0.000  -0.000
 -0.000   0.000  -4.341  -0.000  -0.000  -0.018  -0.000  -0.000
  0.000  -0.000  -0.000  -4.335  -0.000  -0.000  -0.015  -0.000
  0.000  -0.000  -0.000  -0.000  -4.341  -0.000  -0.000  -0.018
  0.000   0.000  -0.018  -0.000  -0.000  -0.772  -0.000  -0.000
 -0.000  -0.000  -0.000  -0.015  -0.000  -0.000  -0.772  -0.000
 -0.000  -0.000  -0.000  -0.000  -0.018  -0.000  -0.000  -0.772
 total augmentation occupancy for first ion, spin component:           1
  1.469  -1.133   0.000   0.000   0.000   0.000   0.000   0.000
 -1.133   1.076   0.000   0.000   0.000   0.000   0.000   0.000
  0.000  -0.000   1.227   0.000   0.000   0.230   0.000   0.000
  0.000   0.000   0.000   0.932   0.000  -0.000   0.106  -0.000
  0.000   0.000   0.000   0.000   1.227   0.000  -0.000   0.230
  0.000   0.000   0.230   0.000   0.000   0.049  -0.000   0.000
  0.000   0.000  -0.000   0.106  -0.000  -0.000   0.014   0.000
 -0.000   0.000   0.000   0.000   0.230   0.000  -0.000   0.049


------------------------ aborting loop because EDIFF is reached ----------------------------------------


    CHARGE:  cpu time    0.0241: real time    0.0242
    FORLOC:  cpu time    0.0006: real time    0.0006
    FORNL :  cpu time    0.0513: real time    0.0514
    STRESS:  cpu time    0.2122: real time    0.2127
    FORHAR:  cpu time    0.0038: real time    0.0039
    MIXING:  cpu time    0.0008: real time    0.0008
    OFIELD:  cpu time    0.0000: real time    0.0000

  FORCE on cell =-STRESS in cart. coord.  units (eV):
  Direction    XX          YY          ZZ          XY          YZ          ZX
  --------------------------------------------------------------------------------------
  Alpha Z     3.11067     3.11067     3.11067
  Ewald    1572.61546  1572.61484 -1842.19716     0.00000     0.00000    -0.00000
  Hartree  1538.77927  1538.77926 -1527.51656    -0.00000    -0.00000    -0.00000
  E(xc)     -29.22521   -29.22521   -30.39747    -0.00000     0.00000    -0.00000
  Local   -3197.50114 -3197.50083  3266.46306     0.00000    -0.00000     0.00000
  n-local    -7.33377    -6.79847    -6.42550     0.35711    -0.00000    -0.00000
  augment    -0.78079    -0.78080    -0.71374     0.00000     0.00000    -0.00000
  Kinetic   122.53739   118.43602   137.65407    -3.29832     0.00000     0.00000
  Fock        0.00000     0.00000     0.00000     0.00000     0.00000     0.00000
  -------------------------------------------------------------------------------------
  Total       0.41868     0.41868    -0.02264     0.00000    -0.00000     0.00000
  in kB       6.40225     6.40225    -0.34618     0.00000    -0.00000     0.00000
  external pressure =        4.15 kB  Pullay stress =        0.00 kB


 VOLUME and BASIS-vectors are now :
 -----------------------------------------------------------------------------
  energy-cutoff  :      800.00
  volume of cell :      104.78
      direct lattice vectors                 reciprocal lattice vectors
     2.130000000 -1.229756000  0.000000000     0.234741784 -0.406584721  0.000000000
     2.130000000  1.229756000  0.000000000     0.234741784  0.406584721  0.000000000
     0.000000000  0.000000000 20.000000000     0.000000000  0.000000000  0.050000000

  length of vectors
     2.459512110  2.459512110 20.000000000     0.469483589  0.469483589  0.050000000


 FORCES acting on ions
    electron-ion (+dipol)            ewald-force                    non-local-force                 convergence-correction
 -----------------------------------------------------------------------------------------------
   0.197E-06 0.714E-13 -.144E-08   -.241E-03 0.675E-14 -.161E-22   0.286E-16 0.134E-16 0.323E-26   0.510E-11 -.706E-15 0.960E-13
   0.271E-03 0.110E-12 0.144E-08   0.241E-03 -.447E-14 0.161E-22   -.143E-16 0.152E-17 -.242E-26   -.321E-11 -.226E-15 0.695E-13
 -----------------------------------------------------------------------------------------------
   0.271E-03 0.181E-12 0.189E-11   0.429E-14 0.228E-14 0.000E+00   0.143E-16 0.149E-16 0.808E-27   0.189E-11 -.932E-15 0.166E-12
 
 
 POSITION                                       TOTAL-FORCE (eV/Angst)
 -----------------------------------------------------------------------------------
      0.00000      0.00000      0.00000        -0.000000      0.000000      0.000000
      1.42000      0.00000      0.00000         0.000000     -0.000000     -0.000000
 -----------------------------------------------------------------------------------
    total drift:                                0.000271      0.000000      0.000000


--------------------------------------------------------------------------------------------------------



  FREE ENERGIE OF THE ION-ELECTRON SYSTEM (eV)
  ---------------------------------------------------
  free  energy   TOTEN  =       -18.45768903 eV

  energy  without entropy=      -18.45763786  energy(sigma->0) =      -18.45766345
 


--------------------------------------------------------------------------------------------------------


    POTLOK:  cpu time    0.0200: real time    0.0201


--------------------------------------------------------------------------------------------------------




--------------------------------------------------------------------------------------------------------


  
 reached required accuracy - stopping structural energy minimisation
     LOOP+:  cpu time    6.7300: real time    6.9922
    4ORBIT:  cpu time    0.0000: real time    0.0000

 total amount of memory used by VASP MPI-rank0    41299. kBytes
=======================================================================

   base      :      30000. kBytes
   nonl-proj :       2793. kBytes
   fftplans  :       4589. kBytes
   grid      :       2514. kBytes
   one-center:          3. kBytes
   wavefun   :       1400. kBytes
 
  
  
 General timing and accounting informations for this job:
 ========================================================
  
                  Total CPU time used (sec):        8.184
                            User time (sec):        7.872
                          System time (sec):        0.311
                         Elapsed time (sec):        9.262
  
                   Maximum memory used (kb):       72076.
                   Average memory used (kb):           0.
  
                          Minor page faults:        24300
                          Major page faults:            2
                 Voluntary context switches:         1235
