<?xml version="1.0" encoding="ISO-8859-1"?>
<modeling>
 <generator>
  <i name="program" type="string">vasp </i>
  <i name="version" type="string">5.4.4.18Apr17-6-g9f103f2a35  </i>
  <i name="subversion" type="string">(build May 31 2018 21:15:54) complex            parallel </i>
  <i name="platform" type="string">c7_intel_O1 </i>
  <i name="date" type="string">2020 08 11 </i>
  <i name="time" type="string">21:52:19 </i>
 </generator>
 <incar>
  <i type="string" name="SYSTEM"> C-2</i>
  <i type="int" name="ISTART">     0</i>
  <i type="string" name="PREC">accurate</i>
  <i type="string" name="ALGO"> N</i>
  <i type="logical" name="ADDGRID"> T  </i>
  <i name="AMIN">      0.01000000</i>
  <i type="int" name="NELMIN">     5</i>
  <i type="int" name="IBRION">     2</i>
  <i name="EDIFF">      0.00000001</i>
  <i name="EDIFFG">     -0.00000001</i>
  <i type="int" name="NSW">    80</i>
  <i name="SYMPREC">      0.00010000</i>
  <i name="ENCUT">    800.00000000</i>
  <i type="logical" name="LREAL"> F  </i>
  <i type="int" name="ISMEAR">     0</i>
  <i name="SIGMA">      0.01000000</i>
  <i type="logical" name="LWAVE"> F  </i>
  <i type="logical" name="LCHARG"> T  </i>
  <v type="int" name="KPOINT_BSE">    -1     0     0     0</v>
 </incar>
 <structure name="primitive_cell" >
  <crystal>
   <varray name="basis" >
    <v>       2.13000000      -1.22975600       0.00000000 </v>
    <v>       2.13000000       1.22975600       0.00000000 </v>
    <v>       0.00000000       0.00000000      20.00000000 </v>
   </varray>
   <i name="volume">    104.77521120 </i>
   <varray name="rec_basis" >
    <v>       0.23474178      -0.40658472       0.00000000 </v>
    <v>       0.23474178       0.40658472       0.00000000 </v>
    <v>       0.00000000       0.00000000       0.05000000 </v>
   </varray>
  </crystal>
  <varray name="positions" >
   <v>       0.00000000       0.00000000       0.00000000 </v>
   <v>       0.33333300       0.33333300       0.00000000 </v>
  </varray>
 </structure>
 <varray name="primitive_index" >
  <v type="int" >        1 </v>
  <v type="int" >        2 </v>
 </varray>
 <kpoints>
  <generation param="Gamma">
   <v type="int" name="divisions">      21       21        1 </v>
   <v name="usershift">      0.00000000       0.00000000       0.00000000 </v>
   <v name="genvec1">      0.04761905       0.00000000       0.00000000 </v>
   <v name="genvec2">      0.00000000       0.04761905       0.00000000 </v>
   <v name="genvec3">      0.00000000       0.00000000       1.00000000 </v>
   <v name="shift">      0.00000000       0.00000000       0.00000000 </v>
  </generation>
  <varray name="kpointlist" >
   <v>       0.00000000       0.00000000       0.00000000 </v>
   <v>       0.04761905       0.00000000       0.00000000 </v>
   <v>       0.09523810       0.00000000       0.00000000 </v>
   <v>       0.14285714       0.00000000       0.00000000 </v>
   <v>       0.19047619       0.00000000       0.00000000 </v>
   <v>       0.23809524       0.00000000       0.00000000 </v>
   <v>       0.28571429       0.00000000       0.00000000 </v>
   <v>       0.33333333       0.00000000       0.00000000 </v>
   <v>       0.38095238       0.00000000       0.00000000 </v>
   <v>       0.42857143       0.00000000       0.00000000 </v>
   <v>       0.47619048       0.00000000       0.00000000 </v>
   <v>       0.09523810       0.04761905       0.00000000 </v>
   <v>       0.14285714       0.04761905       0.00000000 </v>
   <v>       0.19047619       0.04761905       0.00000000 </v>
   <v>       0.23809524       0.04761905       0.00000000 </v>
   <v>       0.28571429       0.04761905       0.00000000 </v>
   <v>       0.33333333       0.04761905       0.00000000 </v>
   <v>       0.38095238       0.04761905       0.00000000 </v>
   <v>       0.42857143       0.04761905       0.00000000 </v>
   <v>       0.47619048       0.04761905       0.00000000 </v>
   <v>      -0.47619048       0.04761905       0.00000000 </v>
   <v>       0.19047619       0.09523810       0.00000000 </v>
   <v>       0.23809524       0.09523810       0.00000000 </v>
   <v>       0.28571429       0.09523810       0.00000000 </v>
   <v>       0.33333333       0.09523810       0.00000000 </v>
   <v>       0.38095238       0.09523810       0.00000000 </v>
   <v>       0.42857143       0.09523810       0.00000000 </v>
   <v>       0.47619048       0.09523810       0.00000000 </v>
   <v>      -0.47619048       0.09523810       0.00000000 </v>
   <v>       0.28571429       0.14285714       0.00000000 </v>
   <v>       0.33333333       0.14285714       0.00000000 </v>
   <v>       0.38095238       0.14285714       0.00000000 </v>
   <v>       0.42857143       0.14285714       0.00000000 </v>
   <v>       0.47619048       0.14285714       0.00000000 </v>
   <v>      -0.47619048       0.14285714       0.00000000 </v>
   <v>      -0.42857143       0.14285714       0.00000000 </v>
   <v>       0.38095238       0.19047619       0.00000000 </v>
   <v>       0.42857143       0.19047619       0.00000000 </v>
   <v>       0.47619048       0.19047619       0.00000000 </v>
   <v>      -0.47619048       0.19047619       0.00000000 </v>
   <v>      -0.42857143       0.19047619       0.00000000 </v>
   <v>       0.47619048       0.23809524       0.00000000 </v>
   <v>      -0.47619048       0.23809524       0.00000000 </v>
   <v>      -0.42857143       0.23809524       0.00000000 </v>
   <v>      -0.38095238       0.23809524       0.00000000 </v>
   <v>      -0.42857143       0.28571429       0.00000000 </v>
   <v>      -0.38095238       0.28571429       0.00000000 </v>
   <v>      -0.33333333       0.33333333       0.00000000 </v>
  </varray>
  <varray name="weights" >
   <v>       0.00226757 </v>
   <v>       0.01360544 </v>
   <v>       0.01360544 </v>
   <v>       0.01360544 </v>
   <v>       0.01360544 </v>
   <v>       0.01360544 </v>
   <v>       0.01360544 </v>
   <v>       0.01360544 </v>
   <v>       0.01360544 </v>
   <v>       0.01360544 </v>
   <v>       0.01360544 </v>
   <v>       0.01360544 </v>
   <v>       0.02721088 </v>
   <v>       0.02721088 </v>
   <v>       0.02721088 </v>
   <v>       0.02721088 </v>
   <v>       0.02721088 </v>
   <v>       0.02721088 </v>
   <v>       0.02721088 </v>
   <v>       0.02721088 </v>
   <v>       0.01360544 </v>
   <v>       0.01360544 </v>
   <v>       0.02721088 </v>
   <v>       0.02721088 </v>
   <v>       0.02721088 </v>
   <v>       0.02721088 </v>
   <v>       0.02721088 </v>
   <v>       0.02721088 </v>
   <v>       0.02721088 </v>
   <v>       0.01360544 </v>
   <v>       0.02721088 </v>
   <v>       0.02721088 </v>
   <v>       0.02721088 </v>
   <v>       0.02721088 </v>
   <v>       0.02721088 </v>
   <v>       0.01360544 </v>
   <v>       0.01360544 </v>
   <v>       0.02721088 </v>
   <v>       0.02721088 </v>
   <v>       0.02721088 </v>
   <v>       0.02721088 </v>
   <v>       0.01360544 </v>
   <v>       0.02721088 </v>
   <v>       0.02721088 </v>
   <v>       0.01360544 </v>
   <v>       0.01360544 </v>
   <v>       0.02721088 </v>
   <v>       0.00453515 </v>
  </varray>
 </kpoints>
 <parameters>
  <separator name="general" >
   <i type="string" name="SYSTEM">C-2</i>
   <i type="logical" name="LCOMPAT"> F  </i>
  </separator>
  <separator name="electronic" >
   <i type="string" name="PREC">accura</i>
   <i name="ENMAX">    800.00000000</i>
   <i name="ENAUG">    644.87300000</i>
   <i name="EDIFF">      0.00000001</i>
   <i type="int" name="IALGO">    38</i>
   <i type="int" name="IWAVPR">    11</i>
   <i type="int" name="NBANDS">    12</i>
   <i name="NELECT">      8.00000000</i>
   <i type="int" name="TURBO">     0</i>
   <i type="int" name="IRESTART">     0</i>
   <i type="int" name="NREBOOT">     0</i>
   <i type="int" name="NMIN">     0</i>
   <i name="EREF">      0.00000000</i>
   <separator name="electronic smearing" >
    <i type="int" name="ISMEAR">     0</i>
    <i name="SIGMA">      0.01000000</i>
    <i name="KSPACING">      0.50000000</i>
    <i type="logical" name="KGAMMA"> T  </i>
   </separator>
   <separator name="electronic projectors" >
    <i type="logical" name="LREAL"> F  </i>
    <v name="ROPT">      0.00000000</v>
    <i type="int" name="LMAXPAW">  -100</i>
    <i type="int" name="LMAXMIX">     2</i>
    <i type="logical" name="NLSPLINE"> F  </i>
   </separator>
   <separator name="electronic startup" >
    <i type="int" name="ISTART">     0</i>
    <i type="int" name="ICHARG">     2</i>
    <i type="int" name="INIWAV">     1</i>
   </separator>
   <separator name="electronic spin" >
    <i type="int" name="ISPIN">     1</i>
    <i type="logical" name="LNONCOLLINEAR"> F  </i>
    <v name="MAGMOM">      1.00000000      1.00000000</v>
    <i name="NUPDOWN">     -1.00000000</i>
    <i type="logical" name="LSORBIT"> F  </i>
    <v name="SAXIS">      0.00000000      0.00000000      1.00000000</v>
    <i type="logical" name="LSPIRAL"> F  </i>
    <v name="QSPIRAL">      0.00000000      0.00000000      0.00000000</v>
    <i type="logical" name="LZEROZ"> F  </i>
   </separator>
   <separator name="electronic exchange-correlation" >
    <i type="logical" name="LASPH"> F  </i>
    <i type="logical" name="LMETAGGA"> F  </i>
   </separator>
   <separator name="electronic convergence" >
    <i type="int" name="NELM">    60</i>
    <i type="int" name="NELMDL">    -5</i>
    <i type="int" name="NELMIN">     5</i>
    <i name="ENINI">    800.00000000</i>
    <separator name="electronic convergence detail" >
     <i type="logical" name="LDIAG"> T  </i>
     <i type="logical" name="LSUBROT"> F  </i>
     <i name="WEIMIN">      0.00100000</i>
     <i name="EBREAK">      0.00000000</i>
     <i name="DEPER">      0.30000000</i>
     <i type="int" name="NRMM">     4</i>
     <i name="TIME">      0.40000000</i>
    </separator>
   </separator>
   <separator name="electronic mixer" >
    <i name="AMIX">      0.40000000</i>
    <i name="BMIX">      1.00000000</i>
    <i name="AMIN">      0.01000000</i>
    <i name="AMIX_MAG">      1.60000000</i>
    <i name="BMIX_MAG">      1.00000000</i>
    <separator name="electronic mixer details" >
     <i type="int" name="IMIX">     4</i>
     <i type="logical" name="MIXFIRST"> F  </i>
     <i type="int" name="MAXMIX">   -45</i>
     <i name="WC">    100.00000000</i>
     <i type="int" name="INIMIX">     1</i>
     <i type="int" name="MIXPRE">     1</i>
     <i type="int" name="MREMOVE">     5</i>
    </separator>
   </separator>
   <separator name="electronic dipolcorrection" >
    <i type="logical" name="LDIPOL"> F  </i>
    <i type="logical" name="LMONO"> F  </i>
    <i type="int" name="IDIPOL">     0</i>
    <i name="EPSILON">      1.00000000</i>
    <v name="DIPOL">   -100.00000000   -100.00000000   -100.00000000</v>
    <i name="EFIELD">      0.00000000</i>
   </separator>
  </separator>
  <separator name="grids" >
   <i type="int" name="NGX">    24</i>
   <i type="int" name="NGY">    24</i>
   <i type="int" name="NGZ">   192</i>
   <i type="int" name="NGXF">    48</i>
   <i type="int" name="NGYF">    48</i>
   <i type="int" name="NGZF">   384</i>
   <i type="logical" name="ADDGRID"> T  </i>
  </separator>
  <separator name="ionic" >
   <i type="int" name="NSW">    80</i>
   <i type="int" name="IBRION">     2</i>
   <i type="int" name="MDALGO">     0</i>
   <i type="int" name="ISIF">     2</i>
   <i name="PSTRESS">      0.00000000</i>
   <i name="EDIFFG">     -0.00000001</i>
   <i type="int" name="NFREE">     1</i>
   <i name="POTIM">      0.50000000</i>
   <i name="SMASS">     -3.00000000</i>
   <i name="SCALEE">      1.00000000</i>
  </separator>
  <separator name="ionic md" >
   <i name="TEBEG">      0.00010000</i>
   <i name="TEEND">      0.00010000</i>
   <i type="int" name="NBLOCK">     1</i>
   <i type="int" name="KBLOCK">    80</i>
   <i type="int" name="NPACO">   256</i>
   <i name="APACO">     16.00000000</i>
  </separator>
  <separator name="symmetry" >
   <i type="int" name="ISYM">     2</i>
   <i name="SYMPREC">      0.00010000</i>
  </separator>
  <separator name="dos" >
   <i type="int" name="LORBIT">     0</i>
   <v name="RWIGS">     -1.00000000</v>
   <i type="int" name="NEDOS">   301</i>
   <i name="EMIN">     10.00000000</i>
   <i name="EMAX">    -10.00000000</i>
   <i name="EFERMI">      0.00000000</i>
  </separator>
  <separator name="writing" >
   <i type="int" name="NWRITE">     2</i>
   <i type="logical" name="LWAVE"> F  </i>
   <i type="logical" name="LDOWNSAMPLE"> F  </i>
   <i type="logical" name="LCHARG"> T  </i>
   <i type="logical" name="LPARD"> F  </i>
   <i type="logical" name="LVTOT"> F  </i>
   <i type="logical" name="LVHAR"> F  </i>
   <i type="logical" name="LELF"> F  </i>
   <i type="logical" name="LOPTICS"> F  </i>
   <v name="STM">      0.00000000      0.00000000      0.00000000      0.00000000      0.00000000      0.00000000      0.00000000</v>
  </separator>
  <separator name="performance" >
   <i type="int" name="NPAR">     6</i>
   <i type="int" name="NSIM">     4</i>
   <i type="int" name="NBLK">    -1</i>
   <i type="logical" name="LPLANE"> T  </i>
   <i type="logical" name="LSCALAPACK"> T  </i>
   <i type="logical" name="LSCAAWARE"> F  </i>
   <i type="logical" name="LSCALU"> F  </i>
   <i type="logical" name="LASYNC"> F  </i>
   <i type="logical" name="LORBITALREAL"> F  </i>
  </separator>
  <separator name="miscellaneous" >
   <i type="int" name="IDIOT">     3</i>
   <i type="int" name="ISPECIAL">     0</i>
   <i type="logical" name="LMUSIC"> F  </i>
   <v name="POMASS">     12.01100000</v>
   <v name="DARWINR">      0.00000000</v>
   <v name="DARWINV">      1.00000000</v>
   <i type="logical" name="LCORR"> T  </i>
  </separator>
  <i type="logical" name="GGA_COMPAT"> T  </i>
  <i type="logical" name="LBERRY"> F  </i>
  <i type="int" name="ICORELEVEL">     0</i>
  <i type="logical" name="LDAU"> F  </i>
  <i type="int" name="I_CONSTRAINED_M">     0</i>
  <separator name="electronic exchange-correlation" >
   <i type="string" name="GGA">--</i>
   <i type="int" name="VOSKOWN">     0</i>
   <i type="logical" name="LHFCALC"> F  </i>
   <i type="string" name="PRECFOCK"></i>
   <i type="logical" name="LSYMGRAD"> F  </i>
   <i type="logical" name="LHFONE"> F  </i>
   <i type="logical" name="LRHFCALC"> F  </i>
   <i type="logical" name="LTHOMAS"> F  </i>
   <i type="logical" name="LMODELHF"> F  </i>
   <i name="ENCUT4O">     -1.00000000</i>
   <i type="int" name="EXXOEP">     0</i>
   <i type="int" name="FOURORBIT">     0</i>
   <i name="AEXX">      0.00000000</i>
   <i name="HFALPHA">      0.00000000</i>
   <i name="MCALPHA">      0.00000000</i>
   <i name="ALDAX">      1.00000000</i>
   <i name="AGGAX">      1.00000000</i>
   <i name="ALDAC">      1.00000000</i>
   <i name="AGGAC">      1.00000000</i>
   <i type="int" name="NKREDX">     1</i>
   <i type="int" name="NKREDY">     1</i>
   <i type="int" name="NKREDZ">     1</i>
   <i type="logical" name="SHIFTRED"> F  </i>
   <i type="logical" name="ODDONLY"> F  </i>
   <i type="logical" name="EVENONLY"> F  </i>
   <i type="int" name="LMAXFOCK">     0</i>
   <i type="int" name="NMAXFOCKAE">     0</i>
   <i type="logical" name="LFOCKAEDFT"> F  </i>
   <i name="HFSCREEN">      0.00000000</i>
   <i name="HFSCREENC">      0.00000000</i>
   <i type="int" name="NBANDSGWLOW">     0</i>
  </separator>
  <separator name="vdW DFT" >
   <i type="logical" name="LUSE_VDW"> F  </i>
   <i name="Zab_VDW">     -0.84910000</i>
   <i name="PARAM1">      0.12340000</i>
   <i name="PARAM2">      1.00000000</i>
   <i name="PARAM3">      0.00000000</i>
  </separator>
  <separator name="model GW" >
   <i type="int" name="MODEL_GW">     0</i>
   <i name="MODEL_EPS0">     31.43256336</i>
   <i name="MODEL_ALPHA">      1.00000000</i>
  </separator>
  <separator name="linear response parameters" >
   <i type="logical" name="LEPSILON"> F  </i>
   <i type="logical" name="LRPA"> F  </i>
   <i type="logical" name="LNABLA"> F  </i>
   <i type="logical" name="LVEL"> F  </i>
   <i type="int" name="KINTER">     0</i>
   <i name="CSHIFT">      0.10000000</i>
   <i name="OMEGAMAX">     -1.00000000</i>
   <i name="DEG_THRESHOLD">      0.00200000</i>
   <i name="RTIME">     -0.10000000</i>
   <i name="WPLASMAI">      0.00000000</i>
   <v name="DFIELD">      0.00000000      0.00000000      0.00000000</v>
   <v name="WPLASMA">      0.00000000      0.00000000      0.00000000      0.00000000      0.00000000      0.00000000      0.00000000      0.00000000      0.00000000</v>
  </separator>
  <separator name="orbital magnetization" >
   <i type="logical" name="NUCIND"> F  </i>
   <v name="MAGPOS">      0.00000000      0.00000000      0.00000000</v>
   <i type="logical" name="LNICSALL"> T  </i>
   <i type="logical" name="ORBITALMAG"> F  </i>
   <i type="logical" name="LMAGBLOCH"> F  </i>
   <i type="logical" name="LCHIMAG"> F  </i>
   <i type="logical" name="LGAUGE"> T  </i>
   <i type="int" name="MAGATOM">     0</i>
   <v name="MAGDIPOL">      0.00000000      0.00000000      0.00000000</v>
   <v name="AVECCONST">      0.00000000      0.00000000      0.00000000</v>
  </separator>
  <separator name="response functions" >
   <i type="logical" name="LADDER"> F  </i>
   <i type="logical" name="LRPAFORCE"> F  </i>
   <i type="logical" name="LFXC"> F  </i>
   <i type="logical" name="LHARTREE"> T  </i>
   <i type="int" name="IBSE">     0</i>
   <v type="int" name="KPOINT">    -1     0     0     0</v>
   <i type="logical" name="LTCTE"> F  </i>
   <i type="logical" name="LTETE"> F  </i>
   <i type="logical" name="LTRIPLET"> F  </i>
   <i type="logical" name="LFXCEPS"> F  </i>
   <i type="logical" name="LFXHEG"> F  </i>
   <i type="int" name="NATURALO">     2</i>
   <i type="logical" name="L2ORDER"> F  </i>
   <i type="logical" name="LMP2LT"> F  </i>
   <i type="logical" name="LUSEW"> F  </i>
   <i name="ENCUTGW">     -2.00000000</i>
   <i name="ENCUTGWSOFT">     -2.00000000</i>
   <i name="ENCUTLF">     -1.00000000</i>
   <i type="int" name="LMAXMP2">    -1</i>
   <i name="SCISSOR">      0.00000000</i>
   <i type="int" name="NOMEGA">     0</i>
   <i type="int" name="NOMEGAR">     0</i>
   <i type="int" name="NBANDSGW">    -1</i>
   <i type="int" name="NBANDSO">    -1</i>
   <i type="int" name="NBANDSV">    -1</i>
   <i type="int" name="NELM">     1</i>
   <i type="int" name="NELMHF">     1</i>
   <i type="int" name="DIM">     3</i>
   <i type="int" name="ANTIRES">     0</i>
   <i name="OMEGAMAX">    -30.00000000</i>
   <i name="OMEGAMIN">    -30.00000000</i>
   <i name="OMEGATL">   -200.00000000</i>
   <i type="int" name="OMEGAGRID">   140</i>
   <i name="CSHIFT">     -0.10000000</i>
   <i type="logical" name="SELFENERGY"> F  </i>
   <i type="logical" name="LSPECTRAL"> F  </i>
   <i type="logical" name="LSPECTRALGW"> F  </i>
   <i type="logical" name="LSINGLES"> F  </i>
   <i type="logical" name="LFERMIGW"> F  </i>
   <i type="logical" name="ODDONLYGW"> F  </i>
   <i type="logical" name="EVENONLYGW"> F  </i>
   <i type="int" name="NKREDLFX">     1</i>
   <i type="int" name="NKREDLFY">     1</i>
   <i type="int" name="NKREDLFZ">     1</i>
   <i type="int" name="MAXMEM">  2800</i>
   <i type="int" name="TELESCOPE">     0</i>
   <i type="int" name="TAUPAR">     1</i>
   <i type="int" name="OMEGAPAR">    -1</i>
   <i name="LAMBDA">      1.00000000</i>
  </separator>
  <separator name="External order field" >
   <i name="OFIELD_KAPPA">      0.00000000</i>
   <v name="OFIELD_K">      0.00000000      0.00000000      0.00000000</v>
   <i name="OFIELD_Q6_NEAR">      0.00000000</i>
   <i name="OFIELD_Q6_FAR">      0.00000000</i>
   <i name="OFIELD_A">      0.00000000</i>
  </separator>
 </parameters>
 <atominfo>
  <atoms>       2 </atoms>
  <types>       1 </types>
  <array name="atoms" >
   <dimension dim="1">ion</dimension>
   <field type="string">element</field>
   <field type="int">atomtype</field>
   <set>
    <rc><c>C </c><c>   1</c></rc>
    <rc><c>C </c><c>   1</c></rc>
   </set>
  </array>
  <array name="atomtypes" >
   <dimension dim="1">type</dimension>
   <field type="int">atomspertype</field>
   <field type="string">element</field>
   <field>mass</field>
   <field>valence</field>
   <field type="string">pseudopotential</field>
   <set>
    <rc><c>   2</c><c>C </c><c>     12.01100000</c><c>      4.00000000</c><c> PAW_PBE C 08Apr2002                    </c></rc>
   </set>
  </array>
 </atominfo>
 <structure name="initialpos" >
  <crystal>
   <varray name="basis" >
    <v>       2.13000000      -1.22975600       0.00000000 </v>
    <v>       2.13000000       1.22975600       0.00000000 </v>
    <v>       0.00000000       0.00000000      20.00000000 </v>
   </varray>
   <i name="volume">    104.77521120 </i>
   <varray name="rec_basis" >
    <v>       0.23474178      -0.40658472       0.00000000 </v>
    <v>       0.23474178       0.40658472       0.00000000 </v>
    <v>       0.00000000       0.00000000       0.05000000 </v>
   </varray>
  </crystal>
  <varray name="positions" >
   <v>       0.00000000       0.00000000       0.00000000 </v>
   <v>       0.33333300       0.33333300       0.00000000 </v>
  </varray>
 </structure>
 <calculation>
  <scstep>
   <time name="dav">    0.19    0.19</time>
   <time name="total">    0.22    0.24</time>
   <energy>
    <i name="alphaZ">      3.11066570 </i>
    <i name="ewald">   1303.03316907 </i>
    <i name="hartreedc">  -1515.21333444 </i>
    <i name="XCdc">     27.59068089 </i>
    <i name="pawpsdc">     75.66288619 </i>
    <i name="pawaedc">    -77.96384553 </i>
    <i name="eentropy">     -0.00012010 </i>
    <i name="bandstr">    -66.34828439 </i>
    <i name="atom">    294.30884690 </i>
    <i name="e_fr_energy">     44.18066429 </i>
    <i name="e_wo_entrp">     44.18078439 </i>
    <i name="e_0_energy">     44.18072434 </i>
   </energy>
  </scstep>
  <scstep>
   <time name="dav">    0.22    0.22</time>
   <time name="total">    0.22    0.22</time>
   <energy>
    <i name="e_fr_energy">    -16.66019253 </i>
    <i name="e_wo_entrp">    -16.66019253 </i>
    <i name="e_0_energy">    -16.66019253 </i>
   </energy>
  </scstep>
  <scstep>
   <time name="dav">    0.26    0.27</time>
   <time name="total">    0.26    0.27</time>
   <energy>
    <i name="e_fr_energy">    -19.75041297 </i>
    <i name="e_wo_entrp">    -19.75036180 </i>
    <i name="e_0_energy">    -19.75038739 </i>
   </energy>
  </scstep>
  <scstep>
   <time name="dav">    0.28    0.28</time>
   <time name="total">    0.28    0.28</time>
   <energy>
    <i name="e_fr_energy">    -19.76823480 </i>
    <i name="e_wo_entrp">    -19.76818362 </i>
    <i name="e_0_energy">    -19.76820921 </i>
   </energy>
  </scstep>
  <scstep>
   <time name="dav">    0.28    0.28</time>
   <time name="total">    0.30    0.30</time>
   <energy>
    <i name="e_fr_energy">    -19.76825520 </i>
    <i name="e_wo_entrp">    -19.76820403 </i>
    <i name="e_0_energy">    -19.76822962 </i>
   </energy>
  </scstep>
  <scstep>
   <time name="dav">    0.25    0.26</time>
   <time name="total">    0.30    0.30</time>
   <energy>
    <i name="e_fr_energy">    -18.83261664 </i>
    <i name="e_wo_entrp">    -18.83256546 </i>
    <i name="e_0_energy">    -18.83259105 </i>
   </energy>
  </scstep>
  <scstep>
   <time name="dav">    0.27    0.27</time>
   <time name="total">    0.31    0.31</time>
   <energy>
    <i name="e_fr_energy">    -18.47408624 </i>
    <i name="e_wo_entrp">    -18.47403507 </i>
    <i name="e_0_energy">    -18.47406066 </i>
   </energy>
  </scstep>
  <scstep>
   <time name="dav">    0.26    0.26</time>
   <time name="total">    0.30    0.31</time>
   <energy>
    <i name="e_fr_energy">    -18.46320462 </i>
    <i name="e_wo_entrp">    -18.46315345 </i>
    <i name="e_0_energy">    -18.46317904 </i>
   </energy>
  </scstep>
  <scstep>
   <time name="dav">    0.24    0.24</time>
   <time name="total">    0.29    0.29</time>
   <energy>
    <i name="e_fr_energy">    -18.46069569 </i>
    <i name="e_wo_entrp">    -18.46064452 </i>
    <i name="e_0_energy">    -18.46067010 </i>
   </energy>
  </scstep>
  <scstep>
   <time name="dav">    0.23    0.23</time>
   <time name="total">    0.28    0.28</time>
   <energy>
    <i name="e_fr_energy">    -18.45597317 </i>
    <i name="e_wo_entrp">    -18.45592200 </i>
    <i name="e_0_energy">    -18.45594758 </i>
   </energy>
  </scstep>
  <scstep>
   <time name="dav">    0.21    0.22</time>
   <time name="total">    0.26    0.26</time>
   <energy>
    <i name="e_fr_energy">    -18.45564863 </i>
    <i name="e_wo_entrp">    -18.45559746 </i>
    <i name="e_0_energy">    -18.45562305 </i>
   </energy>
  </scstep>
  <scstep>
   <time name="dav">    0.21    0.21</time>
   <time name="total">    0.26    0.26</time>
   <energy>
    <i name="e_fr_energy">    -18.45687723 </i>
    <i name="e_wo_entrp">    -18.45682605 </i>
    <i name="e_0_energy">    -18.45685164 </i>
   </energy>
  </scstep>
  <scstep>
   <time name="dav">    0.23    0.23</time>
   <time name="total">    0.27    0.27</time>
   <energy>
    <i name="e_fr_energy">    -18.45699549 </i>
    <i name="e_wo_entrp">    -18.45694431 </i>
    <i name="e_0_energy">    -18.45696990 </i>
   </energy>
  </scstep>
  <scstep>
   <time name="dav">    0.20    0.20</time>
   <time name="total">    0.24    0.24</time>
   <energy>
    <i name="e_fr_energy">    -18.45724648 </i>
    <i name="e_wo_entrp">    -18.45719531 </i>
    <i name="e_0_energy">    -18.45722090 </i>
   </energy>
  </scstep>
  <scstep>
   <time name="dav">    0.23    0.23</time>
   <time name="total">    0.27    0.27</time>
   <energy>
    <i name="e_fr_energy">    -18.45734013 </i>
    <i name="e_wo_entrp">    -18.45728896 </i>
    <i name="e_0_energy">    -18.45731454 </i>
   </energy>
  </scstep>
  <scstep>
   <time name="dav">    0.21    0.21</time>
   <time name="total">    0.26    0.26</time>
   <energy>
    <i name="e_fr_energy">    -18.45761359 </i>
    <i name="e_wo_entrp">    -18.45756241 </i>
    <i name="e_0_energy">    -18.45758800 </i>
   </energy>
  </scstep>
  <scstep>
   <time name="dav">    0.21    0.21</time>
   <time name="total">    0.26    0.26</time>
   <energy>
    <i name="e_fr_energy">    -18.45765881 </i>
    <i name="e_wo_entrp">    -18.45760763 </i>
    <i name="e_0_energy">    -18.45763322 </i>
   </energy>
  </scstep>
  <scstep>
   <time name="dav">    0.21    0.21</time>
   <time name="total">    0.25    0.25</time>
   <energy>
    <i name="e_fr_energy">    -18.45768546 </i>
    <i name="e_wo_entrp">    -18.45763429 </i>
    <i name="e_0_energy">    -18.45765987 </i>
   </energy>
  </scstep>
  <scstep>
   <time name="dav">    0.21    0.21</time>
   <time name="total">    0.26    0.26</time>
   <energy>
    <i name="e_fr_energy">    -18.45768885 </i>
    <i name="e_wo_entrp">    -18.45763768 </i>
    <i name="e_0_energy">    -18.45766326 </i>
   </energy>
  </scstep>
  <scstep>
   <time name="dav">    0.24    0.24</time>
   <time name="total">    0.28    0.28</time>
   <energy>
    <i name="e_fr_energy">    -18.45768897 </i>
    <i name="e_wo_entrp">    -18.45763779 </i>
    <i name="e_0_energy">    -18.45766338 </i>
   </energy>
  </scstep>
  <scstep>
   <time name="dav">    0.20    0.20</time>
   <time name="total">    0.25    0.25</time>
   <energy>
    <i name="e_fr_energy">    -18.45768903 </i>
    <i name="e_wo_entrp">    -18.45763786 </i>
    <i name="e_0_energy">    -18.45766345 </i>
   </energy>
  </scstep>
  <scstep>
   <time name="dav">    0.23    0.23</time>
   <time name="total">    0.25    0.25</time>
   <energy>
    <i name="alphaZ">      3.11066570 </i>
    <i name="ewald">   1303.03316907 </i>
    <i name="hartreedc">  -1550.04196038 </i>
    <i name="XCdc">     28.81789765 </i>
    <i name="pawpsdc">    139.92183882 </i>
    <i name="pawaedc">   -142.50235946 </i>
    <i name="eentropy">     -0.00005117 </i>
    <i name="bandstr">    -95.10573617 </i>
    <i name="atom">    294.30884690 </i>
    <i name="e_fr_energy">    -18.45768903 </i>
    <i name="e_wo_entrp">    -18.45763786 </i>
    <i name="e_0_energy">    -18.45766345 </i>
   </energy>
  </scstep>
  <structure>
   <crystal>
    <varray name="basis" >
     <v>       2.13000000      -1.22975600       0.00000000 </v>
     <v>       2.13000000       1.22975600       0.00000000 </v>
     <v>       0.00000000       0.00000000      20.00000000 </v>
    </varray>
    <i name="volume">    104.77521120 </i>
    <varray name="rec_basis" >
     <v>       0.23474178      -0.40658472       0.00000000 </v>
     <v>       0.23474178       0.40658472       0.00000000 </v>
     <v>       0.00000000       0.00000000       0.05000000 </v>
    </varray>
   </crystal>
   <varray name="positions" >
    <v>       0.00000000       0.00000000       0.00000000 </v>
    <v>       0.33333300       0.33333300       0.00000000 </v>
   </varray>
  </structure>
  <varray name="forces" >
   <v>      -0.00000000       0.00000000       0.00000000 </v>
   <v>       0.00000000      -0.00000000      -0.00000000 </v>
  </varray>
  <varray name="stress" >
   <v>       6.40225079       0.00000000       0.00000000 </v>
   <v>       0.00000000       6.40225002       0.00000000 </v>
   <v>      -0.00000000      -0.00000000      -0.34617748 </v>
  </varray>
  <energy>
   <i name="e_fr_energy">    -18.45768903 </i>
   <i name="e_wo_entrp">    -18.45766345 </i>
   <i name="e_0_energy">     -0.00005117 </i>
  </energy>
  <time name="totalsc">    6.73    6.99</time>
  <eigenvalues>
   <array>
    <dimension dim="1">band</dimension>
    <dimension dim="2">kpoint</dimension>
    <dimension dim="3">spin</dimension>
    <field>eigene</field>
    <field>occ</field>
    <set>
     <set comment="spin 1">
      <set comment="kpoint 1">
       <r>  -22.2970    1.0000 </r>
       <r>  -10.3901    1.0000 </r>
       <r>   -5.7500    1.0000 </r>
       <r>   -5.7499    1.0000 </r>
       <r>    0.5265    0.0000 </r>
       <r>    1.3278    0.0000 </r>
       <r>    1.6959    0.0000 </r>
       <r>    2.6035    0.0000 </r>
       <r>    3.0651    0.0000 </r>
       <r>    4.7306    0.0000 </r>
       <r>    5.3451    0.0000 </r>
       <r>    5.6502    0.0000 </r>
      </set>
      <set comment="kpoint 2">
       <r>  -22.2432    1.0000 </r>
       <r>  -10.3257    1.0000 </r>
       <r>   -5.9708    1.0000 </r>
       <r>   -5.8668    1.0000 </r>
       <r>    0.5996    0.0000 </r>
       <r>    1.4019    0.0000 </r>
       <r>    1.7708    0.0000 </r>
       <r>    2.6778    0.0000 </r>
       <r>    3.1391    0.0000 </r>
       <r>    4.8042    0.0000 </r>
       <r>    5.4123    0.0000 </r>
       <r>    5.6875    0.0000 </r>
      </set>
      <set comment="kpoint 3">
       <r>  -22.0818    1.0000 </r>
       <r>  -10.1329    1.0000 </r>
       <r>   -6.5907    1.0000 </r>
       <r>   -6.1866    1.0000 </r>
       <r>    0.8189    0.0000 </r>
       <r>    1.6239    0.0000 </r>
       <r>    1.9956    0.0000 </r>
       <r>    2.9006    0.0000 </r>
       <r>    3.3613    0.0000 </r>
       <r>    5.0246    0.0000 </r>
       <r>    5.5931    0.0000 </r>
       <r>    5.7759    0.0000 </r>
      </set>
      <set comment="kpoint 4">
       <r>  -21.8136    1.0000 </r>
       <r>   -9.8135    1.0000 </r>
       <r>   -7.5101    1.0000 </r>
       <r>   -6.6382    1.0000 </r>
       <r>    1.1843    0.0000 </r>
       <r>    1.9936    0.0000 </r>
       <r>    2.3704    0.0000 </r>
       <r>    3.2716    0.0000 </r>
       <r>    3.7315    0.0000 </r>
       <r>    5.3909    0.0000 </r>
       <r>    5.6801    0.0000 </r>
       <r>    6.0459    0.0000 </r>
      </set>
      <set comment="kpoint 5">
       <r>  -21.4394    1.0000 </r>
       <r>   -9.3707    1.0000 </r>
       <r>   -8.6227    1.0000 </r>
       <r>   -7.1470    1.0000 </r>
       <r>    1.6956    0.0000 </r>
       <r>    2.5096    0.0000 </r>
       <r>    2.8950    0.0000 </r>
       <r>    3.7895    0.0000 </r>
       <r>    4.2488    0.0000 </r>
       <r>    5.6000    0.0000 </r>
       <r>    5.8818    0.0000 </r>
       <r>    6.1624    0.0000 </r>
      </set>
      <set comment="kpoint 6">
       <r>  -20.9608    1.0000 </r>
       <r>   -9.8424    1.0000 </r>
       <r>   -8.8096    1.0000 </r>
       <r>   -7.6540    1.0000 </r>
       <r>    2.3521    0.0000 </r>
       <r>    3.1667    0.0000 </r>
       <r>    3.5693    0.0000 </r>
       <r>    4.4366    0.0000 </r>
       <r>    4.9054    0.0000 </r>
       <r>    4.9289    0.0000 </r>
       <r>    5.4540    0.0000 </r>
       <r>    6.5718    0.0000 </r>
      </set>
      <set comment="kpoint 7">
       <r>  -20.3801    1.0000 </r>
       <r>  -11.1063    1.0000 </r>
       <r>   -8.1396    1.0000 </r>
       <r>   -8.1184    1.0000 </r>
       <r>    3.1519    0.0000 </r>
       <r>    3.5047    0.0000 </r>
       <r>    4.0521    0.0000 </r>
       <r>    4.3926    0.0000 </r>
       <r>    5.2326    0.0000 </r>
       <r>    5.2849    0.0000 </r>
       <r>    5.7596    0.0000 </r>
       <r>    7.3718    0.0000 </r>
      </set>
      <set comment="kpoint 8">
       <r>  -19.7006    1.0000 </r>
       <r>  -12.3699    1.0000 </r>
       <r>   -8.5133    1.0000 </r>
       <r>   -7.3772    1.0000 </r>
       <r>    2.2157    0.0000 </r>
       <r>    4.0890    0.0000 </r>
       <r>    4.9619    0.0000 </r>
       <r>    5.0658    0.0000 </r>
       <r>    5.3753    0.0000 </r>
       <r>    6.2418    0.0000 </r>
       <r>    6.7095    0.0000 </r>
       <r>    8.3130    0.0000 </r>
      </set>
      <set comment="kpoint 9">
       <r>  -18.9287    1.0000 </r>
       <r>  -13.5997    1.0000 </r>
       <r>   -8.8215    1.0000 </r>
       <r>   -6.5562    1.0000 </r>
       <r>    0.9337    0.0000 </r>
       <r>    4.8600    0.0000 </r>
       <r>    5.2378    0.0000 </r>
       <r>    6.0556    0.0000 </r>
       <r>    6.4942    0.0000 </r>
       <r>    7.3458    0.0000 </r>
       <r>    7.8165    0.0000 </r>
       <r>    9.3863    0.0000 </r>
      </set>
      <set comment="kpoint 10">
       <r>  -18.0792    1.0000 </r>
       <r>  -14.7630    1.0000 </r>
       <r>   -9.0321    1.0000 </r>
       <r>   -5.7568    1.0000 </r>
       <r>   -0.1905    0.0000 </r>
       <r>    4.7904    0.0000 </r>
       <r>    6.4249    0.0000 </r>
       <r>    7.2891    0.0000 </r>
       <r>    7.7668    0.0000 </r>
       <r>    8.5902    0.0000 </r>
       <r>    9.0693    0.0000 </r>
       <r>   10.5585    0.0000 </r>
      </set>
      <set comment="kpoint 11">
       <r>  -17.2344    1.0000 </r>
       <r>  -15.7672    1.0000 </r>
       <r>   -9.1388    1.0000 </r>
       <r>   -5.1841    1.0000 </r>
       <r>   -0.9305    0.0000 </r>
       <r>    4.7389    0.0000 </r>
       <r>    7.7721    0.0000 </r>
       <r>    8.6460    0.0000 </r>
       <r>    9.1834    0.0000 </r>
       <r>    9.2509    0.0000 </r>
       <r>    9.9219    0.0000 </r>
       <r>   10.1745    0.0000 </r>
      </set>
      <set comment="kpoint 12">
       <r>  -22.1356    1.0000 </r>
       <r>  -10.1971    1.0000 </r>
       <r>   -6.3758    1.0000 </r>
       <r>   -6.1006    1.0000 </r>
       <r>    0.7458    0.0000 </r>
       <r>    1.5499    0.0000 </r>
       <r>    1.9207    0.0000 </r>
       <r>    2.8264    0.0000 </r>
       <r>    3.2873    0.0000 </r>
       <r>    4.9512    0.0000 </r>
       <r>    5.5437    0.0000 </r>
       <r>    5.7848    0.0000 </r>
      </set>
      <set comment="kpoint 13">
       <r>  -21.9208    1.0000 </r>
       <r>   -9.9410    1.0000 </r>
       <r>   -7.1127    1.0000 </r>
       <r>   -6.5197    1.0000 </r>
       <r>    1.0382    0.0000 </r>
       <r>    1.8458    0.0000 </r>
       <r>    2.2205    0.0000 </r>
       <r>    3.1233    0.0000 </r>
       <r>    3.5836    0.0000 </r>
       <r>    5.2447    0.0000 </r>
       <r>    5.7615    0.0000 </r>
       <r>    5.9617    0.0000 </r>
      </set>
      <set comment="kpoint 14">
       <r>  -21.5996    1.0000 </r>
       <r>   -9.5597    1.0000 </r>
       <r>   -8.0987    1.0000 </r>
       <r>   -7.0306    1.0000 </r>
       <r>    1.4767    0.0000 </r>
       <r>    2.2889    0.0000 </r>
       <r>    2.6702    0.0000 </r>
       <r>    3.5680    0.0000 </r>
       <r>    4.0278    0.0000 </r>
       <r>    5.6823    0.0000 </r>
       <r>    5.8318    0.0000 </r>
       <r>    6.3360    0.0000 </r>
      </set>
      <set comment="kpoint 15">
       <r>  -21.1732    1.0000 </r>
       <r>   -9.2435    1.0000 </r>
       <r>   -9.0574    1.0000 </r>
       <r>   -7.5605    1.0000 </r>
       <r>    2.0609    0.0000 </r>
       <r>    2.8769    0.0000 </r>
       <r>    3.2698    0.0000 </r>
       <r>    4.1574    0.0000 </r>
       <r>    4.6183    0.0000 </r>
       <r>    5.4519    0.0000 </r>
       <r>    5.7454    0.0000 </r>
       <r>    6.2787    0.0000 </r>
      </set>
      <set comment="kpoint 16">
       <r>  -20.6435    1.0000 </r>
       <r>  -10.4715    1.0000 </r>
       <r>   -8.4410    1.0000 </r>
       <r>   -8.0604    1.0000 </r>
       <r>    2.7895    0.0000 </r>
       <r>    3.5842    0.0000 </r>
       <r>    4.0189    0.0000 </r>
       <r>    4.2029    0.0000 </r>
       <r>    4.9193    0.0000 </r>
       <r>    5.3295    0.0000 </r>
       <r>    5.6166    0.0000 </r>
       <r>    7.0046    0.0000 </r>
      </set>
      <set comment="kpoint 17">
       <r>  -20.0134    1.0000 </r>
       <r>  -11.7267    1.0000 </r>
       <r>   -8.4987    1.0000 </r>
       <r>   -7.7226    1.0000 </r>
       <r>    2.8393    0.0000 </r>
       <r>    3.6603    0.0000 </r>
       <r>    4.5221    0.0000 </r>
       <r>    4.9157    0.0000 </r>
       <r>    5.3911    0.0000 </r>
       <r>    5.7968    0.0000 </r>
       <r>    6.2700    0.0000 </r>
       <r>    7.8744    0.0000 </r>
      </set>
      <set comment="kpoint 18">
       <r>  -19.2873    1.0000 </r>
       <r>  -12.9685    1.0000 </r>
       <r>   -8.8554    1.0000 </r>
       <r>   -6.9253    1.0000 </r>
       <r>    1.5390    0.0000 </r>
       <r>    4.6590    0.0000 </r>
       <r>    5.2432    0.0000 </r>
       <r>    5.5403    0.0000 </r>
       <r>    5.9710    0.0000 </r>
       <r>    6.8275    0.0000 </r>
       <r>    7.3001    0.0000 </r>
       <r>    8.8789    0.0000 </r>
      </set>
      <set comment="kpoint 19">
       <r>  -18.4743    1.0000 </r>
       <r>  -14.1642    1.0000 </r>
       <r>   -9.1177    1.0000 </r>
       <r>   -6.0996    1.0000 </r>
       <r>    0.3261    0.0000 </r>
       <r>    5.0714    0.0000 </r>
       <r>    5.8590    0.0000 </r>
       <r>    6.7030    0.0000 </r>
       <r>    7.1679    0.0000 </r>
       <r>    8.0002    0.0000 </r>
       <r>    8.4800    0.0000 </r>
       <r>    9.9997    0.0000 </r>
      </set>
      <set comment="kpoint 20">
       <r>  -17.6052    1.0000 </r>
       <r>  -15.2683    1.0000 </r>
       <r>   -9.2778    1.0000 </r>
       <r>   -5.3737    1.0000 </r>
       <r>   -0.6421    0.0000 </r>
       <r>    5.0016    0.0000 </r>
       <r>    7.1352    0.0000 </r>
       <r>    7.9951    0.0000 </r>
       <r>    8.5149    0.0000 </r>
       <r>    9.3034    0.0000 </r>
       <r>    9.7990    0.0000 </r>
       <r>   10.0552    0.0000 </r>
      </set>
      <set comment="kpoint 21">
       <r>  -16.9863    1.0000 </r>
       <r>  -15.9664    1.0000 </r>
       <r>   -9.3316    1.0000 </r>
       <r>   -5.0476    1.0000 </r>
       <r>   -1.0506    0.0000 </r>
       <r>    4.9753    0.0000 </r>
       <r>    8.4673    0.0000 </r>
       <r>    8.6233    0.0000 </r>
       <r>    9.2726    0.0000 </r>
       <r>    9.5288    0.0000 </r>
       <r>   10.0063    0.0000 </r>
       <r>   10.0153    0.0000 </r>
      </set>
      <set comment="kpoint 22">
       <r>  -21.6530    1.0000 </r>
       <r>   -9.6229    1.0000 </r>
       <r>   -7.8548    1.0000 </r>
       <r>   -7.0602    1.0000 </r>
       <r>    1.4039    0.0000 </r>
       <r>    2.2152    0.0000 </r>
       <r>    2.5953    0.0000 </r>
       <r>    3.4941    0.0000 </r>
       <r>    3.9543    0.0000 </r>
       <r>    5.6109    0.0000 </r>
       <r>    6.0611    0.0000 </r>
       <r>    6.3174    0.0000 </r>
      </set>
      <set comment="kpoint 23">
       <r>  -21.2796    1.0000 </r>
       <r>   -9.1819    1.0000 </r>
       <r>   -8.7977    1.0000 </r>
       <r>   -7.6688    1.0000 </r>
       <r>    1.9154    0.0000 </r>
       <r>    2.7311    0.0000 </r>
       <r>    3.1200    0.0000 </r>
       <r>    4.0121    0.0000 </r>
       <r>    4.4729    0.0000 </r>
       <r>    5.7558    0.0000 </r>
       <r>    6.1246    0.0000 </r>
       <r>    6.2862    0.0000 </r>
      </set>
      <set comment="kpoint 24">
       <r>  -20.8022    1.0000 </r>
       <r>   -9.8975    1.0000 </r>
       <r>   -8.6232    1.0000 </r>
       <r>   -8.2459    1.0000 </r>
       <r>    2.5722    0.0000 </r>
       <r>    3.3889    0.0000 </r>
       <r>    3.7945    0.0000 </r>
       <r>    4.5762    0.0000 </r>
       <r>    4.7163    0.0000 </r>
       <r>    5.1378    0.0000 </r>
       <r>    6.2850    0.0000 </r>
       <r>    6.7785    0.0000 </r>
      </set>
      <set comment="kpoint 25">
       <r>  -20.2230    1.0000 </r>
       <r>  -11.0852    1.0000 </r>
       <r>   -8.7517    1.0000 </r>
       <r>   -7.9558    1.0000 </r>
       <r>    3.3461    0.0000 </r>
       <r>    3.3728    0.0000 </r>
       <r>    4.2215    0.0000 </r>
       <r>    4.6186    0.0000 </r>
       <r>    5.4949    0.0000 </r>
       <r>    5.9210    0.0000 </r>
       <r>    6.1915    0.0000 </r>
       <r>    7.5736    0.0000 </r>
      </set>
      <set comment="kpoint 26">
       <r>  -19.5458    1.0000 </r>
       <r>  -12.3010    1.0000 </r>
       <r>   -9.1698    1.0000 </r>
       <r>   -7.1957    1.0000 </r>
       <r>    2.0836    0.0000 </r>
       <r>    4.3144    0.0000 </r>
       <r>    5.1628    0.0000 </r>
       <r>    5.5898    0.0000 </r>
       <r>    5.9873    0.0000 </r>
       <r>    6.4507    0.0000 </r>
       <r>    6.9347    0.0000 </r>
       <r>    8.5015    0.0000 </r>
      </set>
      <set comment="kpoint 27">
       <r>  -18.7770    1.0000 </r>
       <r>  -13.5003    1.0000 </r>
       <r>   -9.4906    1.0000 </r>
       <r>   -6.3753    1.0000 </r>
       <r>    0.8473    0.0000 </r>
       <r>    5.3794    0.0000 </r>
       <r>    5.8618    0.0000 </r>
       <r>    6.2500    0.0000 </r>
       <r>    6.7194    0.0000 </r>
       <r>    7.5473    0.0000 </r>
       <r>    8.0377    0.0000 </r>
       <r>    9.5421    0.0000 </r>
      </set>
      <set comment="kpoint 28">
       <r>  -17.9320    1.0000 </r>
       <r>  -14.6436    1.0000 </r>
       <r>   -9.7077    1.0000 </r>
       <r>   -5.5720    1.0000 </r>
       <r>   -0.2499    0.0000 </r>
       <r>    5.7166    0.0000 </r>
       <r>    6.6402    0.0000 </r>
       <r>    7.4640    0.0000 </r>
       <r>    7.9910    0.0000 </r>
       <r>    8.7731    0.0000 </r>
       <r>    9.2876    0.0000 </r>
       <r>   10.5874    0.0000 </r>
      </set>
      <set comment="kpoint 29">
       <r>  -17.0937    1.0000 </r>
       <r>  -15.6343    1.0000 </r>
       <r>   -9.8172    1.0000 </r>
       <r>   -4.9898    1.0000 </r>
       <r>   -0.9840    0.0000 </r>
       <r>    5.6688    0.0000 </r>
       <r>    7.9747    0.0000 </r>
       <r>    8.7609    0.0000 </r>
       <r>    9.3986    0.0000 </r>
       <r>    9.4412    0.0000 </r>
       <r>    9.9665    0.0000 </r>
       <r>   10.3647    0.0000 </r>
      </set>
      <set comment="kpoint 30">
       <r>  -20.8552    1.0000 </r>
       <r>   -9.6128    1.0000 </r>
       <r>   -8.6842    1.0000 </r>
       <r>   -8.4078    1.0000 </r>
       <r>    2.4997    0.0000 </r>
       <r>    3.3192    0.0000 </r>
       <r>    3.7197    0.0000 </r>
       <r>    4.6032    0.0000 </r>
       <r>    4.7638    0.0000 </r>
       <r>    5.0662    0.0000 </r>
       <r>    6.7012    0.0000 </r>
       <r>    6.8336    0.0000 </r>
      </set>
      <set comment="kpoint 31">
       <r>  -20.3282    1.0000 </r>
       <r>  -10.5793    1.0000 </r>
       <r>   -9.0845    1.0000 </r>
       <r>   -8.0732    1.0000 </r>
       <r>    3.2286    0.0000 </r>
       <r>    3.6521    0.0000 </r>
       <r>    4.0564    0.0000 </r>
       <r>    4.4691    0.0000 </r>
       <r>    5.3401    0.0000 </r>
       <r>    5.8060    0.0000 </r>
       <r>    7.1047    0.0000 </r>
       <r>    7.4192    0.0000 </r>
      </set>
      <set comment="kpoint 32">
       <r>  -19.7019    1.0000 </r>
       <r>  -11.6709    1.0000 </r>
       <r>   -9.6274    1.0000 </r>
       <r>   -7.3605    1.0000 </r>
       <r>    2.4803    0.0000 </r>
       <r>    4.1002    0.0000 </r>
       <r>    4.9280    0.0000 </r>
       <r>    5.3681    0.0000 </r>
       <r>    6.2201    0.0000 </r>
       <r>    6.6790    0.0000 </r>
       <r>    7.0865    0.0000 </r>
       <r>    8.2663    0.0000 </r>
      </set>
      <set comment="kpoint 33">
       <r>  -18.9811    1.0000 </r>
       <r>  -12.8163    1.0000 </r>
       <r>  -10.0385    1.0000 </r>
       <r>   -6.5671    1.0000 </r>
       <r>    1.2899    0.0000 </r>
       <r>    5.1112    0.0000 </r>
       <r>    5.9370    0.0000 </r>
       <r>    6.4151    0.0000 </r>
       <r>    6.9302    0.0000 </r>
       <r>    7.2379    0.0000 </r>
       <r>    7.7478    0.0000 </r>
       <r>    9.2154    0.0000 </r>
      </set>
      <set comment="kpoint 34">
       <r>  -18.1759    1.0000 </r>
       <r>  -13.9537    1.0000 </r>
       <r>  -10.3283    1.0000 </r>
       <r>   -5.7393    1.0000 </r>
       <r>    0.1562    0.0000 </r>
       <r>    6.2481    0.0000 </r>
       <r>    6.8228    0.0000 </r>
       <r>    7.0647    0.0000 </r>
       <r>    7.6175    0.0000 </r>
       <r>    8.3779    0.0000 </r>
       <r>    8.9197    0.0000 </r>
       <r>   10.1540    0.0000 </r>
      </set>
      <set comment="kpoint 35">
       <r>  -17.3177    1.0000 </r>
       <r>  -15.0211    1.0000 </r>
       <r>  -10.5012    1.0000 </r>
       <r>   -4.9978    1.0000 </r>
       <r>   -0.7784    0.0000 </r>
       <r>    6.7120    0.0000 </r>
       <r>    7.5541    0.0000 </r>
       <r>    8.2546    0.0000 </r>
       <r>    8.9626    0.0000 </r>
       <r>    9.5636    0.0000 </r>
       <r>   10.2169    0.0000 </r>
       <r>   10.3627    0.0000 </r>
      </set>
      <set comment="kpoint 36">
       <r>  -16.7101    1.0000 </r>
       <r>  -15.6999    1.0000 </r>
       <r>  -10.5588    1.0000 </r>
       <r>   -4.6548    1.0000 </r>
       <r>   -1.1873    0.0000 </r>
       <r>    6.6897    0.0000 </r>
       <r>    8.8386    0.0000 </r>
       <r>    9.0228    0.0000 </r>
       <r>    9.0762    0.0000 </r>
       <r>    9.9739    0.0000 </r>
       <r>   10.4500    0.0000 </r>
       <r>   10.4615    0.0000 </r>
      </set>
      <set comment="kpoint 37">
       <r>  -19.7540    1.0000 </r>
       <r>  -11.3415    1.0000 </r>
       <r>   -9.9066    1.0000 </r>
       <r>   -7.4158    1.0000 </r>
       <r>    2.6291    0.0000 </r>
       <r>    4.0283    0.0000 </r>
       <r>    4.8469    0.0000 </r>
       <r>    5.2935    0.0000 </r>
       <r>    6.1420    0.0000 </r>
       <r>    6.6204    0.0000 </r>
       <r>    7.9228    0.0000 </r>
       <r>    8.1858    0.0000 </r>
      </set>
      <set comment="kpoint 38">
       <r>  -19.0839    1.0000 </r>
       <r>  -12.2513    1.0000 </r>
       <r>  -10.5546    1.0000 </r>
       <r>   -6.6653    1.0000 </r>
       <r>    1.5520    0.0000 </r>
       <r>    4.9688    0.0000 </r>
       <r>    5.7744    0.0000 </r>
       <r>    6.2672    0.0000 </r>
       <r>    7.0793    0.0000 </r>
       <r>    7.5739    0.0000 </r>
       <r>    8.2007    0.0000 </r>
       <r>    9.0416    0.0000 </r>
      </set>
      <set comment="kpoint 39">
       <r>  -18.3250    1.0000 </r>
       <r>  -13.2770    1.0000 </r>
       <r>  -10.9944    1.0000 </r>
       <r>   -5.8493    1.0000 </r>
       <r>    0.4699    0.0000 </r>
       <r>    6.0452    0.0000 </r>
       <r>    6.8100    0.0000 </r>
       <r>    7.3892    0.0000 </r>
       <r>    8.1011    0.0000 </r>
       <r>    8.1296    0.0000 </r>
       <r>    8.7074    0.0000 </r>
       <r>    9.8441    0.0000 </r>
      </set>
      <set comment="kpoint 40">
       <r>  -17.4942    1.0000 </r>
       <r>  -14.3253    1.0000 </r>
       <r>  -11.2657    1.0000 </r>
       <r>   -5.0334    1.0000 </r>
       <r>   -0.5352    0.0000 </r>
       <r>    7.2434    0.0000 </r>
       <r>    7.8688    0.0000 </r>
       <r>    8.0129    0.0000 </r>
       <r>    8.6643    0.0000 </r>
       <r>    9.2039    0.0000 </r>
       <r>    9.9389    0.0000 </r>
       <r>   10.3428    0.0000 </r>
      </set>
      <set comment="kpoint 41">
       <r>  -16.6743    1.0000 </r>
       <r>  -15.2641    1.0000 </r>
       <r>  -11.3962    1.0000 </r>
       <r>   -4.4130    1.0000 </r>
       <r>   -1.2544    0.0000 </r>
       <r>    7.9295    0.0000 </r>
       <r>    8.5763    0.0000 </r>
       <r>    8.6186    0.0000 </r>
       <r>    9.9264    0.0000 </r>
       <r>   10.0863    0.0000 </r>
       <r>   10.0966    0.0000 </r>
       <r>   11.0058    0.0000 </r>
      </set>
      <set comment="kpoint 42">
       <r>  -18.3751    1.0000 </r>
       <r>  -12.9063    1.0000 </r>
       <r>  -11.3671    1.0000 </r>
       <r>   -5.8874    1.0000 </r>
       <r>    0.5895    0.0000 </r>
       <r>    5.9742    0.0000 </r>
       <r>    6.7209    0.0000 </r>
       <r>    7.3153    0.0000 </r>
       <r>    8.0439    0.0000 </r>
       <r>    8.6016    0.0000 </r>
       <r>    9.2593    0.0000 </r>
       <r>    9.7305    0.0000 </r>
      </set>
      <set comment="kpoint 43">
       <r>  -17.5871    1.0000 </r>
       <r>  -13.7205    1.0000 </r>
       <r>  -11.9149    1.0000 </r>
       <r>   -5.0609    1.0000 </r>
       <r>   -0.3721    0.0000 </r>
       <r>    7.1069    0.0000 </r>
       <r>    7.6498    0.0000 </r>
       <r>    8.5109    0.0000 </r>
       <r>    9.0070    0.0000 </r>
       <r>    9.3493    0.0000 </r>
       <r>    9.8057    0.0000 </r>
       <r>   10.1435    0.0000 </r>
      </set>
      <set comment="kpoint 44">
       <r>  -16.7521    1.0000 </r>
       <r>  -14.6263    1.0000 </r>
       <r>  -12.2000    1.0000 </r>
       <r>   -4.2786    1.0000 </r>
       <r>   -1.2381    0.0000 </r>
       <r>    8.2015    0.0000 </r>
       <r>    8.3403    0.0000 </r>
       <r>    9.2726    0.0000 </r>
       <r>    9.8568    0.0000 </r>
       <r>    9.9161    0.0000 </r>
       <r>   10.6571    0.0000 </r>
       <r>   10.9797    0.0000 </r>
      </set>
      <set comment="kpoint 45">
       <r>  -16.1589    1.0000 </r>
       <r>  -15.2529    1.0000 </r>
       <r>  -12.2872    1.0000 </r>
       <r>   -3.8750    1.0000 </r>
       <r>   -1.6701    0.0000 </r>
       <r>    8.3058    0.0000 </r>
       <r>    9.1925    0.0000 </r>
       <r>    9.5161    0.0000 </r>
       <r>    9.8086    0.0000 </r>
       <r>   10.8629    0.0000 </r>
       <r>   11.3288    0.0000 </r>
       <r>   11.3504    0.0000 </r>
      </set>
      <set comment="kpoint 46">
       <r>  -16.7867    1.0000 </r>
       <r>  -14.2470    1.0000 </r>
       <r>  -12.6299    1.0000 </r>
       <r>   -4.2374    1.0000 </r>
       <r>   -1.2193    0.0000 </r>
       <r>    8.0426    0.0000 </r>
       <r>    8.2733    0.0000 </r>
       <r>    9.7767    0.0000 </r>
       <r>    9.8386    0.0000 </r>
       <r>   10.3250    0.0000 </r>
       <r>   10.4422    0.0000 </r>
       <r>   10.9280    0.0000 </r>
      </set>
      <set comment="kpoint 47">
       <r>  -15.9952    1.0000 </r>
       <r>  -14.9109    1.0000 </r>
       <r>  -12.9848    1.0000 </r>
       <r>   -3.4995    1.0000 </r>
       <r>   -1.9652    0.0000 </r>
       <r>    8.0229    0.0000 </r>
       <r>    9.4613    0.0000 </r>
       <r>   10.2082    0.0000 </r>
       <r>   10.6041    0.0000 </r>
       <r>   10.9982    0.0000 </r>
       <r>   11.1970    0.0000 </r>
       <r>   12.1087    0.0000 </r>
      </set>
      <set comment="kpoint 48">
       <r>  -15.3357    1.0000 </r>
       <r>  -15.3356    1.0000 </r>
       <r>  -13.3265    1.0000 </r>
       <r>   -2.7217    0.5007 </r>
       <r>   -2.7217    0.4993 </r>
       <r>    7.9118    0.0000 </r>
       <r>   10.2206    0.0000 </r>
       <r>   10.2206    0.0000 </r>
       <r>   10.8102    0.0000 </r>
       <r>   12.1929    0.0000 </r>
       <r>   12.1929    0.0000 </r>
       <r>   12.5542    0.0000 </r>
      </set>
     </set>
    </set>
   </array>
  </eigenvalues>
  <separator name="orbital magnetization" >
   <v name="MAGDIPOLOUT">      0.00000000      0.00000000      0.00000000</v>
  </separator>
  <dos>
   <i name="efermi">     -2.72173432 </i>
   <total>
    <array>
     <dimension dim="1">gridpoints</dimension>
     <dimension dim="2">spin</dimension>
     <field>energy</field>
     <field>total</field>
     <field>integrated</field>
     <set>
      <set comment="spin 1">
       <r>   -24.0395     0.0000     0.0000 </r>
       <r>   -23.9118     0.0000     0.0000 </r>
       <r>   -23.7840     0.0000     0.0000 </r>
       <r>   -23.6562     0.0000     0.0000 </r>
       <r>   -23.5284     0.0000     0.0000 </r>
       <r>   -23.4006     0.0000     0.0000 </r>
       <r>   -23.2728     0.0000     0.0000 </r>
       <r>   -23.1450     0.0000     0.0000 </r>
       <r>   -23.0172     0.0000     0.0000 </r>
       <r>   -22.8895     0.0000     0.0000 </r>
       <r>   -22.7617     0.0000     0.0000 </r>
       <r>   -22.6339     0.0000     0.0000 </r>
       <r>   -22.5061     0.0000     0.0000 </r>
       <r>   -22.3783     0.0000     0.0000 </r>
       <r>   -22.2505     0.0672     0.0086 </r>
       <r>   -22.1227     0.2056     0.0580 </r>
       <r>   -21.9949     0.0000     0.0862 </r>
       <r>   -21.8672     0.4259     0.1406 </r>
       <r>   -21.7394     0.2129     0.1678 </r>
       <r>   -21.6116     0.2321     0.1975 </r>
       <r>   -21.4838     0.0000     0.2494 </r>
       <r>   -21.3560     0.0000     0.2766 </r>
       <r>   -21.2282     0.4259     0.3311 </r>
       <r>   -21.1004     0.4259     0.3855 </r>
       <r>   -20.9726     0.0101     0.3868 </r>
       <r>   -20.8449     0.1975     0.4379 </r>
       <r>   -20.7171     0.0000     0.4943 </r>
       <r>   -20.5893     0.4259     0.5488 </r>
       <r>   -20.4615     0.0000     0.5488 </r>
       <r>   -20.3337     0.3057     0.5878 </r>
       <r>   -20.2059     0.4226     0.6844 </r>
       <r>   -20.0781     0.0000     0.6848 </r>
       <r>   -19.9503     0.4259     0.7392 </r>
       <r>   -19.8226     0.0000     0.7392 </r>
       <r>   -19.6948     0.7414     0.8340 </r>
       <r>   -19.5670     0.0006     0.8481 </r>
       <r>   -19.4392     0.0000     0.9025 </r>
       <r>   -19.3114     0.0001     0.9025 </r>
       <r>   -19.1836     0.0000     0.9569 </r>
       <r>   -19.0558     0.4259     1.0113 </r>
       <r>   -18.9280     0.5397     1.0803 </r>
       <r>   -18.8003     0.0002     1.0930 </r>
       <r>   -18.6725     0.0000     1.1474 </r>
       <r>   -18.5447     0.0000     1.1474 </r>
       <r>   -18.4169     0.4259     1.2018 </r>
       <r>   -18.2891     0.4259     1.2834 </r>
       <r>   -18.1613     0.4174     1.3368 </r>
       <r>   -18.0335     0.2129     1.3651 </r>
       <r>   -17.9057     0.4258     1.4195 </r>
       <r>   -17.7780     0.0000     1.4195 </r>
       <r>   -17.6502     0.0000     1.4195 </r>
       <r>   -17.5224     0.4259     1.5283 </r>
       <r>   -17.3946     0.0000     1.5828 </r>
       <r>   -17.2668     0.4259     1.6372 </r>
       <r>   -17.1390     0.0000     1.6644 </r>
       <r>   -17.0112     0.0000     1.7188 </r>
       <r>   -16.8834     0.0000     1.7460 </r>
       <r>   -16.7556     0.3448     1.7901 </r>
       <r>   -16.6279     0.4259     1.9093 </r>
       <r>   -16.5001     0.0000     1.9093 </r>
       <r>   -16.3723     0.0000     1.9093 </r>
       <r>   -16.2445     0.0000     1.9093 </r>
       <r>   -16.1167     0.2129     1.9365 </r>
       <r>   -15.9889     0.3469     1.9808 </r>
       <r>   -15.8611     0.0000     2.0181 </r>
       <r>   -15.7333     0.2129     2.0454 </r>
       <r>   -15.6056     0.4259     2.1270 </r>
       <r>   -15.4778     0.0000     2.1270 </r>
       <r>   -15.3500     0.0030     2.1274 </r>
       <r>   -15.2222     1.0647     2.2812 </r>
       <r>   -15.0944     0.0000     2.2812 </r>
       <r>   -14.9666     0.4259     2.3356 </r>
       <r>   -14.8388     0.4259     2.3900 </r>
       <r>   -14.7110     0.2129     2.4172 </r>
       <r>   -14.5833     0.8518     2.5261 </r>
       <r>   -14.4555     0.0000     2.5261 </r>
       <r>   -14.3277     0.1577     2.5462 </r>
       <r>   -14.1999     0.2129     2.6077 </r>
       <r>   -14.0721     0.0000     2.6621 </r>
       <r>   -13.9443     0.3861     2.7115 </r>
       <r>   -13.8165     0.0000     2.7166 </r>
       <r>   -13.6887     0.4259     2.7710 </r>
       <r>   -13.5610     0.2129     2.7982 </r>
       <r>   -13.4332     0.4259     2.8526 </r>
       <r>   -13.3054     0.0709     2.8617 </r>
       <r>   -13.1776     0.0000     2.9161 </r>
       <r>   -13.0498     0.0000     2.9161 </r>
       <r>   -12.9220     0.8545     3.0253 </r>
       <r>   -12.7942     0.4255     3.1065 </r>
       <r>   -12.6664     0.0000     3.1066 </r>
       <r>   -12.5387     0.0000     3.1338 </r>
       <r>   -12.4109     0.0000     3.1338 </r>
       <r>   -12.2831     0.5772     3.2348 </r>
       <r>   -12.1553     0.4259     3.3515 </r>
       <r>   -12.0275     0.0000     3.3515 </r>
       <r>   -11.8997     0.4190     3.4050 </r>
       <r>   -11.7719     0.0000     3.4059 </r>
       <r>   -11.6441     0.4258     3.5147 </r>
       <r>   -11.5164     0.0000     3.5147 </r>
       <r>   -11.3886     0.3666     3.5616 </r>
       <r>   -11.2608     0.3223     3.6648 </r>
       <r>   -11.1330     0.0000     3.6780 </r>
       <r>   -11.0052     0.0273     3.7631 </r>
       <r>   -10.8774     0.0000     3.8141 </r>
       <r>   -10.7496     0.0000     3.8141 </r>
       <r>   -10.6218     0.0000     3.8141 </r>
       <r>   -10.4941     0.9988     3.9961 </r>
       <r>   -10.3663     0.0355     4.0635 </r>
       <r>   -10.2385     0.0000     4.1451 </r>
       <r>   -10.1107     0.2128     4.1995 </r>
       <r>    -9.9829     0.4259     4.2540 </r>
       <r>    -9.8551     0.6464     4.3910 </r>
       <r>    -9.7273     0.0012     4.4990 </r>
       <r>    -9.5995     0.8452     4.6613 </r>
       <r>    -9.4717     0.4242     4.7708 </r>
       <r>    -9.3440     0.2216     4.7993 </r>
       <r>    -9.2162     0.8517     4.9342 </r>
       <r>    -9.0884     0.7624     5.1405 </r>
       <r>    -8.9606     0.2129     5.2608 </r>
       <r>    -8.8328     0.4372     5.3166 </r>
       <r>    -8.7050     0.4262     5.4785 </r>
       <r>    -8.5772     0.6388     5.5873 </r>
       <r>    -8.4494     0.6884     5.6753 </r>
       <r>    -8.3217     0.0000     5.7506 </r>
       <r>    -8.1939     0.4259     5.8050 </r>
       <r>    -8.0661     1.3001     5.9711 </r>
       <r>    -7.9383     0.4230     6.0767 </r>
       <r>    -7.8105     0.2129     6.1043 </r>
       <r>    -7.6827     0.4365     6.1601 </r>
       <r>    -7.5549     0.3339     6.2830 </r>
       <r>    -7.4271     0.0115     6.3235 </r>
       <r>    -7.2994     0.6388     6.4308 </r>
       <r>    -7.1716     0.4258     6.4852 </r>
       <r>    -7.0438     0.6500     6.5955 </r>
       <r>    -6.9160     0.3855     6.6978 </r>
       <r>    -6.7882     0.0000     6.7029 </r>
       <r>    -6.6604     0.3208     6.7439 </r>
       <r>    -6.5326     0.8661     6.8953 </r>
       <r>    -6.4048     0.0000     6.9478 </r>
       <r>    -6.2771     0.0000     7.0295 </r>
       <r>    -6.1493     0.2129     7.0567 </r>
       <r>    -6.0215     0.6388     7.1383 </r>
       <r>    -5.8937     0.2527     7.1706 </r>
       <r>    -5.7659     0.0221     7.2772 </r>
       <r>    -5.6381     0.0000     7.3651 </r>
       <r>    -5.5103     0.4259     7.4195 </r>
       <r>    -5.3825     0.0453     7.4253 </r>
       <r>    -5.2548     0.0000     7.4739 </r>
       <r>    -5.1270     0.2129     7.5011 </r>
       <r>    -4.9992     1.2828     7.6651 </r>
       <r>    -4.8714     0.0000     7.7460 </r>
       <r>    -4.7436     0.0000     7.7460 </r>
       <r>    -4.6158     0.2129     7.7732 </r>
       <r>    -4.4880     0.0000     7.7732 </r>
       <r>    -4.3602     0.4259     7.8277 </r>
       <r>    -4.2325     0.5869     7.9027 </r>
       <r>    -4.1047     0.0000     7.9093 </r>
       <r>    -3.9769     0.0000     7.9093 </r>
       <r>    -3.8491     0.2129     7.9365 </r>
       <r>    -3.7213     0.0000     7.9365 </r>
       <r>    -3.5935     0.0000     7.9365 </r>
       <r>    -3.4657     0.4259     7.9909 </r>
       <r>    -3.3379     0.0000     7.9909 </r>
       <r>    -3.2102     0.0000     7.9909 </r>
       <r>    -3.0824     0.0000     7.9909 </r>
       <r>    -2.9546     0.0000     7.9909 </r>
       <r>    -2.8268     0.0000     7.9909 </r>
       <r>    -2.6990     0.1419     8.0091 </r>
       <r>    -2.5712     0.0000     8.0091 </r>
       <r>    -2.4434     0.0000     8.0091 </r>
       <r>    -2.3156     0.0000     8.0091 </r>
       <r>    -2.1879     0.0000     8.0091 </r>
       <r>    -2.0601     0.0000     8.0091 </r>
       <r>    -1.9323     0.4259     8.0635 </r>
       <r>    -1.8045     0.0000     8.0635 </r>
       <r>    -1.6767     0.0370     8.0682 </r>
       <r>    -1.5489     0.0000     8.0907 </r>
       <r>    -1.4211     0.0000     8.0907 </r>
       <r>    -1.2933     0.0000     8.0907 </r>
       <r>    -1.1655     0.8515     8.2539 </r>
       <r>    -1.0378     0.2055     8.2802 </r>
       <r>    -0.9100     0.6384     8.3628 </r>
       <r>    -0.7822     0.1261     8.3789 </r>
       <r>    -0.6544     0.0174     8.4195 </r>
       <r>    -0.5266     0.3786     8.5200 </r>
       <r>    -0.3988     0.0000     8.5261 </r>
       <r>    -0.2710     0.0006     8.5806 </r>
       <r>    -0.1432     0.2129     8.6621 </r>
       <r>    -0.0155     0.0000     8.6621 </r>
       <r>     0.1123     0.0000     8.6621 </r>
       <r>     0.2401     0.0000     8.7166 </r>
       <r>     0.3679     0.4259     8.7710 </r>
       <r>     0.4957     0.4258     8.8254 </r>
       <r>     0.6235     0.4258     8.8843 </r>
       <r>     0.7513     0.1664     8.9056 </r>
       <r>     0.8791     0.6388     8.9932 </r>
       <r>     1.0068     0.2129     9.0204 </r>
       <r>     1.1346     0.0000     9.0748 </r>
       <r>     1.2624     0.2130     9.1020 </r>
       <r>     1.3902     0.0517     9.1631 </r>
       <r>     1.5180     0.4265     9.2699 </r>
       <r>     1.6458     0.2127     9.4331 </r>
       <r>     1.7736     0.3873     9.4826 </r>
       <r>     1.9014     0.4365     9.5478 </r>
       <r>     2.0291     0.4259     9.6825 </r>
       <r>     2.1569     0.4259     9.7914 </r>
       <r>     2.2847     0.9704     9.9154 </r>
       <r>     2.4125     0.4259    10.0091 </r>
       <r>     2.5403     0.8518    10.1179 </r>
       <r>     2.6681     0.6419    10.2544 </r>
       <r>     2.7959     0.7735    10.4118 </r>
       <r>     2.9237     0.8516    10.6122 </r>
       <r>     3.0514     0.0010    10.6124 </r>
       <r>     3.1792     1.4825    10.8062 </r>
       <r>     3.3070     1.2862    10.9716 </r>
       <r>     3.4348     1.0647    11.1882 </r>
       <r>     3.5626     0.5585    11.2596 </r>
       <r>     3.6904     0.8518    11.5420 </r>
       <r>     3.8182     0.6386    11.6780 </r>
       <r>     3.9460     0.0256    11.6813 </r>
       <r>     4.0737     2.1294    11.9773 </r>
       <r>     4.2015     0.6079    12.1366 </r>
       <r>     4.3293     0.4184    12.3029 </r>
       <r>     4.4571     0.4498    12.3613 </r>
       <r>     4.5849     0.8066    12.5702 </r>
       <r>     4.7127     0.5552    12.7830 </r>
       <r>     4.8405     0.6779    12.9392 </r>
       <r>     4.9683     2.3218    13.2854 </r>
       <r>     5.0960     1.0713    13.5337 </r>
       <r>     5.2238     0.4559    13.7000 </r>
       <r>     5.3516     1.2888    14.0241 </r>
       <r>     5.4794     0.8578    14.3545 </r>
       <r>     5.6072     1.5535    14.6067 </r>
       <r>     5.7350     1.7319    14.9061 </r>
       <r>     5.8628     2.0258    15.4335 </r>
       <r>     5.9906     2.2012    15.7824 </r>
       <r>     6.1184     1.1455    15.9468 </r>
       <r>     6.2461     1.3001    16.2115 </r>
       <r>     6.3739     0.6388    16.6440 </r>
       <r>     6.5017     0.8212    16.8033 </r>
       <r>     6.6295     0.4327    16.8625 </r>
       <r>     6.7573     2.5558    17.2427 </r>
       <r>     6.8851     1.4906    17.4875 </r>
       <r>     7.0129     0.7998    17.6441 </r>
       <r>     7.1407     2.4613    17.9653 </r>
       <r>     7.2684     0.8520    18.1406 </r>
       <r>     7.3962     0.7837    18.3496 </r>
       <r>     7.5240     0.4261    18.4671 </r>
       <r>     7.6518     1.5386    18.7726 </r>
       <r>     7.7796     0.8137    18.8976 </r>
       <r>     7.9074     0.8741    19.0414 </r>
       <r>     8.0352     2.7444    19.4800 </r>
       <r>     8.1630     0.8519    19.6735 </r>
       <r>     8.2907     1.0669    19.9459 </r>
       <r>     8.4185     0.8518    20.1088 </r>
       <r>     8.5463     1.9164    20.3537 </r>
       <r>     8.6741     1.4554    20.6214 </r>
       <r>     8.8019     0.8517    20.7891 </r>
       <r>     8.9297     0.8180    20.9209 </r>
       <r>     9.0575     1.0703    21.1164 </r>
       <r>     9.1853     0.1620    21.1908 </r>
       <r>     9.3130     1.8798    21.5736 </r>
       <r>     9.4408     0.8441    21.7405 </r>
       <r>     9.5686     1.1753    21.9733 </r>
       <r>     9.6964     0.0000    21.9864 </r>
       <r>     9.8242     1.2783    22.1770 </r>
       <r>     9.9520     1.4853    22.5027 </r>
       <r>    10.0798     0.9314    22.7585 </r>
       <r>    10.2076     1.3065    23.0241 </r>
       <r>    10.3353     0.2600    23.1534 </r>
       <r>    10.4631     0.5450    23.3803 </r>
       <r>    10.5909     0.5212    23.4589 </r>
       <r>    10.7187     0.4259    23.5828 </r>
       <r>    10.8465     0.0732    23.5921 </r>
       <r>    10.9743     0.3069    23.6583 </r>
       <r>    11.1021     0.0000    23.8095 </r>
       <r>    11.2299     0.4259    23.8639 </r>
       <r>    11.3576     0.3935    23.9142 </r>
       <r>    11.4854     0.0000    23.9184 </r>
       <r>    11.6132     0.0000    23.9184 </r>
       <r>    11.7410     0.0000    23.9184 </r>
       <r>    11.8688     0.0000    23.9184 </r>
       <r>    11.9966     0.0000    23.9184 </r>
       <r>    12.1244     0.4201    23.9721 </r>
       <r>    12.2522     0.1420    23.9909 </r>
       <r>    12.3799     0.0000    23.9909 </r>
       <r>    12.5077     0.0000    23.9909 </r>
       <r>    12.6355     0.0000    24.0000 </r>
       <r>    12.7633     0.0000    24.0000 </r>
       <r>    12.8911     0.0000    24.0000 </r>
       <r>    13.0189     0.0000    24.0000 </r>
       <r>    13.1467     0.0000    24.0000 </r>
       <r>    13.2745     0.0000    24.0000 </r>
       <r>    13.4023     0.0000    24.0000 </r>
       <r>    13.5300     0.0000    24.0000 </r>
       <r>    13.6578     0.0000    24.0000 </r>
       <r>    13.7856     0.0000    24.0000 </r>
       <r>    13.9134     0.0000    24.0000 </r>
       <r>    14.0412     0.0000    24.0000 </r>
       <r>    14.1690     0.0000    24.0000 </r>
       <r>    14.2968     0.0000    24.0000 </r>
      </set>
     </set>
    </array>
   </total>
  </dos>
 </calculation>
 <structure name="finalpos" >
  <crystal>
   <varray name="basis" >
    <v>       2.13000000      -1.22975600       0.00000000 </v>
    <v>       2.13000000       1.22975600       0.00000000 </v>
    <v>       0.00000000       0.00000000      20.00000000 </v>
   </varray>
   <i name="volume">    104.77521120 </i>
   <varray name="rec_basis" >
    <v>       0.23474178      -0.40658472       0.00000000 </v>
    <v>       0.23474178       0.40658472       0.00000000 </v>
    <v>       0.00000000       0.00000000       0.05000000 </v>
   </varray>
  </crystal>
  <varray name="positions" >
   <v>       0.00000000       0.00000000       0.00000000 </v>
   <v>       0.33333300       0.33333300       0.00000000 </v>
  </varray>
 </structure>
</modeling>
