    4    4    1    1
  0.2619380E+02  0.2459512E-09  0.2459512E-09  0.2000000E-08  0.5000000E-15
  1.000000000000000E-004
  CAR 
 C-4                                     
     16    169     12
 
  0.3742002E-15  0.3742002E-15  0.1262379E-14  0.5668934E-03
    1      -20.794805   1.000000
    2      -20.783055   1.000000
    3       -8.973305   1.000000
    4       -8.791519   1.000000
    5       -4.242064   1.000000
    6       -4.242006   1.000000
    7       -4.241595   1.000000
    8       -4.241536   1.000000
    9        1.931128   0.000000
   10        2.490243   0.000000
   11        3.123134   0.000000
   12        4.011539   0.000000
 
  0.2380952E-01  0.3750413E-15  0.1262379E-14  0.3401361E-02
    1      -20.781339   1.000000
    2      -20.769600   1.000000
    3       -8.957125   1.000000
    4       -8.775473   1.000000
    5       -4.298015   1.000000
    6       -4.297468   1.000000
    7       -4.271795   1.000000
    8       -4.271305   1.000000
    9        1.949143   0.000000
   10        2.508545   0.000000
   11        3.141461   0.000000
   12        4.029641   0.000000
 
  0.4761905E-01  0.3771171E-15  0.1262379E-14  0.3401361E-02
    1      -20.740946   1.000000
    2      -20.729244   1.000000
    3       -8.908629   1.000000
    4       -8.727366   1.000000
    5       -4.463004   1.000000
    6       -4.462357   1.000000
    7       -4.358936   1.000000
    8       -4.358393   1.000000
    9        2.003195   0.000000
   10        2.563453   0.000000
   11        3.196440   0.000000
   12        4.083934   0.000000
 
  0.7142857E-01  0.3718030E-15  0.1262379E-14  0.3401361E-02
    1      -20.673663   1.000000
    2      -20.662023   1.000000
    3       -8.827871   1.000000
    4       -8.647294   1.000000
    5       -4.728698   1.000000
    6       -4.727885   1.000000
    7       -4.497470   1.000000
    8       -4.496868   1.000000
    9        2.093299   0.000000
   10        2.654958   0.000000
   11        3.288058   0.000000
   12        4.174387   0.000000
 
  0.9523810E-01  0.3768972E-15  0.1262379E-14  0.3401361E-02
    1      -20.579545   1.000000
    2      -20.567992   1.000000
    3       -8.715068   1.000000
    4       -8.535417   1.000000
    5       -5.083077   1.000000
    6       -5.082039   1.000000
    7       -4.678792   1.000000
    8       -4.678118   1.000000
    9        2.219463   0.000000
   10        2.783039   0.000000
   11        3.416282   0.000000
   12        4.300926   0.000000
 
  0.1190476E+00  0.3690156E-15  0.1262379E-14  0.3401361E-02
    1      -20.458680   1.000000
    2      -20.447237   1.000000
    3       -8.570450   1.000000
    4       -8.392013   1.000000
    5       -5.512438   1.000000
    6       -5.511139   1.000000
    7       -4.893058   1.000000
    8       -4.892334   1.000000
    9        2.381674   0.000000
   10        2.947649   0.000000
   11        3.581051   0.000000
   12        4.463427   0.000000
 
  0.1428571E+00  0.3593300E-15  0.1262379E-14  0.3401361E-02
    1      -20.311169   1.000000
    2      -20.299866   1.000000
    3       -8.394344   1.000000
    4       -8.217392   1.000000
    5       -6.002730   1.000000
    6       -6.001168   1.000000
    7       -5.130482   1.000000
    8       -5.129698   1.000000
    9        2.579893   0.000000
   10        3.148711   0.000000
   11        3.782250   0.000000
   12        4.661672   0.000000
 
  0.1666667E+00  0.3574853E-15  0.1262379E-14  0.3401361E-02
    1      -20.137158   1.000000
    2      -20.126026   1.000000
    3       -8.187171   1.000000
    4       -8.012036   1.000000
    5       -6.540986   1.000000
    6       -6.539168   1.000000
    7       -5.381875   1.000000
    8       -5.381046   1.000000
    9        2.814038   0.000000
   10        3.386088   0.000000
   11        4.019675   0.000000
   12        4.895238   0.000000
 
  0.1904762E+00  0.3695184E-15  0.1262379E-14  0.3401361E-02
    1      -19.936815   1.000000
    2      -19.925873   1.000000
    3       -7.949513   1.000000
    4       -7.776514   1.000000
    5       -7.115618   1.000000
    6       -7.113538   1.000000
    7       -5.639284   1.000000
    8       -5.638414   1.000000
    9        3.083997   0.000000
   10        3.659552   0.000000
   11        4.292929   0.000000
   12        5.163137   0.000000
 
  0.2142857E+00  0.3824535E-15  0.1262379E-14  0.3401361E-02
    1      -19.710348   1.000000
    2      -19.699618   1.000000
    3       -7.716667   1.000000
    4       -7.714272   1.000000
    5       -7.682053   1.000000
    6       -7.511555   1.000000
    7       -5.895977   1.000000
    8       -5.895073   1.000000
    9        3.389603   0.000000
   10        3.968648   0.000000
   11        4.601061   0.000000
   12        5.462144   0.000000
 
  0.2380952E+00  0.1267399E-14  0.1262379E-14  0.3401361E-02
    1      -19.458001   1.000000
    2      -19.447504   1.000000
    3       -8.335575   1.000000
    4       -8.332872   1.000000
    5       -7.385851   1.000000
    6       -7.218190   1.000000
    7       -6.146328   1.000000
    8       -6.145379   1.000000
    9        3.730607   0.000000
   10        4.312225   0.000000
   11        4.940667   0.000000
   12        5.770325   0.000000
 
  0.2619048E+00  0.3644006E-15  0.1262379E-14  0.3401361E-02
    1      -19.180088   1.000000
    2      -19.169849   1.000000
    3       -8.965295   1.000000
    4       -8.962278   1.000000
    5       -7.062058   1.000000
    6       -6.897670   1.000000
    7       -6.385803   1.000000
    8       -6.384820   1.000000
    9        4.106557   0.000000
   10        4.685297   0.000000
   11        5.276687   0.000000
   12        5.703269   0.000000
 
  0.2857143E+00  0.3625559E-15  0.1262379E-14  0.3401361E-02
    1      -18.876989   1.000000
    2      -18.867017   1.000000
    3       -9.599855   1.000000
    4       -9.596478   1.000000
    5       -6.712372   1.000000
    6       -6.610736   1.000000
    7       -6.609713   1.000000
    8       -6.551734   1.000000
    9        4.515485   0.000000
   10        4.974296   0.000000
   11        4.981445   0.000000
   12        5.269339   0.000000
 
  0.3095238E+00  0.3329557E-15  0.1262379E-14  0.3401361E-02
    1      -18.549165   1.000000
    2      -18.539485   1.000000
    3      -10.234142   1.000000
    4      -10.230397   1.000000
    5       -6.818136   1.000000
    6       -6.817101   1.000000
    7       -6.339076   1.000000
    8       -6.182721   1.000000
    9        4.328018   0.000000
   10        4.434593   0.000000
   11        4.965385   0.000000
   12        5.594281   0.000000
 
  0.3333333E+00  0.3588666E-15  0.1262379E-14  0.3401361E-02
    1      -18.197261   1.000000
    2      -18.187869   1.000000
    3      -10.863847   1.000000
    4      -10.859727   1.000000
    5       -7.005660   1.000000
    6       -7.004602   1.000000
    7       -5.945435   1.000000
    8       -5.793966   1.000000
    9        3.665286   0.000000
   10        3.780365   0.000000
   11        5.440059   0.000000
   12        6.065123   0.000000
 
  0.3571429E+00  0.3570219E-15  0.1262379E-14  0.3401361E-02
    1      -17.822097   1.000000
    2      -17.813026   1.000000
    3      -11.485034   1.000000
    4      -11.480559   1.000000
    5       -7.171393   1.000000
    6       -7.170321   1.000000
    7       -5.536177   1.000000
    8       -5.390297   1.000000
    9        3.009366   0.000000
   10        3.132568   0.000000
   11        5.936220   0.000000
   12        6.433251   0.000000
 
  0.3809524E+00  0.3551772E-15  0.1262379E-14  0.3401361E-02
    1      -17.424944   1.000000
    2      -17.416192   1.000000
    3      -12.094044   1.000000
    4      -12.089195   1.000000
    5       -7.313845   1.000000
    6       -7.312748   1.000000
    7       -5.118547   1.000000
    8       -4.979064   1.000000
    9        2.375132   0.000000
   10        2.507169   0.000000
   11        6.310424   0.000000
   12        6.406338   0.000000
 
  0.4047619E+00  0.3828922E-15  0.1262379E-14  0.3401361E-02
    1      -17.007905   1.000000
    2      -16.999496   1.000000
    3      -12.686799   1.000000
    4      -12.681622   1.000000
    5       -7.431837   1.000000
    6       -7.430745   1.000000
    7       -4.703982   1.000000
    8       -4.571874   1.000000
    9        1.778406   0.000000
   10        1.920015   0.000000
   11        6.323051   0.000000
   12        6.353561   0.000000
 
  0.4285714E+00  0.3810475E-15  0.1262379E-14  0.3401361E-02
    1      -16.575172   1.000000
    2      -16.567089   1.000000
    3      -13.257712   1.000000
    4      -13.252146   1.000000
    5       -7.524483   1.000000
    6       -7.523363   1.000000
    7       -4.311354   1.000000
    8       -4.187502   1.000000
    9        1.241111   0.000000
   10        1.392772   0.000000
   11        6.287470   0.000000
   12        6.309012   0.000000
 
  0.4523810E+00  0.3514472E-15  0.1262379E-14  0.3401361E-02
    1      -16.137159   1.000000
    2      -16.129371   1.000000
    3      -13.795165   1.000000
    4      -13.789275   1.000000
    5       -7.591101   1.000000
    6       -7.589973   1.000000
    7       -3.971440   1.000000
    8       -3.856207   1.000000
    9        0.796313   0.000000
   10        0.958042   0.000000
   11        6.257108   0.000000
   12        6.276060   0.000000
 
  0.4761905E+00  0.3496025E-15  0.1262379E-14  0.3401361E-02
    1      -15.730107   1.000000
    2      -15.722582   1.000000
    3      -14.262164   1.000000
    4      -14.256013   1.000000
    5       -7.631239   1.000000
    6       -7.630114   1.000000
    7       -3.730695   1.000000
    8       -3.622804   1.000000
    9        0.492039   0.000000
   10        0.661963   0.000000
   11        6.237890   0.000000
   12        6.255922   0.000000
 
  0.5000000E+00  0.3719052E-15  0.1262379E-14  0.1700680E-02
    1      -15.516519   1.000000
    2      -15.509098   1.000000
    3      -14.495782   1.000000
    4      -14.489545   1.000000
    5       -7.644661   1.000000
    6       -7.643538   1.000000
    7       -3.641897   1.000000
    8       -3.537039   1.000000
    9        0.381960   0.000000
   10        0.555219   0.000000
   11        6.231347   0.000000
   12        6.249150   0.000000
 
  0.4761905E-01  0.2380952E-01  0.1262379E-14  0.3401361E-02
    1      -20.754408   1.000000
    2      -20.742693   1.000000
    3       -8.924785   1.000000
    4       -8.743396   1.000000
    5       -4.407435   1.000000
    6       -4.406828   1.000000
    7       -4.331288   1.000000
    8       -4.330757   1.000000
    9        1.985177   0.000000
   10        2.545152   0.000000
   11        3.178115   0.000000
   12        4.065839   0.000000
 
  0.7142857E-01  0.2380952E-01  0.1262379E-14  0.6802721E-02
    1      -20.700569   1.000000
    2      -20.688906   1.000000
    3       -8.860161   1.000000
    4       -8.679307   1.000000
    5       -4.619930   1.000000
    6       -4.619189   1.000000
    7       -4.446978   1.000000
    8       -4.446420   1.000000
    9        2.057258   0.000000
   10        2.618359   0.000000
   11        3.251414   0.000000
   12        4.138213   0.000000
 
  0.9523810E-01  0.2380952E-01  0.1262379E-14  0.6802721E-02
    1      -20.619868   1.000000
    2      -20.608279   1.000000
    3       -8.763380   1.000000
    4       -8.583328   1.000000
    5       -4.926210   1.000000
    6       -4.925264   1.000000
    7       -4.610718   1.000000
    8       -4.610071   1.000000
    9        2.165399   0.000000
   10        2.728156   0.000000
   11        3.361340   0.000000
   12        4.246714   0.000000
 
  0.1190476E+00  0.2380952E-01  0.1262379E-14  0.6802721E-02
    1      -20.512376   1.000000
    2      -20.500888   1.000000
    3       -8.634669   1.000000
    4       -8.455679   1.000000
    5       -5.314059   1.000000
    6       -5.312895   1.000000
    7       -4.812623   1.000000
    8       -4.811917   1.000000
    9        2.309602   0.000000
   10        2.874510   0.000000
   11        3.507846   0.000000
   12        4.391246   0.000000
 
  0.1428571E+00  0.2380952E-01  0.1262379E-14  0.6802721E-02
    1      -20.378191   1.000000
    2      -20.366824   1.000000
    3       -8.474293   1.000000
    4       -8.296666   1.000000
    5       -5.770002   1.000000
    6       -5.768569   1.000000
    7       -5.042464   1.000000
    8       -5.041684   1.000000
    9        2.489836   0.000000
   10        3.057360   0.000000
   11        3.690848   0.000000
   12        4.571651   0.000000
 
  0.1666667E+00  0.2380952E-01  0.1262379E-14  0.6802721E-02
    1      -20.217433   1.000000
    2      -20.206219   1.000000
    3       -8.282634   1.000000
    4       -8.106672   1.000000
    5       -6.280797   1.000000
    6       -6.279099   1.000000
    7       -5.290465   1.000000
    8       -5.289623   1.000000
    9        2.706044   0.000000
   10        3.276605   0.000000
   11        3.910197   0.000000
   12        4.787635   0.000000
 
  0.1904762E+00  0.2380952E-01  0.1262379E-14  0.6802721E-02
    1      -20.030254   1.000000
    2      -20.019224   1.000000
    3       -8.060196   1.000000
    4       -7.886192   1.000000
    5       -6.834248   1.000000
    6       -6.832303   1.000000
    7       -5.547953   1.000000
    8       -5.547069   1.000000
    9        2.958133   0.000000
   10        3.532072   0.000000
   11        4.165614   0.000000
   12        5.038579   0.000000
 
  0.2142857E+00  0.2380952E-01  0.1262379E-14  0.6802721E-02
    1      -19.816849   1.000000
    2      -19.806017   1.000000
    3       -7.807612   1.000000
    4       -7.635915   1.000000
    5       -7.419581   1.000000
    6       -7.417362   1.000000
    7       -5.807576   1.000000
    8       -5.806645   1.000000
    9        3.245959   0.000000
   10        3.823447   0.000000
   11        4.456512   0.000000
   12        5.322818   0.000000
 
  0.2380952E+00  0.2380952E-01  0.1262379E-14  0.6802721E-02
    1      -19.577442   1.000000
    2      -19.566836   1.000000
    3       -8.027536   1.000000
    4       -8.024998   1.000000
    5       -7.525715   1.000000
    6       -7.356681   1.000000
    7       -6.063182   1.000000
    8       -6.062216   1.000000
    9        3.569327   0.000000
   10        4.150045   0.000000
   11        4.781231   0.000000
   12        5.632994   0.000000
 
  0.2619048E+00  0.2380952E-01  0.1262379E-14  0.6802721E-02
    1      -19.312309   1.000000
    2      -19.301951   1.000000
    3       -8.650236   1.000000
    4       -8.647382   1.000000
    5       -7.215599   1.000000
    6       -7.049631   1.000000
    7       -6.309792   1.000000
    8       -6.308775   1.000000
    9        3.927917   0.000000
   10        4.509697   0.000000
   11        5.130911   0.000000
   12        5.854672   0.000000
 
  0.2857143E+00  0.2380952E-01  0.1262379E-14  0.6802721E-02
    1      -19.021801   1.000000
    2      -19.011704   1.000000
    3       -9.281077   1.000000
    4       -9.277896   1.000000
    5       -6.878695   1.000000
    6       -6.716231   1.000000
    7       -6.543322   1.000000
    8       -6.542269   1.000000
    9        4.320984   0.000000
   10        4.885520   0.000000
   11        5.250111   0.000000
   12        5.476342   0.000000
 
  0.3095238E+00  0.2380952E-01  0.1262379E-14  0.6802721E-02
    1      -18.706337   1.000000
    2      -18.696514   1.000000
    3       -9.914485   1.000000
    4       -9.910929   1.000000
    5       -6.760528   1.000000
    6       -6.759437   1.000000
    7       -6.516934   1.000000
    8       -6.358489   1.000000
    9        4.638643   0.000000
   10        4.741939   0.000000
   11        4.762512   0.000000
   12        5.392535   0.000000
 
  0.3333333E+00  0.2380952E-01  0.1262379E-14  0.6802721E-02
    1      -18.366448   1.000000
    2      -18.356919   1.000000
    3      -10.545672   1.000000
    4      -10.541745   1.000000
    5       -6.958790   1.000000
    6       -6.957674   1.000000
    7       -6.133037   1.000000
    8       -5.979167   1.000000
    9        3.989404   0.000000
   10        4.099335   0.000000
   11        5.212734   0.000000
   12        5.838955   0.000000
 
  0.3571429E+00  0.2380952E-01  0.1262379E-14  0.6802721E-02
    1      -18.002867   1.000000
    2      -17.993641   1.000000
    3      -11.170527   1.000000
    4      -11.166232   1.000000
    5       -7.136023   1.000000
    6       -7.134882   1.000000
    7       -5.730924   1.000000
    8       -5.582269   1.000000
    9        3.329345   0.000000
   10        3.447306   0.000000
   11        5.702305   0.000000
   12        6.318153   0.000000
 
  0.3809524E+00  0.2380952E-01  0.1262379E-14  0.6802721E-02
    1      -17.616615   1.000000
    2      -17.607708   1.000000
    3      -11.785245   1.000000
    4      -11.780581   1.000000
    5       -7.290590   1.000000
    6       -7.289448   1.000000
    7       -5.316390   1.000000
    8       -5.173706   1.000000
    9        2.683798   0.000000
   10        2.810295   0.000000
   11        6.192245   0.000000
   12        6.490201   0.000000
 
  0.4047619E+00  0.2380952E-01  0.1262379E-14  0.6802721E-02
    1      -17.209279   1.000000
    2      -17.200708   1.000000
    3      -12.385968   1.000000
    4      -12.380969   1.000000
    5       -7.421150   1.000000
    6       -7.419997   1.000000
    7       -4.898493   1.000000
    8       -4.762653   1.000000
    9        2.067158   0.000000
   10        2.202919   0.000000
   11        6.391562   0.000000
   12        6.440634   0.000000
 
  0.4285714E+00  0.2380952E-01  0.1262379E-14  0.6802721E-02
    1      -16.783788   1.000000
    2      -16.775557   1.000000
    3      -12.968137   1.000000
    4      -12.962776   1.000000
    5       -7.526721   1.000000
    6       -7.525561   1.000000
    7       -4.491809   1.000000
    8       -4.363786   1.000000
    9        1.497628   0.000000
   10        1.643275   0.000000
   11        6.366275   0.000000
   12        6.391495   0.000000
 
  0.4523810E+00  0.2380952E-01  0.1262379E-14  0.6802721E-02
    1      -16.346509   1.000000
    2      -16.338588   1.000000
    3      -13.524029   1.000000
    4      -13.518308   1.000000
    5       -7.606524   1.000000
    6       -7.605354   1.000000
    7       -4.120509   1.000000
    8       -4.001039   1.000000
    9        1.002013   0.000000
   10        1.157849   0.000000
   11        6.332309   0.000000
   12        6.352604   0.000000
 
  0.4761905E+00  0.2380952E-01  0.1262379E-14  0.6802721E-02
    1      -15.915982   1.000000
    2      -15.908348   1.000000
    3      -14.034129   1.000000
    4      -14.028099   1.000000
    5       -7.660026   1.000000
    6       -7.658843   1.000000
    7       -3.823193   1.000000
    8       -3.712003   1.000000
    9        0.620781   0.000000
   10        0.786061   0.000000
   11        6.307281   0.000000
   12        6.325974   0.000000
 
  0.5000000E+00  0.2380952E-01  0.1262379E-14  0.6802721E-02
    1      -15.569467   1.000000
    2      -15.562027   1.000000
    3      -14.420576   1.000000
    4      -14.414350   1.000000
    5       -7.686857   1.000000
    6       -7.685672   1.000000
    7       -3.652264   1.000000
    8       -3.546667   1.000000
    9        0.407619   0.000000
   10        0.579074   0.000000
   11        6.294327   0.000000
   12        6.312486   0.000000
 
  0.9523810E-01  0.4761905E-01  0.1262379E-14  0.3401361E-02
    1      -20.633314   1.000000
    2      -20.621712   1.000000
    3       -8.779514   1.000000
    4       -8.599308   1.000000
    5       -4.868122   1.000000
    6       -4.867213   1.000000
    7       -4.592799   1.000000
    8       -4.592167   1.000000
    9        2.147381   0.000000
   10        2.709862   0.000000
   11        3.343025   0.000000
   12        4.228638   0.000000
 
  0.1190476E+00  0.4761905E-01  0.1262379E-14  0.6802721E-02
    1      -20.539239   1.000000
    2      -20.527723   1.000000
    3       -8.666814   1.000000
    4       -8.487554   1.000000
    5       -5.199754   1.000000
    6       -5.198662   1.000000
    7       -4.785306   1.000000
    8       -4.784583   1.000000
    9        2.273579   0.000000
   10        2.837942   0.000000
   11        3.471243   0.000000
   12        4.355147   0.000000
 
  0.1428571E+00  0.4761905E-01  0.1262379E-14  0.6802721E-02
    1      -20.418430   1.000000
    2      -20.407026   1.000000
    3       -8.522328   1.000000
    4       -8.344294   1.000000
    5       -5.605154   1.000000
    6       -5.603857   1.000000
    7       -5.011962   1.000000
    8       -5.011137   1.000000
    9        2.435833   0.000000
   10        3.002556   0.000000
   11        3.636007   0.000000
   12        4.517622   0.000000
 
  0.1666667E+00  0.4761905E-01  0.1262379E-14  0.6802721E-02
    1      -20.270992   1.000000
    2      -20.259727   1.000000
    3       -8.346383   1.000000
    4       -8.169870   1.000000
    5       -6.073002   1.000000
    6       -6.071437   1.000000
    7       -5.261163   1.000000
    8       -5.260256   1.000000
    9        2.634103   0.000000
   10        3.203626   0.000000
   11        3.837207   0.000000
   12        4.715858   0.000000
 
  0.1904762E+00  0.4761905E-01  0.1262379E-14  0.6802721E-02
    1      -20.097068   1.000000
    2      -20.085972   1.000000
    3       -8.139423   1.000000
    4       -7.964729   1.000000
    5       -6.591490   1.000000
    6       -6.589682   1.000000
    7       -5.522973   1.000000
    8       -5.521987   1.000000
    9        2.868308   0.000000
   10        3.441022   0.000000
   11        4.074646   0.000000
   12        4.949460   0.000000
 
  0.2142857E+00  0.4761905E-01  0.1262379E-14  0.6802721E-02
    1      -19.896831   1.000000
    2      -19.885922   1.000000
    3       -7.901999   1.000000
    4       -7.729444   1.000000
    5       -7.149389   1.000000
    6       -7.147321   1.000000
    7       -5.789106   1.000000
    8       -5.788067   1.000000
    9        3.138333   0.000000
   10        3.714522   0.000000
   11        4.347943   0.000000
   12        5.217509   0.000000
 
  0.2380952E+00  0.4761905E-01  0.1262379E-14  0.6802721E-02
    1      -19.670486   1.000000
    2      -19.659793   1.000000
    3       -7.736594   1.000000
    4       -7.734218   1.000000
    5       -7.634828   1.000000
    6       -7.464757   1.000000
    7       -6.052879   1.000000
    8       -6.051792   1.000000
    9        3.444016   0.000000
   10        4.023693   0.000000
   11        4.656191   0.000000
   12        5.516851   0.000000
 
  0.2619048E+00  0.4761905E-01  0.1262379E-14  0.6802721E-02
    1      -19.418292   1.000000
    2      -19.407837   1.000000
    3       -8.344259   1.000000
    4       -8.341583   1.000000
    5       -7.338898   1.000000
    6       -7.171683   1.000000
    7       -6.308878   1.000000
    8       -6.307752   1.000000
    9        3.785113   0.000000
   10        4.367417   0.000000
   11        4.995980   0.000000
   12        5.821974   0.000000
 
  0.2857143E+00  0.4761905E-01  0.1262379E-14  0.6802721E-02
    1      -19.140559   1.000000
    2      -19.130356   1.000000
    3       -8.964868   1.000000
    4       -8.961864   1.000000
    5       -7.015404   1.000000
    6       -6.851471   1.000000
    7       -6.552786   1.000000
    8       -6.551626   1.000000
    9        4.161200   0.000000
   10        4.740483   0.000000
   11        5.323042   0.000000
   12        5.673844   0.000000
 
  0.3095238E+00  0.4761905E-01  0.1262379E-14  0.6802721E-02
    1      -18.837675   1.000000
    2      -18.827741   1.000000
    3       -9.592070   1.000000
    4       -9.588721   1.000000
    5       -6.781136   1.000000
    6       -6.779939   1.000000
    7       -6.666023   1.000000
    8       -6.505843   1.000000
    9        4.570044   0.000000
   10        4.946729   0.000000
   11        4.977596   0.000000
   12        5.269385   0.000000
 
  0.3333333E+00  0.4761905E-01  0.1262379E-14  0.6802721E-02
    1      -18.510114   1.000000
    2      -18.500465   1.000000
    3      -10.220430   1.000000
    4      -10.216714   1.000000
    5       -6.991156   1.000000
    6       -6.989933   1.000000
    7       -6.293035   1.000000
    8       -6.137114   1.000000
    9        4.294575   0.000000
   10        4.396614   0.000000
   11        5.020166   0.000000
   12        5.644739   0.000000
 
  0.3571429E+00  0.4761905E-01  0.1262379E-14  0.6802721E-02
    1      -18.158499   1.000000
    2      -18.149150   1.000000
    3      -10.845317   1.000000
    4      -10.841231   1.000000
    5       -7.180643   1.000000
    6       -7.179402   1.000000
    7       -5.899619   1.000000
    8       -5.748584   1.000000
    9        3.637135   0.000000
   10        3.747745   0.000000
   11        5.496739   0.000000
   12        6.121648   0.000000
 
  0.3809524E+00  0.4761905E-01  0.1262379E-14  0.6802721E-02
    1      -17.783697   1.000000
    2      -17.774648   1.000000
    3      -11.462640   1.000000
    4      -11.458179   1.000000
    5       -7.347855   1.000000
    6       -7.346576   1.000000
    7       -5.490531   1.000000
    8       -5.345067   1.000000
    9        2.986871   0.000000
   10        3.105911   0.000000
   11        6.000419   0.000000
   12        6.591498   0.000000
 
  0.4047619E+00  0.4761905E-01  0.1262379E-14  0.6802721E-02
    1      -17.386963   1.000000
    2      -17.378244   1.000000
    3      -12.068470   1.000000
    4      -12.063659   1.000000
    5       -7.491381   1.000000
    6       -7.490102   1.000000
    7       -5.072906   1.000000
    8       -4.933806   1.000000
    9        2.357558   0.000000
   10        2.485650   0.000000
   11        6.468487   0.000000
   12        6.650516   0.000000
 
  0.4285714E+00  0.4761905E-01  0.1262379E-14  0.6802721E-02
    1      -16.970434   1.000000
    2      -16.962054   1.000000
    3      -12.658662   1.000000
    4      -12.653494   1.000000
    5       -7.610147   1.000000
    6       -7.608862   1.000000
    7       -4.658110   1.000000
    8       -4.526301   1.000000
    9        1.764667   0.000000
   10        1.902456   0.000000
   11        6.559360   0.000000
   12        6.596475   0.000000
 
  0.4523810E+00  0.4761905E-01  0.1262379E-14  0.6802721E-02
    1      -16.538306   1.000000
    2      -16.530259   1.000000
    3      -13.227406   1.000000
    4      -13.221889   1.000000
    5       -7.703325   1.000000
    6       -7.702041   1.000000
    7       -4.264824   1.000000
    8       -4.141213   1.000000
    9        1.229933   0.000000
   10        1.377879   0.000000
   11        6.528839   0.000000
   12        6.552499   0.000000
 
  0.4761905E+00  0.4761905E-01  0.1262379E-14  0.6802721E-02
    1      -16.101029   1.000000
    2      -16.093287   1.000000
    3      -13.763100   1.000000
    4      -13.757230   1.000000
    5       -7.770309   1.000000
    6       -7.769005   1.000000
    7       -3.923852   1.000000
    8       -3.808832   1.000000
    9        0.786385   0.000000
   10        0.944361   0.000000
   11        6.499322   0.000000
   12        6.519695   0.000000
 
  0.5000000E+00  0.4761905E-01  0.1262379E-14  0.6802721E-02
    1      -15.694873   1.000000
    2      -15.687393   1.000000
    3      -14.228602   1.000000
    4      -14.222471   1.000000
    5       -7.810656   1.000000
    6       -7.809347   1.000000
    7       -3.681935   1.000000
    8       -3.574218   1.000000
    9        0.482295   0.000000
   10        0.648497   0.000000
   11        6.480315   0.000000
   12        6.499611   0.000000
 
 -0.4761905E+00  0.4761905E-01  0.1262379E-14  0.3401361E-02
    1      -15.481952   1.000000
    2      -15.474565   1.000000
    3      -14.461371   1.000000
    4      -14.455140   1.000000
    5       -7.824125   1.000000
    6       -7.822828   1.000000
    7       -3.592577   1.000000
    8       -3.487894   1.000000
    9        0.372102   0.000000
   10        0.541672   0.000000
   11        6.473807   0.000000
   12        6.492838   0.000000
 
  0.1428571E+00  0.7142857E-01  0.1262379E-14  0.3401361E-02
    1      -20.431848   1.000000
    2      -20.420430   1.000000
    3       -8.538353   1.000000
    4       -8.360190   1.000000
    5       -5.542850   1.000000
    6       -5.541593   1.000000
    7       -5.008719   1.000000
    8       -5.007876   1.000000
    9        2.417838   0.000000
   10        2.984289   0.000000
   11        3.617727   0.000000
   12        4.499609   0.000000
 
  0.1666667E+00  0.7142857E-01  0.1262379E-14  0.6802721E-02
    1      -20.297786   1.000000
    2      -20.286495   1.000000
    3       -8.378297   1.000000
    4       -8.201501   1.000000
    5       -5.950263   1.000000
    6       -5.948788   1.000000
    7       -5.264705   1.000000
    8       -5.263757   1.000000
    9        2.598151   0.000000
   10        3.167140   0.000000
   11        3.800712   0.000000
   12        4.679957   0.000000
 
  0.1904762E+00  0.7142857E-01  0.1262379E-14  0.6802721E-02
    1      -20.137182   1.000000
    2      -20.126050   1.000000
    3       -8.187034   1.000000
    4       -8.011907   1.000000
    5       -6.415128   1.000000
    6       -6.413437   1.000000
    7       -5.538510   1.000000
    8       -5.537464   1.000000
    9        2.814453   0.000000
   10        3.386398   0.000000
   11        4.020056   0.000000
   12        4.895938   0.000000
 
  0.2142857E+00  0.7142857E-01  0.1262379E-14  0.6802721E-02
    1      -19.950199   1.000000
    2      -19.939245   1.000000
    3       -7.965044   1.000000
    4       -7.791904   1.000000
    5       -6.928470   1.000000
    6       -6.926540   1.000000
    7       -5.818722   1.000000
    8       -5.817580   1.000000
    9        3.066644   0.000000
   10        3.641900   0.000000
   11        4.275505   0.000000