Automatically generated mesh
     169
Reciprocal lattice
    0.00000000000000    0.00000000000000    0.00000000000000             1
    0.02380952380952    0.00000000000000    0.00000000000000             6
    0.04761904761905    0.00000000000000    0.00000000000000             6
    0.07142857142857    0.00000000000000    0.00000000000000             6
    0.09523809523810    0.00000000000000    0.00000000000000             6
    0.11904761904762    0.00000000000000    0.00000000000000             6
    0.14285714285714    0.00000000000000    0.00000000000000             6
    0.16666666666667    0.00000000000000    0.00000000000000             6
    0.19047619047619    0.00000000000000    0.00000000000000             6
    0.21428571428571    0.00000000000000    0.00000000000000             6
    0.23809523809524    0.00000000000000    0.00000000000000             6
    0.26190476190476    0.00000000000000    0.00000000000000             6
    0.28571428571429    0.00000000000000    0.00000000000000             6
    0.30952380952381    0.00000000000000    0.00000000000000             6
    0.33333333333333    0.00000000000000    0.00000000000000             6
    0.35714285714286    0.00000000000000    0.00000000000000             6
    0.38095238095238    0.00000000000000    0.00000000000000             6
    0.40476190476191    0.00000000000000    0.00000000000000             6
    0.42857142857143    0.00000000000000    0.00000000000000             6
    0.45238095238095    0.00000000000000    0.00000000000000             6
    0.47619047619048    0.00000000000000    0.00000000000000             6
    0.50000000000000    0.00000000000000    0.00000000000000             3
    0.04761904761905    0.02380952380952    0.00000000000000             6
    0.07142857142857    0.02380952380952    0.00000000000000            12
    0.09523809523810    0.02380952380952    0.00000000000000            12
    0.11904761904762    0.02380952380952    0.00000000000000            12
    0.14285714285714    0.02380952380952    0.00000000000000            12
    0.16666666666667    0.02380952380952    0.00000000000000            12
    0.19047619047619    0.02380952380952    0.00000000000000            12
    0.21428571428571    0.02380952380952    0.00000000000000            12
    0.23809523809524    0.02380952380952    0.00000000000000            12
    0.26190476190476    0.02380952380952    0.00000000000000            12
    0.28571428571429    0.02380952380952    0.00000000000000            12
    0.30952380952381    0.02380952380952    0.00000000000000            12
    0.33333333333333    0.02380952380952    0.00000000000000            12
    0.35714285714286    0.02380952380952    0.00000000000000            12
    0.38095238095238    0.02380952380952    0.00000000000000            12
    0.40476190476191    0.02380952380952    0.00000000000000            12
    0.42857142857143    0.02380952380952    0.00000000000000            12
    0.45238095238095    0.02380952380952    0.00000000000000            12
    0.47619047619048    0.02380952380952    0.00000000000000            12
    0.50000000000000    0.02380952380952    0.00000000000000            12
    0.09523809523810    0.04761904761905    0.00000000000000             6
    0.11904761904762    0.04761904761905    0.00000000000000            12
    0.14285714285714    0.04761904761905    0.00000000000000            12
    0.16666666666667    0.04761904761905    0.00000000000000            12
    0.19047619047619    0.04761904761905    0.00000000000000            12
    0.21428571428571    0.04761904761905    0.00000000000000            12
    0.23809523809524    0.04761904761905    0.00000000000000            12
    0.26190476190476    0.04761904761905    0.00000000000000            12
    0.28571428571429    0.04761904761905    0.00000000000000            12
    0.30952380952381    0.04761904761905    0.00000000000000            12
    0.33333333333333    0.04761904761905    0.00000000000000            12
    0.35714285714286    0.04761904761905    0.00000000000000            12
    0.38095238095238    0.04761904761905    0.00000000000000            12
    0.40476190476191    0.04761904761905    0.00000000000000            12
    0.42857142857143    0.04761904761905    0.00000000000000            12
    0.45238095238095    0.04761904761905    0.00000000000000            12
    0.47619047619048    0.04761904761905    0.00000000000000            12
    0.50000000000000    0.04761904761905    0.00000000000000            12
   -0.47619047619048    0.04761904761905    0.00000000000000             6
    0.14285714285714    0.07142857142857    0.00000000000000             6
    0.16666666666667    0.07142857142857    0.00000000000000            12
    0.19047619047619    0.07142857142857    0.00000000000000            12
    0.21428571428571    0.07142857142857    0.00000000000000            12
    0.23809523809524    0.07142857142857    0.00000000000000            12
    0.26190476190476    0.07142857142857    0.00000000000000            12
    0.28571428571429    0.07142857142857    0.00000000000000            12
    0.30952380952381    0.07142857142857    0.00000000000000            12
    0.33333333333333    0.07142857142857    0.00000000000000            12
    0.35714285714286    0.07142857142857    0.00000000000000            12
    0.38095238095238    0.07142857142857    0.00000000000000            12
    0.40476190476191    0.07142857142857    0.00000000000000            12
    0.42857142857143    0.07142857142857    0.00000000000000            12
    0.45238095238095    0.07142857142857    0.00000000000000            12
    0.47619047619048    0.07142857142857    0.00000000000000            12
    0.50000000000000    0.07142857142857    0.00000000000000            12
   -0.47619047619048    0.07142857142857    0.00000000000000            12
    0.19047619047619    0.09523809523810    0.00000000000000             6
    0.21428571428571    0.09523809523810    0.00000000000000            12
    0.23809523809524    0.09523809523810    0.00000000000000            12
    0.26190476190476    0.09523809523810    0.00000000000000            12
    0.28571428571429    0.09523809523810    0.00000000000000            12
    0.30952380952381    0.09523809523810    0.00000000000000            12
    0.33333333333333    0.09523809523810    0.00000000000000            12
    0.35714285714286    0.09523809523810    0.00000000000000            12
    0.38095238095238    0.09523809523810    0.00000000000000            12
    0.40476190476191    0.09523809523810    0.00000000000000            12
    0.42857142857143    0.09523809523810    0.00000000000000            12
    0.45238095238095    0.09523809523810    0.00000000000000            12
    0.47619047619048    0.09523809523810    0.00000000000000            12
    0.50000000000000    0.09523809523810    0.00000000000000            12
   -0.47619047619048    0.09523809523810    0.00000000000000            12
   -0.45238095238095    0.09523809523810    0.00000000000000             6
    0.23809523809524    0.11904761904762    0.00000000000000             6
    0.26190476190476    0.11904761904762    0.00000000000000            12
    0.28571428571429    0.11904761904762    0.00000000000000            12
    0.30952380952381    0.11904761904762    0.00000000000000            12
    0.33333333333333    0.11904761904762    0.00000000000000            12
    0.35714285714286    0.11904761904762    0.00000000000000            12
    0.38095238095238    0.11904761904762    0.00000000000000            12
    0.40476190476191    0.11904761904762    0.00000000000000            12
    0.42857142857143    0.11904761904762    0.00000000000000            12
    0.45238095238095    0.11904761904762    0.00000000000000            12
    0.47619047619048    0.11904761904762    0.00000000000000            12
    0.50000000000000    0.11904761904762    0.00000000000000            12
   -0.47619047619048    0.11904761904762    0.00000000000000            12
   -0.45238095238095    0.11904761904762    0.00000000000000            12
    0.28571428571429    0.14285714285714    0.00000000000000             6
    0.30952380952381    0.14285714285714    0.00000000000000            12
    0.33333333333333    0.14285714285714    0.00000000000000            12
    0.35714285714286    0.14285714285714    0.00000000000000            12
    0.38095238095238    0.14285714285714    0.00000000000000            12
    0.40476190476191    0.14285714285714    0.00000000000000            12
    0.42857142857143    0.14285714285714    0.00000000000000            12
    0.45238095238095    0.14285714285714    0.00000000000000            12
    0.47619047619048    0.14285714285714    0.00000000000000            12
    0.50000000000000    0.14285714285714    0.00000000000000            12
   -0.47619047619048    0.14285714285714    0.00000000000000            12
   -0.45238095238095    0.14285714285714    0.00000000000000            12
   -0.42857142857143    0.14285714285714    0.00000000000000             6
    0.33333333333333    0.16666666666667    0.00000000000000             6
    0.35714285714286    0.16666666666667    0.00000000000000            12
    0.38095238095238    0.16666666666667    0.00000000000000            12
    0.40476190476190    0.16666666666667    0.00000000000000            12
    0.42857142857143    0.16666666666667    0.00000000000000            12
    0.45238095238095    0.16666666666667    0.00000000000000            12
    0.47619047619048    0.16666666666667    0.00000000000000            12
    0.50000000000000    0.16666666666667    0.00000000000000            12
   -0.47619047619048    0.16666666666667    0.00000000000000            12
   -0.45238095238095    0.16666666666667    0.00000000000000            12
   -0.42857142857143    0.16666666666667    0.00000000000000            12
    0.38095238095238    0.19047619047619    0.00000000000000             6
    0.40476190476190    0.19047619047619    0.00000000000000            12
    0.42857142857143    0.19047619047619    0.00000000000000            12
    0.45238095238095    0.19047619047619    0.00000000000000            12
    0.47619047619048    0.19047619047619    0.00000000000000            12
    0.50000000000000    0.19047619047619    0.00000000000000            12
   -0.47619047619048    0.19047619047619    0.00000000000000            12
   -0.45238095238095    0.19047619047619    0.00000000000000            12
   -0.42857142857143    0.19047619047619    0.00000000000000            12
   -0.40476190476190    0.19047619047619    0.00000000000000             6
    0.42857142857143    0.21428571428571    0.00000000000000             6
    0.45238095238095    0.21428571428571    0.00000000000000            12
    0.47619047619048    0.21428571428571    0.00000000000000            12
    0.50000000000000    0.21428571428571    0.00000000000000            12
   -0.47619047619048    0.21428571428571    0.00000000000000            12
   -0.45238095238095    0.21428571428571    0.00000000000000            12
   -0.42857142857143    0.21428571428571    0.00000000000000            12
   -0.40476190476190    0.21428571428571    0.00000000000000            12
    0.47619047619048    0.23809523809524    0.00000000000000             6
    0.50000000000000    0.23809523809524    0.00000000000000            12
   -0.47619047619048    0.23809523809524    0.00000000000000            12
   -0.45238095238095    0.23809523809524    0.00000000000000            12
   -0.42857142857143    0.23809523809524    0.00000000000000            12
   -0.40476190476190    0.23809523809524    0.00000000000000            12
   -0.38095238095238    0.23809523809524    0.00000000000000             6
   -0.47619047619048    0.26190476190476    0.00000000000000             6
   -0.45238095238095    0.26190476190476    0.00000000000000            12
   -0.42857142857143    0.26190476190476    0.00000000000000            12
   -0.40476190476190    0.26190476190476    0.00000000000000            12
   -0.38095238095238    0.26190476190476    0.00000000000000            12
   -0.42857142857143    0.28571428571429    0.00000000000000             6
   -0.40476190476190    0.28571428571429    0.00000000000000            12
   -0.38095238095238    0.28571428571429    0.00000000000000            12
   -0.35714285714286    0.28571428571429    0.00000000000000             6
   -0.38095238095238    0.30952380952381    0.00000000000000             6
   -0.35714285714286    0.30952380952381    0.00000000000000            12
   -0.33333333333333    0.33333333333333    0.00000000000000             2
