       N       E                     dE             d eps       ncg     rms          rms(c)
DAV:   1     0.950745721303E+02    0.95075E+02   -0.84993E+03  4056   0.150E+03
DAV:   2    -0.305115546294E+02   -0.12559E+03   -0.11589E+03  6840   0.180E+02
DAV:   3    -0.368504473924E+02   -0.63389E+01   -0.63382E+01  5076   0.610E+01
DAV:   4    -0.369191224899E+02   -0.68675E-01   -0.68675E-01  6612   0.660E+00
DAV:   5    -0.369197069643E+02   -0.58447E-03   -0.58447E-03  6396   0.373E-01    0.719E-04
DAV:   6    -0.369197294487E+02   -0.22484E-04   -0.22566E-04  6876   0.329E-02    0.388E-04
DAV:   7    -0.369197299855E+02   -0.53683E-06   -0.60897E-06  6408   0.436E-03    0.209E-04
DAV:   8    -0.369197299519E+02    0.33628E-07   -0.23310E-08  6456   0.114E-03    0.109E-04
DAV:   9    -0.369197299371E+02    0.14864E-07   -0.42079E-09  6012   0.618E-04    0.481E-05
DAV:  10    -0.369197299527E+02   -0.15622E-07   -0.94050E-10  6240   0.306E-04    0.285E-05
DAV:  11    -0.369197299785E+02   -0.25837E-07   -0.98812E-10  5784   0.320E-04    0.262E-05
DAV:  12    -0.369197300057E+02   -0.27215E-07   -0.10074E-09  5988   0.283E-04    0.159E-05
DAV:  13    -0.369197300240E+02   -0.18244E-07   -0.14654E-09  6012   0.311E-04    0.159E-05
DAV:  14    -0.369197300158E+02    0.82098E-08   -0.12345E-09  5988   0.169E-04
   1 F= -.36919730E+02 E0= -.36919628E+02  d E =-.204217E-03
