 vasp.5.4.4.18Apr17-6-g9f103f2a35 (build May 31 2018 21:15:54) complex          
  
 executed on          c7_intel_O1 date 2020.08.17  20:03:46
 running on   36 total cores
 distrk:  each k-point on   36 cores,    1 groups
 distr:  one band on NCORES_PER_BAND=   6 cores,    6 groups


--------------------------------------------------------------------------------------------------------


 INCAR:
 POTCAR:   PAW_PBE C 08Apr2002                    
 POTCAR:   PAW_PBE C 08Apr2002                    
   VRHFIN =C: s2p2                                                              
   LEXCH  = PE                                                                  
   EATOM  =   147.1560 eV,   10.8157 Ry                                         
                                                                                
   TITEL  = PAW_PBE C 08Apr2002                                                 
   LULTRA =        F    use ultrasoft PP ?                                      
   IUNSCR =        0    unscreen: 0-lin 1-nonlin 2-no                           
   RPACOR =     .000    partial core radius                                     
   POMASS =   12.011; ZVAL   =    4.000    mass and valenz                      
   RCORE  =    1.500    outmost cutoff radius                                   
   RWIGS  =    1.630; RWIGS  =     .863    wigner-seitz radius (au A)           
   ENMAX  =  400.000; ENMIN  =  300.000 eV                                      
   ICORE  =        2    local potential                                         
   LCOR   =        T    correct aug charges                                     
   LPAW   =        T    paw PP                                                  
   EAUG   =  644.873                                                            
   DEXC   =     .000                                                            
   RMAX   =    2.266    core radius for proj-oper                               
   RAUG   =    1.300    factor for augmentation sphere                          
   RDEP   =    1.501    radius for radial grids                                 
   RDEPT  =    1.300    core radius for aug-charge                              
   QCUT   =   -5.516; QGAM   =   11.032    optimization parameters              
                                                                                
   Description                                                                  
     l     E      TYP  RCUT    TYP  RCUT                                        
     0   .000     23  1.200                                                     
     0   .000     23  1.200                                                     
     1   .000     23  1.500                                                     
     1  2.500     23  1.500                                                     
     2   .000      7  1.500                                                     
  local pseudopotential read in
  atomic valenz-charges read in
  non local Contribution for L=           0  read in
    real space projection operators read in
  non local Contribution for L=           0  read in
    real space projection operators read in
  non local Contribution for L=           1  read in
    real space projection operators read in
  non local Contribution for L=           1  read in
    real space projection operators read in
    PAW grid and wavefunctions read in
 
   number of l-projection  operators is LMAX  =           4
   number of lm-projection operators is LMMAX =           8
 
 PAW_PBE C 08Apr2002                    :
 energy of atom  1       EATOM= -147.1560
 kinetic energy error for atom=    0.0016 (will be added to EATOM!!)
 
 
 POSCAR: C2_bilayer                              
  positions in direct lattice
  velocities in cartesian coordinates
 exchange correlation table for  LEXCH =        8
   RHO(1)=    0.500       N(1)  =     2000
   RHO(2)=  100.500       N(2)  =     4000
 


--------------------------------------------------------------------------------------------------------


 ion  position               nearest neighbor table
   1  0.000  0.000  0.000-   2 1.42   2 1.42   2 1.42
   2  0.333  0.333  0.000-   1 1.42   1 1.42   1 1.42
   3  0.000  0.000  0.222-   4 1.42   4 1.42   4 1.42
   4  0.333  0.333  0.222-   3 1.42   3 1.42   3 1.42
 
  LATTYP: Found a hexagonal cell.
 ALAT       =     2.4595120000
 C/A-ratio  =     8.1316944174
  
  Lattice vectors:
  
 A1 = (   0.0000000000,  -2.4595120000,   0.0000000000)
 A2 = (  -2.1300000000,   1.2297560000,   0.0000000000)
 A3 = (   0.0000000000,   0.0000000000, -20.0000000000)


Analysis of symmetry for initial positions (statically):
=====================================================================
 Subroutine PRICEL returns:
 Original cell was already a primitive cell.
 

 Routine SETGRP: Setting up the symmetry group for a 
 hexagonal supercell.


 Subroutine GETGRP returns: Found 24 space group operations
 (whereof  6 operations were pure point group operations)
 out of a pool of 24 trial point group operations.


The static configuration has the point symmetry C_3v.
 The point group associated with its full space group is D_6h.


Analysis of symmetry for dynamics (positions and initial velocities):
=====================================================================
 Subroutine PRICEL returns:
 Original cell was already a primitive cell.
 

 Routine SETGRP: Setting up the symmetry group for a 
 hexagonal supercell.


 Subroutine GETGRP returns: Found 24 space group operations
 (whereof  6 operations were pure point group operations)
 out of a pool of 24 trial point group operations.


The dynamic configuration has the point symmetry C_3v.
 The point group associated with its full space group is D_6h.


Analysis of constrained symmetry for selective dynamics:
=====================================================================
 Subroutine PRICEL returns:
 Original cell was already a primitive cell.
 

 Routine SETGRP: Setting up the symmetry group for a 
 hexagonal supercell.


 Subroutine GETGRP returns: Found 12 space group operations
 (whereof  6 operations were pure point group operations)
 out of a pool of 24 trial point group operations.


The constrained configuration has the point symmetry C_3v.
 The point group associated with its full space group is C_6v.


 Subroutine INISYM returns: Found 12 space group operations
 (whereof  6 operations are pure point group operations),
 and found     1 'primitive' translations

 
 
 KPOINTS: C-4                                     

Automatic generation of k-mesh.
Space group operators:
 irot       det(A)        alpha          n_x          n_y          n_z        tau_x        tau_y        tau_z
    1     1.000000     0.000000     1.000000     0.000000     0.000000     0.000000     0.000000     0.000000
    2     1.000000   120.000000     0.000000     0.000000     1.000000     0.000000     0.000000     0.000000
    3     1.000000   120.000000     0.000000     0.000000    -1.000000     0.000000     0.000000     0.000000
    4    -1.000000   180.000000    -0.000000     1.000000     0.000000     0.000000     0.000000     0.000000
    5    -1.000000   180.000000     0.866025    -0.500000     0.000000     0.000000     0.000000     0.000000
    6    -1.000000   180.000000     0.866025     0.500000     0.000000     0.000000     0.000000     0.000000
    7     1.000000    60.000000     0.000000     0.000000     1.000000     0.333333    -0.666667     0.000000
    8     1.000000   180.000000     0.000000     0.000000     1.000000     0.333333    -0.666667     0.000000
    9     1.000000    60.000000     0.000000     0.000000    -1.000000     0.333333    -0.666667     0.000000
   10    -1.000000   180.000000     0.500000    -0.866025     0.000000     0.333333    -0.666667     0.000000
   11    -1.000000   180.000000     1.000000     0.000000     0.000000     0.333333    -0.666667     0.000000
   12    -1.000000   180.000000    -0.500000    -0.866025     0.000000     0.333333    -0.666667     0.000000
 
 Subroutine IBZKPT returns following result:
 ===========================================
 
 Found    169 irreducible k-points:
 
 Following reciprocal coordinates:
            Coordinates               Weight
  0.000000  0.000000  0.000000      1.000000
  0.023810  0.000000  0.000000      6.000000
  0.047619  0.000000  0.000000      6.000000
  0.071429  0.000000  0.000000      6.000000
  0.095238  0.000000  0.000000      6.000000
  0.119048  0.000000  0.000000      6.000000
  0.142857  0.000000  0.000000      6.000000
  0.166667  0.000000  0.000000      6.000000
  0.190476  0.000000  0.000000      6.000000
  0.214286  0.000000  0.000000      6.000000
  0.238095  0.000000  0.000000      6.000000
  0.261905  0.000000  0.000000      6.000000
  0.285714  0.000000  0.000000      6.000000
  0.309524  0.000000  0.000000      6.000000
  0.333333  0.000000  0.000000      6.000000
  0.357143  0.000000  0.000000      6.000000
  0.380952  0.000000  0.000000      6.000000
  0.404762  0.000000  0.000000      6.000000
  0.428571  0.000000  0.000000      6.000000
  0.452381  0.000000  0.000000      6.000000
  0.476190  0.000000  0.000000      6.000000
  0.500000  0.000000  0.000000      3.000000
  0.047619  0.023810  0.000000      6.000000
  0.071429  0.023810  0.000000     12.000000
  0.095238  0.023810  0.000000     12.000000
  0.119048  0.023810  0.000000     12.000000
  0.142857  0.023810  0.000000     12.000000
  0.166667  0.023810  0.000000     12.000000
  0.190476  0.023810  0.000000     12.000000
  0.214286  0.023810  0.000000     12.000000
  0.238095  0.023810  0.000000     12.000000
  0.261905  0.023810  0.000000     12.000000
  0.285714  0.023810  0.000000     12.000000
  0.309524  0.023810  0.000000     12.000000
  0.333333  0.023810  0.000000     12.000000
  0.357143  0.023810  0.000000     12.000000
  0.380952  0.023810  0.000000     12.000000
  0.404762  0.023810  0.000000     12.000000
  0.428571  0.023810  0.000000     12.000000
  0.452381  0.023810  0.000000     12.000000
  0.476190  0.023810  0.000000     12.000000
  0.500000  0.023810  0.000000     12.000000
  0.095238  0.047619  0.000000      6.000000
  0.119048  0.047619  0.000000     12.000000
  0.142857  0.047619  0.000000     12.000000
  0.166667  0.047619  0.000000     12.000000
  0.190476  0.047619  0.000000     12.000000
  0.214286  0.047619  0.000000     12.000000
  0.238095  0.047619  0.000000     12.000000
  0.261905  0.047619  0.000000     12.000000
  0.285714  0.047619  0.000000     12.000000
  0.309524  0.047619  0.000000     12.000000
  0.333333  0.047619  0.000000     12.000000
  0.357143  0.047619  0.000000     12.000000
  0.380952  0.047619  0.000000     12.000000
  0.404762  0.047619  0.000000     12.000000
  0.428571  0.047619  0.000000     12.000000
  0.452381  0.047619  0.000000     12.000000
  0.476190  0.047619  0.000000     12.000000
  0.500000  0.047619  0.000000     12.000000
 -0.476190  0.047619  0.000000      6.000000
  0.142857  0.071429  0.000000      6.000000
  0.166667  0.071429  0.000000     12.000000
  0.190476  0.071429  0.000000     12.000000
  0.214286  0.071429  0.000000     12.000000
  0.238095  0.071429  0.000000     12.000000
  0.261905  0.071429  0.000000     12.000000
  0.285714  0.071429  0.000000     12.000000
  0.309524  0.071429  0.000000     12.000000
  0.333333  0.071429  0.000000     12.000000
  0.357143  0.071429  0.000000     12.000000
  0.380952  0.071429  0.000000     12.000000
  0.404762  0.071429  0.000000     12.000000
  0.428571  0.071429  0.000000     12.000000
  0.452381  0.071429  0.000000     12.000000
  0.476190  0.071429  0.000000     12.000000
  0.500000  0.071429  0.000000     12.000000
 -0.476190  0.071429  0.000000     12.000000
  0.190476  0.095238  0.000000      6.000000
  0.214286  0.095238  0.000000     12.000000
  0.238095  0.095238  0.000000     12.000000
  0.261905  0.095238  0.000000     12.000000
  0.285714  0.095238  0.000000     12.000000
  0.309524  0.095238  0.000000     12.000000
  0.333333  0.095238  0.000000     12.000000
  0.357143  0.095238  0.000000     12.000000
  0.380952  0.095238  0.000000     12.000000
  0.404762  0.095238  0.000000     12.000000
  0.428571  0.095238  0.000000     12.000000
  0.452381  0.095238  0.000000     12.000000
  0.476190  0.095238  0.000000     12.000000
  0.500000  0.095238  0.000000     12.000000
 -0.476190  0.095238  0.000000     12.000000
 -0.452381  0.095238  0.000000      6.000000
  0.238095  0.119048  0.000000      6.000000
  0.261905  0.119048  0.000000     12.000000
  0.285714  0.119048  0.000000     12.000000
  0.309524  0.119048  0.000000     12.000000
  0.333333  0.119048  0.000000     12.000000
  0.357143  0.119048  0.000000     12.000000
  0.380952  0.119048  0.000000     12.000000
  0.404762  0.119048  0.000000     12.000000
  0.428571  0.119048  0.000000     12.000000
  0.452381  0.119048  0.000000     12.000000
  0.476190  0.119048  0.000000     12.000000
  0.500000  0.119048  0.000000     12.000000
 -0.476190  0.119048  0.000000     12.000000
 -0.452381  0.119048  0.000000     12.000000
  0.285714  0.142857  0.000000      6.000000
  0.309524  0.142857  0.000000     12.000000
  0.333333  0.142857  0.000000     12.000000
  0.357143  0.142857  0.000000     12.000000
  0.380952  0.142857  0.000000     12.000000
  0.404762  0.142857  0.000000     12.000000
  0.428571  0.142857  0.000000     12.000000
  0.452381  0.142857  0.000000     12.000000
  0.476190  0.142857  0.000000     12.000000
  0.500000  0.142857  0.000000     12.000000
 -0.476190  0.142857  0.000000     12.000000
 -0.452381  0.142857  0.000000     12.000000
 -0.428571  0.142857  0.000000      6.000000
  0.333333  0.166667  0.000000      6.000000
  0.357143  0.166667  0.000000     12.000000
  0.380952  0.166667  0.000000     12.000000
  0.404762  0.166667  0.000000     12.000000
  0.428571  0.166667  0.000000     12.000000
  0.452381  0.166667  0.000000     12.000000
  0.476190  0.166667  0.000000     12.000000
  0.500000  0.166667  0.000000     12.000000
 -0.476190  0.166667  0.000000     12.000000
 -0.452381  0.166667  0.000000     12.000000
 -0.428571  0.166667  0.000000     12.000000
  0.380952  0.190476  0.000000      6.000000
  0.404762  0.190476  0.000000     12.000000
  0.428571  0.190476  0.000000     12.000000
  0.452381  0.190476  0.000000     12.000000
  0.476190  0.190476  0.000000     12.000000
  0.500000  0.190476  0.000000     12.000000
 -0.476190  0.190476  0.000000     12.000000
 -0.452381  0.190476  0.000000     12.000000
 -0.428571  0.190476  0.000000     12.000000
 -0.404762  0.190476  0.000000      6.000000
  0.428571  0.214286  0.000000      6.000000
  0.452381  0.214286  0.000000     12.000000
  0.476190  0.214286  0.000000     12.000000
  0.500000  0.214286  0.000000     12.000000
 -0.476190  0.214286  0.000000     12.000000
 -0.452381  0.214286  0.000000     12.000000
 -0.428571  0.214286  0.000000     12.000000
 -0.404762  0.214286  0.000000     12.000000
  0.476190  0.238095  0.000000      6.000000
  0.500000  0.238095  0.000000     12.000000
 -0.476190  0.238095  0.000000     12.000000
 -0.452381  0.238095  0.000000     12.000000
 -0.428571  0.238095  0.000000     12.000000
 -0.404762  0.238095  0.000000     12.000000
 -0.380952  0.238095  0.000000      6.000000
 -0.476190  0.261905  0.000000      6.000000
 -0.452381  0.261905  0.000000     12.000000
 -0.428571  0.261905  0.000000     12.000000
 -0.404762  0.261905  0.000000     12.000000
 -0.380952  0.261905  0.000000     12.000000
 -0.428571  0.285714  0.000000      6.000000
 -0.404762  0.285714  0.000000     12.000000
 -0.380952  0.285714  0.000000     12.000000
 -0.357143  0.285714  0.000000      6.000000
 -0.380952  0.309524  0.000000      6.000000
 -0.357143  0.309524  0.000000     12.000000
 -0.333333  0.333333  0.000000      2.000000
 
 Following cartesian coordinates:
            Coordinates               Weight
  0.000000  0.000000  0.000000      1.000000
  0.005589 -0.009681  0.000000      6.000000
  0.011178 -0.019361  0.000000      6.000000
  0.016767 -0.029042  0.000000      6.000000
  0.022356 -0.038722  0.000000      6.000000
  0.027945 -0.048403  0.000000      6.000000
  0.033535 -0.058084  0.000000      6.000000
  0.039124 -0.067764  0.000000      6.000000
  0.044713 -0.077445  0.000000      6.000000
  0.050302 -0.087125  0.000000      6.000000
  0.055891 -0.096806  0.000000      6.000000
  0.061480 -0.106486  0.000000      6.000000
  0.067069 -0.116167  0.000000      6.000000
  0.072658 -0.125848  0.000000      6.000000
  0.078247 -0.135528  0.000000      6.000000
  0.083836 -0.145209  0.000000      6.000000
  0.089425 -0.154889  0.000000      6.000000
  0.095015 -0.164570  0.000000      6.000000
  0.100604 -0.174251  0.000000      6.000000
  0.106193 -0.183931  0.000000      6.000000
  0.111782 -0.193612  0.000000      6.000000
  0.117371 -0.203292  0.000000      3.000000
  0.016767 -0.009681  0.000000      6.000000
  0.022356 -0.019361  0.000000     12.000000
  0.027945 -0.029042  0.000000     12.000000
  0.033535 -0.038722  0.000000     12.000000
  0.039124 -0.048403  0.000000     12.000000
  0.044713 -0.058084  0.000000     12.000000
  0.050302 -0.067764  0.000000     12.000000
  0.055891 -0.077445  0.000000     12.000000
  0.061480 -0.087125  0.000000     12.000000
  0.067069 -0.096806  0.000000     12.000000
  0.072658 -0.106486  0.000000     12.000000
  0.078247 -0.116167  0.000000     12.000000
  0.083836 -0.125848  0.000000     12.000000
  0.089425 -0.135528  0.000000     12.000000
  0.095015 -0.145209  0.000000     12.000000
  0.100604 -0.154889  0.000000     12.000000
  0.106193 -0.164570  0.000000     12.000000
  0.111782 -0.174251  0.000000     12.000000
  0.117371 -0.183931  0.000000     12.000000
  0.122960 -0.193612  0.000000     12.000000
  0.033535 -0.019361  0.000000      6.000000
  0.039124 -0.029042  0.000000     12.000000
  0.044713 -0.038722  0.000000     12.000000
  0.050302 -0.048403  0.000000     12.000000
  0.055891 -0.058084  0.000000     12.000000
  0.061480 -0.067764  0.000000     12.000000
  0.067069 -0.077445  0.000000     12.000000
  0.072658 -0.087125  0.000000     12.000000
  0.078247 -0.096806  0.000000     12.000000
  0.083836 -0.106486  0.000000     12.000000
  0.089425 -0.116167  0.000000     12.000000
  0.095015 -0.125848  0.000000     12.000000
  0.100604 -0.135528  0.000000     12.000000
  0.106193 -0.145209  0.000000     12.000000
  0.111782 -0.154889  0.000000     12.000000
  0.117371 -0.164570  0.000000     12.000000
  0.122960 -0.174251  0.000000     12.000000
  0.128549 -0.183931  0.000000     12.000000
 -0.100604  0.212973  0.000000      6.000000
  0.050302 -0.029042  0.000000      6.000000
  0.055891 -0.038722  0.000000     12.000000
  0.061480 -0.048403  0.000000     12.000000
  0.067069 -0.058084  0.000000     12.000000
  0.072658 -0.067764  0.000000     12.000000
  0.078247 -0.077445  0.000000     12.000000
  0.083836 -0.087125  0.000000     12.000000
  0.089425 -0.096806  0.000000     12.000000
  0.095015 -0.106486  0.000000     12.000000
  0.100604 -0.116167  0.000000     12.000000
  0.106193 -0.125848  0.000000     12.000000
  0.111782 -0.135528  0.000000     12.000000
  0.117371 -0.145209  0.000000     12.000000
  0.122960 -0.154889  0.000000     12.000000
  0.128549 -0.164570  0.000000     12.000000
  0.134138 -0.174251  0.000000     12.000000
 -0.095015  0.222654  0.000000     12.000000
  0.067069 -0.038722  0.000000      6.000000
  0.072658 -0.048403  0.000000     12.000000
  0.078247 -0.058084  0.000000     12.000000
  0.083836 -0.067764  0.000000     12.000000
  0.089425 -0.077445  0.000000     12.000000
  0.095015 -0.087125  0.000000     12.000000
  0.100604 -0.096806  0.000000     12.000000
  0.106193 -0.106486  0.000000     12.000000
  0.111782 -0.116167  0.000000     12.000000
  0.117371 -0.125848  0.000000     12.000000
  0.122960 -0.135528  0.000000     12.000000
  0.128549 -0.145209  0.000000     12.000000
  0.134138 -0.154889  0.000000     12.000000
  0.139727 -0.164570  0.000000     12.000000
 -0.089425  0.232334  0.000000     12.000000
 -0.083836  0.222654  0.000000      6.000000
  0.083836 -0.048403  0.000000      6.000000
  0.089425 -0.058084  0.000000     12.000000
  0.095015 -0.067764  0.000000     12.000000
  0.100604 -0.077445  0.000000     12.000000
  0.106193 -0.087125  0.000000     12.000000
  0.111782 -0.096806  0.000000     12.000000
  0.117371 -0.106486  0.000000     12.000000
  0.122960 -0.116167  0.000000     12.000000
  0.128549 -0.125848  0.000000     12.000000
  0.134138 -0.135528  0.000000     12.000000
  0.139727 -0.145209  0.000000     12.000000
  0.145316 -0.154889  0.000000     12.000000
 -0.083836  0.242015  0.000000     12.000000
 -0.078247  0.232334  0.000000     12.000000
  0.100604 -0.058084  0.000000      6.000000
  0.106193 -0.067764  0.000000     12.000000
  0.111782 -0.077445  0.000000     12.000000
  0.117371 -0.087125  0.000000     12.000000
  0.122960 -0.096806  0.000000     12.000000
  0.128549 -0.106486  0.000000     12.000000
  0.134138 -0.116167  0.000000     12.000000
  0.139727 -0.125848  0.000000     12.000000
  0.145316 -0.135528  0.000000     12.000000
  0.150905 -0.145209  0.000000     12.000000
 -0.078247  0.251695  0.000000     12.000000
 -0.072658  0.242015  0.000000     12.000000
 -0.067069  0.232334  0.000000      6.000000
  0.117371 -0.067764  0.000000      6.000000
  0.122960 -0.077445  0.000000     12.000000
  0.128549 -0.087125  0.000000     12.000000
  0.134138 -0.096806  0.000000     12.000000
  0.139727 -0.106486  0.000000     12.000000
  0.145316 -0.116167  0.000000     12.000000
  0.150905 -0.125848  0.000000     12.000000
  0.156495 -0.135528  0.000000     12.000000
 -0.072658  0.261376  0.000000     12.000000
 -0.067069  0.251695  0.000000     12.000000
 -0.061480  0.242015  0.000000     12.000000
  0.134138 -0.077445  0.000000      6.000000
  0.139727 -0.087125  0.000000     12.000000
  0.145316 -0.096806  0.000000     12.000000
  0.150905 -0.106486  0.000000     12.000000
  0.156495 -0.116167  0.000000     12.000000
  0.162084 -0.125848  0.000000     12.000000
 -0.067069  0.271056  0.000000     12.000000
 -0.061480  0.261376  0.000000     12.000000
 -0.055891  0.251695  0.000000     12.000000
 -0.050302  0.242015  0.000000      6.000000
  0.150905 -0.087125  0.000000      6.000000
  0.156495 -0.096806  0.000000     12.000000
  0.162084 -0.106486  0.000000     12.000000
  0.167673 -0.116167  0.000000     12.000000
 -0.061480  0.280737  0.000000     12.000000
 -0.055891  0.271056  0.000000     12.000000
 -0.050302  0.261376  0.000000     12.000000
 -0.044713  0.251695  0.000000     12.000000
  0.167673 -0.096806  0.000000      6.000000
  0.173262 -0.106486  0.000000     12.000000
 -0.055891  0.290418  0.000000     12.000000
 -0.050302  0.280737  0.000000     12.000000
 -0.044713  0.271056  0.000000     12.000000
 -0.039124  0.261376  0.000000     12.000000
 -0.033535  0.251695  0.000000      6.000000
 -0.050302  0.300098  0.000000      6.000000
 -0.044713  0.290418  0.000000     12.000000
 -0.039124  0.280737  0.000000     12.000000
 -0.033535  0.271056  0.000000     12.000000
 -0.027945  0.261376  0.000000     12.000000
 -0.033535  0.290418  0.000000      6.000000
 -0.027945  0.280737  0.000000     12.000000
 -0.022356  0.271056  0.000000     12.000000
 -0.016767  0.261376  0.000000      6.000000
 -0.016767  0.280737  0.000000      6.000000
 -0.011178  0.271056  0.000000     12.000000
  0.000000  0.271056  0.000000      2.000000
 


--------------------------------------------------------------------------------------------------------




 Dimension of arrays:
   k-points           NKPTS =    169   k-points in BZ     NKDIM =    169   number of bands    NBANDS=     12
   number of dos      NEDOS =   6001   number of ions     NIONS =      4
   non local maximal  LDIM  =      4   non local SUM 2l+1 LMDIM =      8
   total plane-waves  NPLWV = 110592
   max r-space proj   IRMAX =      1   max aug-charges    IRDMAX=  99836
   dimension x,y,z NGX =    24 NGY =   24 NGZ =  192
   dimension x,y,z NGXF=    48 NGYF=   48 NGZF=  384
   support grid    NGXF=    96 NGYF=   96 NGZF=  768
   ions per type =               4
   NGX,Y,Z   is equivalent  to a cutoff of  16.22, 16.22, 15.96 a.u.
   NGXF,Y,Z  is equivalent  to a cutoff of  32.44, 32.44, 31.92 a.u.

 SYSTEM =  C-4                                     
 POSCAR =  C2_bilayer                              

 Startparameter for this run:
   NWRITE =      2    write-flag & timer
   PREC   = accura    normal or accurate (medium, high low for compatibility)
   ISTART =      0    job   : 0-new  1-cont  2-samecut
   ICHARG =      1    charge: 1-file 2-atom 10-const
   ISPIN  =      1    spin polarized calculation?
   LNONCOLLINEAR =      F non collinear calculations
   LSORBIT =      F    spin-orbit coupling
   INIWAV =      1    electr: 0-lowe 1-rand  2-diag
   LASPH  =      F    aspherical Exc in radial PAW
   METAGGA=      F    non-selfconsistent MetaGGA calc.

 Electronic Relaxation 1
   ENCUT  =  800.0 eV  58.80 Ry    7.67 a.u.   5.67  5.67 46.12*2*pi/ulx,y,z
   ENINI  =  800.0     initial cutoff
   ENAUG  =  644.9 eV  augmentation charge cutoff
   NELM   =     60;   NELMIN=  5; NELMDL= -5     # of ELM steps 
   EDIFF  = 0.1E-07   stopping-criterion for ELM
   LREAL  =      F    real-space projection
   NLSPLINE    = F    spline interpolate recip. space projectors
   LCOMPAT=      F    compatible to vasp.4.4
   GGA_COMPAT  = T    GGA compatible to vasp.4.4-vasp.4.6
   LMAXPAW     = -100 max onsite density
   LMAXMIX     =    2 max onsite mixed and CHGCAR
   VOSKOWN=      0    Vosko Wilk Nusair interpolation
   ROPT   =    0.00000
 Ionic relaxation
   EDIFFG = -.1E-07   stopping-criterion for IOM
   NSW    =      0    number of steps for IOM
   NBLOCK =      1;   KBLOCK =      1    inner block; outer block 
   IBRION =     -1    ionic relax: 0-MD 1-quasi-New 2-CG
   NFREE  =      0    steps in history (QN), initial steepest desc. (CG)
   ISIF   =      2    stress and relaxation
   IWAVPR =     10    prediction:  0-non 1-charg 2-wave 3-comb
   ISYM   =      2    0-nonsym 1-usesym 2-fastsym
   LCORR  =      T    Harris-Foulkes like correction to forces

   POTIM  = 0.5000    time-step for ionic-motion
   TEIN   =    0.0    initial temperature
   TEBEG  =    0.0;   TEEND  =   0.0 temperature during run
   SMASS  =  -3.00    Nose mass-parameter (am)
   estimated Nose-frequenzy (Omega)   =  0.10E-29 period in steps =****** mass=  -0.138E-27a.u.
   SCALEE = 1.0000    scale energy and forces
   NPACO  =    256;   APACO  = 16.0  distance and # of slots for P.C.
   PSTRESS=    0.0 pullay stress

  Mass of Ions in am
   POMASS =  12.01
  Ionic Valenz
   ZVAL   =   4.00
  Atomic Wigner-Seitz radii
   RWIGS  =  -1.00
  virtual crystal weights 
   VCA    =   1.00
   NELECT =      16.0000    total number of electrons
   NUPDOWN=      -1.0000    fix difference up-down

 DOS related values:
   EMIN   =  10.00;   EMAX   =-10.00  energy-range for DOS
   EFERMI =   0.00
   ISMEAR =     0;   SIGMA  =   0.10  broadening in eV -4-tet -1-fermi 0-gaus

 Electronic relaxation 2 (details)
   IALGO  =     38    algorithm
   LDIAG  =      T    sub-space diagonalisation (order eigenvalues)
   LSUBROT=      F    optimize rotation matrix (better conditioning)
   TURBO    =      0    0=normal 1=particle mesh
   IRESTART =      0    0=no restart 2=restart with 2 vectors
   NREBOOT  =      0    no. of reboots
   NMIN     =      0    reboot dimension
   EREF     =   0.00    reference energy to select bands
   IMIX   =      4    mixing-type and parameters
     AMIX     =   0.40;   BMIX     =  1.00
     AMIX_MAG =   1.60;   BMIX_MAG =  1.00
     AMIN     =   0.01
     WC   =   100.;   INIMIX=   1;  MIXPRE=   1;  MAXMIX= -45

 Intra band minimization:
   WEIMIN = 0.0000     energy-eigenvalue tresh-hold
   EBREAK =  0.21E-10  absolut break condition
   DEPER  =   0.30     relativ break condition  

   TIME   =   0.40     timestep for ELM

  volume/ion in A,a.u.               =      26.19       176.76
  Fermi-wavevector in a.u.,A,eV,Ry     =   0.875041  1.653589 10.417948  0.765698
  Thomas-Fermi vector in A             =   1.994657
 
 Write flags
   LWAVE        =      F    write WAVECAR
   LDOWNSAMPLE  =      F    k-point downsampling of WAVECAR
   LCHARG       =      T    write CHGCAR
   LVTOT        =      F    write LOCPOT, total local potential
   LVHAR        =      F    write LOCPOT, Hartree potential only
   LELF         =      F    write electronic localiz. function (ELF)
   LORBIT       =      0    0 simple, 1 ext, 2 COOP (PROOUT), +10 PAW based schemes


 Dipole corrections
   LMONO  =      F    monopole corrections only (constant potential shift)
   LDIPOL =      F    correct potential (dipole corrections)
   IDIPOL =      0    1-x, 2-y, 3-z, 4-all directions 
   EPSILON=  1.0000000 bulk dielectric constant

 Exchange correlation treatment:
   GGA     =    --    GGA type
   LEXCH   =     8    internal setting for exchange type
   VOSKOWN=      0    Vosko Wilk Nusair interpolation
   LHFCALC =     F    Hartree Fock is set to
   LHFONE  =     F    Hartree Fock one center treatment
   AEXX    =    0.0000 exact exchange contribution

 Linear response parameters
   LEPSILON=     F    determine dielectric tensor
   LRPA    =     F    only Hartree local field effects (RPA)
   LNABLA  =     F    use nabla operator in PAW spheres
   LVEL    =     F    velocity operator in full k-point grid
   LINTERFAST=   F  fast interpolation
   KINTER  =     0    interpolate to denser k-point grid
   CSHIFT  =0.1000    complex shift for real part using Kramers Kronig
   OMEGAMAX=  -1.0    maximum frequency
   DEG_THRESHOLD= 0.2000000E-02 threshold for treating states as degnerate
   RTIME   =   -0.100 relaxation time in fs
  (WPLASMAI=    0.000 imaginary part of plasma frequency in eV, 0.658/RTIME)
   DFIELD  = 0.0000000 0.0000000 0.0000000 field for delta impulse in time
 
 Orbital magnetization related:
   ORBITALMAG=     F  switch on orbital magnetization
   LCHIMAG   =     F  perturbation theory with respect to B field
   DQ        =  0.001000  dq finite difference perturbation B field
   LLRAUG    =     F  two centre corrections for induced B field



--------------------------------------------------------------------------------------------------------


 Static calculation
 charge density and potential will be updated during run
 non-spin polarized calculation
 Variant of blocked Davidson
 Davidson routine will perform the subspace rotation
 perform sub-space diagonalisation
    after iterative eigenvector-optimisation
 modified Broyden-mixing scheme, WC =      100.0
 initial mixing is a Kerker type mixing with AMIX =  0.4000 and BMIX =      1.0000
 Hartree-type preconditioning will be used
 using additional bands            4
 reciprocal scheme for non local part
 calculate Harris-corrections to forces 
   (improved forces if not selfconsistent)
 use gradient corrections 
 use of overlap-Matrix (Vanderbilt PP)
 Gauss-broadening in eV      SIGMA  =   0.10


--------------------------------------------------------------------------------------------------------


  energy-cutoff  :      800.00
  volume of cell :      104.78
      direct lattice vectors                 reciprocal lattice vectors
     2.130000000 -1.229756000  0.000000000     0.234741784 -0.406584721  0.000000000
     2.130000000  1.229756000  0.000000000     0.234741784  0.406584721  0.000000000
     0.000000000  0.000000000 20.000000000     0.000000000  0.000000000  0.050000000

  length of vectors
     2.459512110  2.459512110 20.000000000     0.469483589  0.469483589  0.050000000


 
 k-points in units of 2pi/SCALE and weight: C-4                                     
   0.00000000  0.00000000  0.00000000       0.001
   0.00558909 -0.00968059  0.00000000       0.003
   0.01117818 -0.01936118  0.00000000       0.003
   0.01676727 -0.02904177  0.00000000       0.003
   0.02235636 -0.03872235  0.00000000       0.003
   0.02794545 -0.04840294  0.00000000       0.003
   0.03353454 -0.05808353  0.00000000       0.003
   0.03912363 -0.06776412  0.00000000       0.003
   0.04471272 -0.07744471  0.00000000       0.003
   0.05030181 -0.08712530  0.00000000       0.003
   0.05589090 -0.09680589  0.00000000       0.003
   0.06147999 -0.10648647  0.00000000       0.003
   0.06706908 -0.11616706  0.00000000       0.003
   0.07265817 -0.12584765  0.00000000       0.003
   0.07824726 -0.13552824  0.00000000       0.003
   0.08383635 -0.14520883  0.00000000       0.003
   0.08942544 -0.15488942  0.00000000       0.003
   0.09501453 -0.16457001  0.00000000       0.003
   0.10060362 -0.17425059  0.00000000       0.003
   0.10619271 -0.18393118  0.00000000       0.003
   0.11178180 -0.19361177  0.00000000       0.003
   0.11737089 -0.20329236  0.00000000       0.002
   0.01676727 -0.00968059  0.00000000       0.003
   0.02235636 -0.01936118  0.00000000       0.007
   0.02794545 -0.02904177  0.00000000       0.007
   0.03353454 -0.03872235  0.00000000       0.007
   0.03912363 -0.04840294  0.00000000       0.007
   0.04471272 -0.05808353  0.00000000       0.007
   0.05030181 -0.06776412  0.00000000       0.007
   0.05589090 -0.07744471  0.00000000       0.007
   0.06147999 -0.08712530  0.00000000       0.007
   0.06706908 -0.09680589  0.00000000       0.007
   0.07265817 -0.10648647  0.00000000       0.007
   0.07824726 -0.11616706  0.00000000       0.007
   0.08383635 -0.12584765  0.00000000       0.007
   0.08942544 -0.13552824  0.00000000       0.007
   0.09501453 -0.14520883  0.00000000       0.007
   0.10060362 -0.15488942  0.00000000       0.007
   0.10619271 -0.16457001  0.00000000       0.007
   0.11178180 -0.17425059  0.00000000       0.007
   0.11737089 -0.18393118  0.00000000       0.007
   0.12295998 -0.19361177  0.00000000       0.007
   0.03353454 -0.01936118  0.00000000       0.003
   0.03912363 -0.02904177  0.00000000       0.007
   0.04471272 -0.03872235  0.00000000       0.007
   0.05030181 -0.04840294  0.00000000       0.007
   0.05589090 -0.05808353  0.00000000       0.007
   0.06147999 -0.06776412  0.00000000       0.007
   0.06706908 -0.07744471  0.00000000       0.007
   0.07265817 -0.08712530  0.00000000       0.007
   0.07824726 -0.09680589  0.00000000       0.007
   0.08383635 -0.10648647  0.00000000       0.007
   0.08942544 -0.11616706  0.00000000       0.007
   0.09501453 -0.12584765  0.00000000       0.007
   0.10060362 -0.13552824  0.00000000       0.007
   0.10619271 -0.14520883  0.00000000       0.007
   0.11178180 -0.15488942  0.00000000       0.007
   0.11737089 -0.16457001  0.00000000       0.007
   0.12295998 -0.17425059  0.00000000       0.007
   0.12854907 -0.18393118  0.00000000       0.007
  -0.10060362  0.21297295  0.00000000       0.003
   0.05030181 -0.02904177  0.00000000       0.003
   0.05589090 -0.03872235  0.00000000       0.007
   0.06147999 -0.04840294  0.00000000       0.007
   0.06706908 -0.05808353  0.00000000       0.007
   0.07265817 -0.06776412  0.00000000       0.007
   0.07824726 -0.07744471  0.00000000       0.007
   0.08383635 -0.08712530  0.00000000       0.007
   0.08942544 -0.09680589  0.00000000       0.007
   0.09501453 -0.10648647  0.00000000       0.007
   0.10060362 -0.11616706  0.00000000       0.007
   0.10619271 -0.12584765  0.00000000       0.007
   0.11178180 -0.13552824  0.00000000       0.007
   0.11737089 -0.14520883  0.00000000       0.007
   0.12295998 -0.15488942  0.00000000       0.007
   0.12854907 -0.16457001  0.00000000       0.007
   0.13413816 -0.17425059  0.00000000       0.007
  -0.09501453  0.22265354  0.00000000       0.007
   0.06706908 -0.03872235  0.00000000       0.003
   0.07265817 -0.04840294  0.00000000       0.007
   0.07824726 -0.05808353  0.00000000       0.007
   0.08383635 -0.06776412  0.00000000       0.007
   0.08942544 -0.07744471  0.00000000       0.007
   0.09501453 -0.08712530  0.00000000       0.007
   0.10060362 -0.09680589  0.00000000       0.007
   0.10619271 -0.10648647  0.00000000       0.007
   0.11178180 -0.11616706  0.00000000       0.007
   0.11737089 -0.12584765  0.00000000       0.007
   0.12295998 -0.13552824  0.00000000       0.007
   0.12854907 -0.14520883  0.00000000       0.007
   0.13413816 -0.15488942  0.00000000       0.007
   0.13972725 -0.16457001  0.00000000       0.007
  -0.08942544  0.23233413  0.00000000       0.007
  -0.08383635  0.22265354  0.00000000       0.003
   0.08383635 -0.04840294  0.00000000       0.003
   0.08942544 -0.05808353  0.00000000       0.007
   0.09501453 -0.06776412  0.00000000       0.007
   0.10060362 -0.07744471  0.00000000       0.007
   0.10619271 -0.08712530  0.00000000       0.007
   0.11178180 -0.09680589  0.00000000       0.007
   0.11737089 -0.10648647  0.00000000       0.007
   0.12295998 -0.11616706  0.00000000       0.007
   0.12854907 -0.12584765  0.00000000       0.007
   0.13413816 -0.13552824  0.00000000       0.007
   0.13972725 -0.14520883  0.00000000       0.007
   0.14531634 -0.15488942  0.00000000       0.007
  -0.08383635  0.24201471  0.00000000       0.007
  -0.07824726  0.23233413  0.00000000       0.007
   0.10060362 -0.05808353  0.00000000       0.003
   0.10619271 -0.06776412  0.00000000       0.007
   0.11178180 -0.07744471  0.00000000       0.007
   0.11737089 -0.08712530  0.00000000       0.007
   0.12295998 -0.09680589  0.00000000       0.007
   0.12854907 -0.10648647  0.00000000       0.007
   0.13413816 -0.11616706  0.00000000       0.007
   0.13972725 -0.12584765  0.00000000       0.007
   0.14531634 -0.13552824  0.00000000       0.007
   0.15090543 -0.14520883  0.00000000       0.007
  -0.07824726  0.25169530  0.00000000       0.007
  -0.07265817  0.24201471  0.00000000       0.007
  -0.06706908  0.23233413  0.00000000       0.003
   0.11737089 -0.06776412  0.00000000       0.003
   0.12295998 -0.07744471  0.00000000       0.007
   0.12854907 -0.08712530  0.00000000       0.007
   0.13413816 -0.09680589  0.00000000       0.007
   0.13972725 -0.10648647  0.00000000       0.007
   0.14531634 -0.11616706  0.00000000       0.007
   0.15090543 -0.12584765  0.00000000       0.007
   0.15649452 -0.13552824  0.00000000       0.007
  -0.07265817  0.26137589  0.00000000       0.007
  -0.06706908  0.25169530  0.00000000       0.007
  -0.06147999  0.24201471  0.00000000       0.007
   0.13413816 -0.07744471  0.00000000       0.003
   0.13972725 -0.08712530  0.00000000       0.007
   0.14531634 -0.09680589  0.00000000       0.007
   0.15090543 -0.10648647  0.00000000       0.007
   0.15649452 -0.11616706  0.00000000       0.007
   0.16208361 -0.12584765  0.00000000       0.007
  -0.06706908  0.27105648  0.00000000       0.007
  -0.06147999  0.26137589  0.00000000       0.007
  -0.05589090  0.25169530  0.00000000       0.007
  -0.05030181  0.24201471  0.00000000       0.003
   0.15090543 -0.08712530  0.00000000       0.003
   0.15649452 -0.09680589  0.00000000       0.007
   0.16208361 -0.10648647  0.00000000       0.007
   0.16767270 -0.11616706  0.00000000       0.007
  -0.06147999  0.28073707  0.00000000       0.007
  -0.05589090  0.27105648  0.00000000       0.007
  -0.05030181  0.26137589  0.00000000       0.007
  -0.04471272  0.25169530  0.00000000       0.007
   0.16767270 -0.09680589  0.00000000       0.003
   0.17326179 -0.10648647  0.00000000       0.007
  -0.05589090  0.29041766  0.00000000       0.007
  -0.05030181  0.28073707  0.00000000       0.007
  -0.04471272  0.27105648  0.00000000       0.007
  -0.03912363  0.26137589  0.00000000       0.007
  -0.03353454  0.25169530  0.00000000       0.003
  -0.05030181  0.30009825  0.00000000       0.003
  -0.04471272  0.29041766  0.00000000       0.007
  -0.03912363  0.28073707  0.00000000       0.007
  -0.03353454  0.27105648  0.00000000       0.007
  -0.02794545  0.26137589  0.00000000       0.007
  -0.03353454  0.29041766  0.00000000       0.003
  -0.02794545  0.28073707  0.00000000       0.007
  -0.02235636  0.27105648  0.00000000       0.007
  -0.01676727  0.26137589  0.00000000       0.003
  -0.01676727  0.28073707  0.00000000       0.003
  -0.01117818  0.27105648  0.00000000       0.007
   0.00000000  0.27105648  0.00000000       0.001
 
 k-points in reciprocal lattice and weights: C-4                                     
   0.00000000  0.00000000  0.00000000       0.001
   0.02380952  0.00000000  0.00000000       0.003
   0.04761905  0.00000000  0.00000000       0.003
   0.07142857  0.00000000  0.00000000       0.003
   0.09523810  0.00000000  0.00000000       0.003
   0.11904762  0.00000000  0.00000000       0.003
   0.14285714  0.00000000  0.00000000       0.003
   0.16666667  0.00000000  0.00000000       0.003
   0.19047619  0.00000000  0.00000000       0.003
   0.21428571  0.00000000  0.00000000       0.003
   0.23809524  0.00000000  0.00000000       0.003
   0.26190476  0.00000000  0.00000000       0.003
   0.28571429  0.00000000  0.00000000       0.003
   0.30952381  0.00000000  0.00000000       0.003
   0.33333333  0.00000000  0.00000000       0.003
   0.35714286  0.00000000  0.00000000       0.003
   0.38095238  0.00000000  0.00000000       0.003
   0.40476190  0.00000000  0.00000000       0.003
   0.42857143  0.00000000  0.00000000       0.003
   0.45238095  0.00000000  0.00000000       0.003
   0.47619048  0.00000000  0.00000000       0.003
   0.50000000  0.00000000  0.00000000       0.002
   0.04761905  0.02380952  0.00000000       0.003
   0.07142857  0.02380952  0.00000000       0.007
   0.09523810  0.02380952  0.00000000       0.007
   0.11904762  0.02380952  0.00000000       0.007
   0.14285714  0.02380952  0.00000000       0.007
   0.16666667  0.02380952  0.00000000       0.007
   0.19047619  0.02380952  0.00000000       0.007
   0.21428571  0.02380952  0.00000000       0.007
   0.23809524  0.02380952  0.00000000       0.007
   0.26190476  0.02380952  0.00000000       0.007
   0.28571429  0.02380952  0.00000000       0.007
   0.30952381  0.02380952  0.00000000       0.007
   0.33333333  0.02380952  0.00000000       0.007
   0.35714286  0.02380952  0.00000000       0.007
   0.38095238  0.02380952  0.00000000       0.007
   0.40476190  0.02380952  0.00000000       0.007
   0.42857143  0.02380952  0.00000000       0.007
   0.45238095  0.02380952  0.00000000       0.007
   0.47619048  0.02380952  0.00000000       0.007
   0.50000000  0.02380952  0.00000000       0.007
   0.09523810  0.04761905  0.00000000       0.003
   0.11904762  0.04761905  0.00000000       0.007
   0.14285714  0.04761905  0.00000000       0.007
   0.16666667  0.04761905  0.00000000       0.007
   0.19047619  0.04761905  0.00000000       0.007
   0.21428571  0.04761905  0.00000000       0.007
   0.23809524  0.04761905  0.00000000       0.007
   0.26190476  0.04761905  0.00000000       0.007
   0.28571429  0.04761905  0.00000000       0.007
   0.30952381  0.04761905  0.00000000       0.007
   0.33333333  0.04761905  0.00000000       0.007
   0.35714286  0.04761905  0.00000000       0.007
   0.38095238  0.04761905  0.00000000       0.007
   0.40476190  0.04761905  0.00000000       0.007
   0.42857143  0.04761905  0.00000000       0.007
   0.45238095  0.04761905  0.00000000       0.007
   0.47619048  0.04761905  0.00000000       0.007
   0.50000000  0.04761905  0.00000000       0.007
  -0.47619048  0.04761905  0.00000000       0.003
   0.14285714  0.07142857  0.00000000       0.003
   0.16666667  0.07142857  0.00000000       0.007
   0.19047619  0.07142857  0.00000000       0.007
   0.21428571  0.07142857  0.00000000       0.007
   0.23809524  0.07142857  0.00000000       0.007
   0.26190476  0.07142857  0.00000000       0.007
   0.28571429  0.07142857  0.00000000       0.007
   0.30952381  0.07142857  0.00000000       0.007
   0.33333333  0.07142857  0.00000000       0.007
   0.35714286  0.07142857  0.00000000       0.007
   0.38095238  0.07142857  0.00000000       0.007
   0.40476190  0.07142857  0.00000000       0.007
   0.42857143  0.07142857  0.00000000       0.007
   0.45238095  0.07142857  0.00000000       0.007
   0.47619048  0.07142857  0.00000000       0.007
   0.50000000  0.07142857  0.00000000       0.007
  -0.47619048  0.07142857  0.00000000       0.007
   0.19047619  0.09523810  0.00000000       0.003
   0.21428571  0.09523810  0.00000000       0.007
   0.23809524  0.09523810  0.00000000       0.007
   0.26190476  0.09523810  0.00000000       0.007
   0.28571429  0.09523810  0.00000000       0.007
   0.30952381  0.09523810  0.00000000       0.007
   0.33333333  0.09523810  0.00000000       0.007
   0.35714286  0.09523810  0.00000000       0.007
   0.38095238  0.09523810  0.00000000       0.007
   0.40476190  0.09523810  0.00000000       0.007
   0.42857143  0.09523810  0.00000000       0.007
   0.45238095  0.09523810  0.00000000       0.007
   0.47619048  0.09523810  0.00000000       0.007
   0.50000000  0.09523810  0.00000000       0.007
  -0.47619048  0.09523810  0.00000000       0.007
  -0.45238095  0.09523810  0.00000000       0.003
   0.23809524  0.11904762  0.00000000       0.003
   0.26190476  0.11904762  0.00000000       0.007
   0.28571429  0.11904762  0.00000000       0.007
   0.30952381  0.11904762  0.00000000       0.007
   0.33333333  0.11904762  0.00000000       0.007
   0.35714286  0.11904762  0.00000000       0.007
   0.38095238  0.11904762  0.00000000       0.007
   0.40476190  0.11904762  0.00000000       0.007
   0.42857143  0.11904762  0.00000000       0.007
   0.45238095  0.11904762  0.00000000       0.007
   0.47619048  0.11904762  0.00000000       0.007
   0.50000000  0.11904762  0.00000000       0.007
  -0.47619048  0.11904762  0.00000000       0.007
  -0.45238095  0.11904762  0.00000000       0.007
   0.28571429  0.14285714  0.00000000       0.003
   0.30952381  0.14285714  0.00000000       0.007
   0.33333333  0.14285714  0.00000000       0.007
   0.35714286  0.14285714  0.00000000       0.007
   0.38095238  0.14285714  0.00000000       0.007
   0.40476190  0.14285714  0.00000000       0.007
   0.42857143  0.14285714  0.00000000       0.007
   0.45238095  0.14285714  0.00000000       0.007
   0.47619048  0.14285714  0.00000000       0.007
   0.50000000  0.14285714  0.00000000       0.007
  -0.47619048  0.14285714  0.00000000       0.007
  -0.45238095  0.14285714  0.00000000       0.007
  -0.42857143  0.14285714  0.00000000       0.003
   0.33333333  0.16666667  0.00000000       0.003
   0.35714286  0.16666667  0.00000000       0.007
   0.38095238  0.16666667  0.00000000       0.007
   0.40476190  0.16666667  0.00000000       0.007
   0.42857143  0.16666667  0.00000000       0.007
   0.45238095  0.16666667  0.00000000       0.007
   0.47619048  0.16666667  0.00000000       0.007
   0.50000000  0.16666667  0.00000000       0.007
  -0.47619048  0.16666667  0.00000000       0.007
  -0.45238095  0.16666667  0.00000000       0.007
  -0.42857143  0.16666667  0.00000000       0.007
   0.38095238  0.19047619  0.00000000       0.003
   0.40476190  0.19047619  0.00000000       0.007
   0.42857143  0.19047619  0.00000000       0.007
   0.45238095  0.19047619  0.00000000       0.007
   0.47619048  0.19047619  0.00000000       0.007
   0.50000000  0.19047619  0.00000000       0.007
  -0.47619048  0.19047619  0.00000000       0.007
  -0.45238095  0.19047619  0.00000000       0.007
  -0.42857143  0.19047619  0.00000000       0.007
  -0.40476190  0.19047619  0.00000000       0.003
   0.42857143  0.21428571  0.00000000       0.003
   0.45238095  0.21428571  0.00000000       0.007
   0.47619048  0.21428571  0.00000000       0.007
   0.50000000  0.21428571  0.00000000       0.007
  -0.47619048  0.21428571  0.00000000       0.007
  -0.45238095  0.21428571  0.00000000       0.007
  -0.42857143  0.21428571  0.00000000       0.007
  -0.40476190  0.21428571  0.00000000       0.007
   0.47619048  0.23809524  0.00000000       0.003
   0.50000000  0.23809524  0.00000000       0.007
  -0.47619048  0.23809524  0.00000000       0.007
  -0.45238095  0.23809524  0.00000000       0.007
  -0.42857143  0.23809524  0.00000000       0.007
  -0.40476190  0.23809524  0.00000000       0.007
  -0.38095238  0.23809524  0.00000000       0.003
  -0.47619048  0.26190476  0.00000000       0.003
  -0.45238095  0.26190476  0.00000000       0.007
  -0.42857143  0.26190476  0.00000000       0.007
  -0.40476190  0.26190476  0.00000000       0.007
  -0.38095238  0.26190476  0.00000000       0.007
  -0.42857143  0.28571429  0.00000000       0.003
  -0.40476190  0.28571429  0.00000000       0.007
  -0.38095238  0.28571429  0.00000000       0.007
  -0.35714286  0.28571429  0.00000000       0.003
  -0.38095238  0.30952381  0.00000000       0.003
  -0.35714286  0.30952381  0.00000000       0.007
  -0.33333333  0.33333333  0.00000000       0.001
 
 position of ions in fractional coordinates (direct lattice) 
   0.00000000  0.00000000  0.00000000
   0.33333300  0.33333300  0.00000000
   0.00000000  0.00000000  0.22193400
   0.33333300  0.33333300  0.22193400
 
 position of ions in cartesian coordinates  (Angst):
   0.00000000  0.00000000  0.00000000
   1.41999858  0.00000000  0.00000000
   0.00000000  0.00000000  4.43868000
   1.41999858  0.00000000  4.43868000
 


--------------------------------------------------------------------------------------------------------


 k-point  1 :   0.0000 0.0000 0.0000  plane waves:    5409
 k-point  2 :   0.0238 0.0000 0.0000  plane waves:    5407
 k-point  3 :   0.0476 0.0000 0.0000  plane waves:    5413
 k-point  4 :   0.0714 0.0000 0.0000  plane waves:    5415
 k-point  5 :   0.0952 0.0000 0.0000  plane waves:    5402
 k-point  6 :   0.1190 0.0000 0.0000  plane waves:    5406
 k-point  7 :   0.1429 0.0000 0.0000  plane waves:    5398
 k-point  8 :   0.1667 0.0000 0.0000  plane waves:    5394
 k-point  9 :   0.1905 0.0000 0.0000  plane waves:    5404
 k-point 10 :   0.2143 0.0000 0.0000  plane waves:    5410
 k-point 11 :   0.2381 0.0000 0.0000  plane waves:    5408
 k-point 12 :   0.2619 0.0000 0.0000  plane waves:    5402
 k-point 13 :   0.2857 0.0000 0.0000  plane waves:    5404
 k-point 14 :   0.3095 0.0000 0.0000  plane waves:    5394
 k-point 15 :   0.3333 0.0000 0.0000  plane waves:    5394
 k-point 16 :   0.3571 0.0000 0.0000  plane waves:    5390
 k-point 17 :   0.3810 0.0000 0.0000  plane waves:    5382
 k-point 18 :   0.4048 0.0000 0.0000  plane waves:    5382
 k-point 19 :   0.4286 0.0000 0.0000  plane waves:    5396
 k-point 20 :   0.4524 0.0000 0.0000  plane waves:    5390
 k-point 21 :   0.4762 0.0000 0.0000  plane waves:    5380
 k-point 22 :   0.5000 0.0000 0.0000  plane waves:    5384
 k-point 23 :   0.0476 0.0238 0.0000  plane waves:    5403
 k-point 24 :   0.0714 0.0238 0.0000  plane waves:    5411
 k-point 25 :   0.0952 0.0238 0.0000  plane waves:    5401
 k-point 26 :   0.1190 0.0238 0.0000  plane waves:    5406
 k-point 27 :   0.1429 0.0238 0.0000  plane waves:    5404
 k-point 28 :   0.1667 0.0238 0.0000  plane waves:    5403
 k-point 29 :   0.1905 0.0238 0.0000  plane waves:    5397
 k-point 30 :   0.2143 0.0238 0.0000  plane waves:    5399
 k-point 31 :   0.2381 0.0238 0.0000  plane waves:    5400
 k-point 32 :   0.2619 0.0238 0.0000  plane waves:    5404
 k-point 33 :   0.2857 0.0238 0.0000  plane waves:    5404
 k-point 34 :   0.3095 0.0238 0.0000  plane waves:    5402
 k-point 35 :   0.3333 0.0238 0.0000  plane waves:    5383
 k-point 36 :   0.3571 0.0238 0.0000  plane waves:    5372
 k-point 37 :   0.3810 0.0238 0.0000  plane waves:    5386
 k-point 38 :   0.4048 0.0238 0.0000  plane waves:    5380
 k-point 39 :   0.4286 0.0238 0.0000  plane waves:    5394
 k-point 40 :   0.4524 0.0238 0.0000  plane waves:    5396
 k-point 41 :   0.4762 0.0238 0.0000  plane waves:    5391
 k-point 42 :   0.5000 0.0238 0.0000  plane waves:    5385
 k-point 43 :   0.0952 0.0476 0.0000  plane waves:    5411
 k-point 44 :   0.1190 0.0476 0.0000  plane waves:    5406
 k-point 45 :   0.1429 0.0476 0.0000  plane waves:    5415
 k-point 46 :   0.1667 0.0476 0.0000  plane waves:    5407
 k-point 47 :   0.1905 0.0476 0.0000  plane waves:    5413
 k-point 48 :   0.2143 0.0476 0.0000  plane waves:    5409
 k-point 49 :   0.2381 0.0476 0.0000  plane waves:    5399
 k-point 50 :   0.2619 0.0476 0.0000  plane waves:    5403
 k-point 51 :   0.2857 0.0476 0.0000  plane waves:    5396
 k-point 52 :   0.3095 0.0476 0.0000  plane waves:    5394
 k-point 53 :   0.3333 0.0476 0.0000  plane waves:    5389
 k-point 54 :   0.3571 0.0476 0.0000  plane waves:    5372
 k-point 55 :   0.3810 0.0476 0.0000  plane waves:    5378
 k-point 56 :   0.4048 0.0476 0.0000  plane waves:    5374
 k-point 57 :   0.4286 0.0476 0.0000  plane waves:    5381
 k-point 58 :   0.4524 0.0476 0.0000  plane waves:    5386
 k-point 59 :   0.4762 0.0476 0.0000  plane waves:    5391
 k-point 60 :   0.5000 0.0476 0.0000  plane waves:    5387
 k-point 61 :  -0.4762 0.0476 0.0000  plane waves:    5394
 k-point 62 :   0.1429 0.0714 0.0000  plane waves:    5425
 k-point 63 :   0.1667 0.0714 0.0000  plane waves:    5409
 k-point 64 :   0.1905 0.0714 0.0000  plane waves:    5409
 k-point 65 :   0.2143 0.0714 0.0000  plane waves:    5411
 k-point 66 :   0.2381 0.0714 0.0000  plane waves:    5413
 k-point 67 :   0.2619 0.0714 0.0000  plane waves:    5411
 k-point 68 :   0.2857 0.0714 0.0000  plane waves:    5395
 k-point 69 :   0.3095 0.0714 0.0000  plane waves:    5395
 k-point 70 :   0.3333 0.0714 0.0000  plane waves:    5380
 k-point 71 :   0.3571 0.0714 0.0000  plane waves:    5373
 k-point 72 :   0.3810 0.0714 0.0000  plane waves:    5372
 k-point 73 :   0.4048 0.0714 0.0000  plane waves:    5367
 k-point 74 :   0.4286 0.0714 0.0000  plane waves:    5375
 k-point 75 :   0.4524 0.0714 0.0000  plane waves:    5381
 k-point 76 :   0.4762 0.0714 0.0000  plane waves:    5389
 k-point 77 :   0.5000 0.0714 0.0000  plane waves:    5392
 k-point 78 :  -0.4762 0.0714 0.0000  plane waves:    5388
 k-point 79 :   0.1905 0.0952 0.0000  plane waves:    5403
 k-point 80 :   0.2143 0.0952 0.0000  plane waves:    5409
 k-point 81 :   0.2381 0.0952 0.0000  plane waves:    5409
 k-point 82 :   0.2619 0.0952 0.0000  plane waves:    5409
 k-point 83 :   0.2857 0.0952 0.0000  plane waves:    5419
 k-point 84 :   0.3095 0.0952 0.0000  plane waves:    5385
 k-point 85 :   0.3333 0.0952 0.0000  plane waves:    5384
 k-point 86 :   0.3571 0.0952 0.0000  plane waves:    5380
 k-point 87 :   0.3810 0.0952 0.0000  plane waves:    5369
 k-point 88 :   0.4048 0.0952 0.0000  plane waves:    5361
 k-point 89 :   0.4286 0.0952 0.0000  plane waves:    5364
 k-point 90 :   0.4524 0.0952 0.0000  plane waves:    5378
 k-point 91 :   0.4762 0.0952 0.0000  plane waves:    5382
 k-point 92 :   0.5000 0.0952 0.0000  plane waves:    5394
 k-point 93 :  -0.4762 0.0952 0.0000  plane waves:    5404
 k-point 94 :  -0.4524 0.0952 0.0000  plane waves:    5398
 k-point 95 :   0.2381 0.1190 0.0000  plane waves:    5405
 k-point 96 :   0.2619 0.1190 0.0000  plane waves:    5403
 k-point 97 :   0.2857 0.1190 0.0000  plane waves:    5401
 k-point 98 :   0.3095 0.1190 0.0000  plane waves:    5403
 k-point 99 :   0.3333 0.1190 0.0000  plane waves:    5388
 k-point ** :   0.3571 0.1190 0.0000  plane waves:    5390
 k-point ** :   0.3810 0.1190 0.0000  plane waves:    5379
 k-point ** :   0.4048 0.1190 0.0000  plane waves:    5359
 k-point ** :   0.4286 0.1190 0.0000  plane waves:    5351
 k-point ** :   0.4524 0.1190 0.0000  plane waves:    5363
 k-point ** :   0.4762 0.1190 0.0000  plane waves:    5382
 k-point ** :   0.5000 0.1190 0.0000  plane waves:    5375
 k-point ** :  -0.4762 0.1190 0.0000  plane waves:    5386
 k-point ** :  -0.4524 0.1190 0.0000  plane waves:    5396
 k-point ** :   0.2857 0.1429 0.0000  plane waves:    5405
 k-point ** :   0.3095 0.1429 0.0000  plane waves:    5401
 k-point ** :   0.3333 0.1429 0.0000  plane waves:    5404
 k-point ** :   0.3571 0.1429 0.0000  plane waves:    5390
 k-point ** :   0.3810 0.1429 0.0000  plane waves:    5382
 k-point ** :   0.4048 0.1429 0.0000  plane waves:    5367
 k-point ** :   0.4286 0.1429 0.0000  plane waves:    5347
 k-point ** :   0.4524 0.1429 0.0000  plane waves:    5358
 k-point ** :   0.4762 0.1429 0.0000  plane waves:    5367
 k-point ** :   0.5000 0.1429 0.0000  plane waves:    5379
 k-point ** :  -0.4762 0.1429 0.0000  plane waves:    5376
 k-point ** :  -0.4524 0.1429 0.0000  plane waves:    5384
 k-point ** :  -0.4286 0.1429 0.0000  plane waves:    5400
 k-point ** :   0.3333 0.1667 0.0000  plane waves:    5400
 k-point ** :   0.3571 0.1667 0.0000  plane waves:    5402
 k-point ** :   0.3810 0.1667 0.0000  plane waves:    5386
 k-point ** :   0.4048 0.1667 0.0000  plane waves:    5369
 k-point ** :   0.4286 0.1667 0.0000  plane waves:    5354
 k-point ** :   0.4524 0.1667 0.0000  plane waves:    5360
 k-point ** :   0.4762 0.1667 0.0000  plane waves:    5361
 k-point ** :   0.5000 0.1667 0.0000  plane waves:    5371
 k-point ** :  -0.4762 0.1667 0.0000  plane waves:    5374
 k-point ** :  -0.4524 0.1667 0.0000  plane waves:    5379
 k-point ** :  -0.4286 0.1667 0.0000  plane waves:    5384
 k-point ** :   0.3810 0.1905 0.0000  plane waves:    5390
 k-point ** :   0.4048 0.1905 0.0000  plane waves:    5379
 k-point ** :   0.4286 0.1905 0.0000  plane waves:    5358
 k-point ** :   0.4524 0.1905 0.0000  plane waves:    5357
 k-point ** :   0.4762 0.1905 0.0000  plane waves:    5365
 k-point ** :   0.5000 0.1905 0.0000  plane waves:    5371
 k-point ** :  -0.4762 0.1905 0.0000  plane waves:    5363
 k-point ** :  -0.4524 0.1905 0.0000  plane waves:    5368
 k-point ** :  -0.4286 0.1905 0.0000  plane waves:    5377
 k-point ** :  -0.4048 0.1905 0.0000  plane waves:    5364
 k-point ** :   0.4286 0.2143 0.0000  plane waves:    5360
 k-point ** :   0.4524 0.2143 0.0000  plane waves:    5360
 k-point ** :   0.4762 0.2143 0.0000  plane waves:    5371
 k-point ** :   0.5000 0.2143 0.0000  plane waves:    5367
 k-point ** :  -0.4762 0.2143 0.0000  plane waves:    5369
 k-point ** :  -0.4524 0.2143 0.0000  plane waves:    5358
 k-point ** :  -0.4286 0.2143 0.0000  plane waves:    5359
 k-point ** :  -0.4048 0.2143 0.0000  plane waves:    5376
 k-point ** :   0.4762 0.2381 0.0000  plane waves:    5364
 k-point ** :   0.5000 0.2381 0.0000  plane waves:    5367
 k-point ** :  -0.4762 0.2381 0.0000  plane waves:    5368
 k-point ** :  -0.4524 0.2381 0.0000  plane waves:    5356
 k-point ** :  -0.4286 0.2381 0.0000  plane waves:    5360
 k-point ** :  -0.4048 0.2381 0.0000  plane waves:    5363
 k-point ** :  -0.3810 0.2381 0.0000  plane waves:    5366
 k-point ** :  -0.4762 0.2619 0.0000  plane waves:    5368
 k-point ** :  -0.4524 0.2619 0.0000  plane waves:    5364
 k-point ** :  -0.4286 0.2619 0.0000  plane waves:    5358
 k-point ** :  -0.4048 0.2619 0.0000  plane waves:    5350
 k-point ** :  -0.3810 0.2619 0.0000  plane waves:    5349
 k-point ** :  -0.4286 0.2857 0.0000  plane waves:    5362
 k-point ** :  -0.4048 0.2857 0.0000  plane waves:    5344
 k-point ** :  -0.3810 0.2857 0.0000  plane waves:    5326
 k-point ** :  -0.3571 0.2857 0.0000  plane waves:    5328
 k-point ** :  -0.3810 0.3095 0.0000  plane waves:    5342
 k-point ** :  -0.3571 0.3095 0.0000  plane waves:    5333
 k-point ** :  -0.3333 0.3333 0.0000  plane waves:    5334

 maximum and minimum number of plane-waves per node :       928      873

 maximum number of plane-waves:      5425
 maximum index in each direction: 
   IXMAX=    6   IYMAX=    5   IZMAX=   46
   IXMIN=   -6   IYMIN=   -5   IZMIN=  -46


 parallel 3D FFT for wavefunctions:
    minimum data exchange during FFTs selected (reduces bandwidth)
 parallel 3D FFT for charge:
    minimum data exchange during FFTs selected (reduces bandwidth)


 total amount of memory used by VASP MPI-rank0    51830. kBytes
=======================================================================

   base      :      30000. kBytes
   nonl-proj :       9792. kBytes
   fftplans  :       4589. kBytes
   grid      :       2514. kBytes
   one-center:          3. kBytes
   wavefun   :       4932. kBytes
 
     INWAV:  cpu time    0.0000: real time    0.0000
 Broyden mixing: mesh for mixing (old mesh)
   NGX = 11   NGY = 11   NGZ = 93
  (NGX  = 48   NGY  = 48   NGZ  =384)
  gives a total of  11253 points

 initial charge density was supplied:
 number of electron      16.0000000 magnetization 
 keeping initial charge density in first step


--------------------------------------------------------------------------------------------------------


 Maximum index for augmentation-charges         3270 (set IRDMAX)


--------------------------------------------------------------------------------------------------------


 First call to EWALD:  gamma=   0.376
 Maximum number of real-space cells 5x 5x 1
 Maximum number of reciprocal cells 2x 2x10

    FEWALD:  cpu time    0.0013: real time    0.0013


--------------------------------------- Iteration      1(   1)  ---------------------------------------


    POTLOK:  cpu time    0.0223: real time    0.0390
    SETDIJ:  cpu time    0.0091: real time    0.0091
     EDDAV:  cpu time    0.7773: real time    0.7792
       DOS:  cpu time    0.0059: real time    0.0059
    --------------------------------------------
      LOOP:  cpu time    0.8147: real time    0.8332

 eigenvalue-minimisations  :  4056
 total energy-change (2. order) : 0.9507457E+02  (-0.8499256E+03)
 number of electron      16.0000000 magnetization 
 augmentation part       16.0000000 magnetization 

 Free energy of the ion-electron system (eV)
  ---------------------------------------------------
  alpha Z        PSCENC =        12.44266281
  Ewald energy   TEWEN  =      2473.15002607
  -Hartree energ DENC   =     -2997.52072889
  -exchange      EXHF   =         0.00000000
  -V(xc)+E(xc)   XCENC  =        57.63646916
  PAW double counting   =       279.83967470     -285.00068887
  entropy T*S    EENTRO =        -0.00569973
  eigenvalues    EBANDS =       -34.08483694
  atomic energy  EATOM  =       588.61769381
  Solvation  Ediel_sol  =         0.00000000
  ---------------------------------------------------
  free energy    TOTEN  =        95.07457213 eV

  energy without entropy =       95.08027186  energy(sigma->0) =       95.07742199


--------------------------------------------------------------------------------------------------------




--------------------------------------- Iteration      1(   2)  ---------------------------------------


     EDDAV:  cpu time    1.2845: real time    1.2900
       DOS:  cpu time    0.0070: real time    0.0071
    --------------------------------------------
      LOOP:  cpu time    1.2915: real time    1.2971

 eigenvalue-minimisations  :  6840
 total energy-change (2. order) :-0.1255861E+03  (-0.1158864E+03)
 number of electron      16.0000000 magnetization 
 augmentation part       16.0000000 magnetization 

 Free energy of the ion-electron system (eV)
  ---------------------------------------------------
  alpha Z        PSCENC =        12.44266281
  Ewald energy   TEWEN  =      2473.15002607
  -Hartree energ DENC   =     -2997.52072889
  -exchange      EXHF   =         0.00000000
  -V(xc)+E(xc)   XCENC  =        57.63646916
  PAW double counting   =       279.83967470     -285.00068887
  entropy T*S    EENTRO =        -0.00024521
  eigenvalues    EBANDS =      -159.67641822
  atomic energy  EATOM  =       588.61769381
  Solvation  Ediel_sol  =         0.00000000
  ---------------------------------------------------
  free energy    TOTEN  =       -30.51155463 eV

  energy without entropy =      -30.51130942  energy(sigma->0) =      -30.51143202


--------------------------------------------------------------------------------------------------------




--------------------------------------- Iteration      1(   3)  ---------------------------------------


     EDDAV:  cpu time    0.9530: real time    0.9554
       DOS:  cpu time    0.0082: real time    0.0082
    --------------------------------------------
      LOOP:  cpu time    0.9612: real time    0.9636

 eigenvalue-minimisations  :  5076
 total energy-change (2. order) :-0.6338893E+01  (-0.6338183E+01)
 number of electron      16.0000000 magnetization 
 augmentation part       16.0000000 magnetization 

 Free energy of the ion-electron system (eV)
  ---------------------------------------------------
  alpha Z        PSCENC =        12.44266281
  Ewald energy   TEWEN  =      2473.15002607
  -Hartree energ DENC   =     -2997.52072889
  -exchange      EXHF   =         0.00000000
  -V(xc)+E(xc)   XCENC  =        57.63646916
  PAW double counting   =       279.83967470     -285.00068887
  entropy T*S    EENTRO =        -0.00020543
  eigenvalues    EBANDS =      -166.01535076
  atomic energy  EATOM  =       588.61769381
  Solvation  Ediel_sol  =         0.00000000
  ---------------------------------------------------
  free energy    TOTEN  =       -36.85044739 eV

  energy without entropy =      -36.85024196  energy(sigma->0) =      -36.85034468


--------------------------------------------------------------------------------------------------------




--------------------------------------- Iteration      1(   4)  ---------------------------------------


     EDDAV:  cpu time    1.2152: real time    1.2183
       DOS:  cpu time    0.0081: real time    0.0081
    --------------------------------------------
      LOOP:  cpu time    1.2234: real time    1.2264

 eigenvalue-minimisations  :  6612
 total energy-change (2. order) :-0.6867510E-01  (-0.6867461E-01)
 number of electron      16.0000000 magnetization 
 augmentation part       16.0000000 magnetization 

 Free energy of the ion-electron system (eV)
  ---------------------------------------------------
  alpha Z        PSCENC =        12.44266281
  Ewald energy   TEWEN  =      2473.15002607
  -Hartree energ DENC   =     -2997.52072889
  -exchange      EXHF   =         0.00000000
  -V(xc)+E(xc)   XCENC  =        57.63646916
  PAW double counting   =       279.83967470     -285.00068887
  entropy T*S    EENTRO =        -0.00020423
  eigenvalues    EBANDS =      -166.08402706
  atomic energy  EATOM  =       588.61769381
  Solvation  Ediel_sol  =         0.00000000
  ---------------------------------------------------
  free energy    TOTEN  =       -36.91912249 eV

  energy without entropy =      -36.91891826  energy(sigma->0) =      -36.91902037


--------------------------------------------------------------------------------------------------------




--------------------------------------- Iteration      1(   5)  ---------------------------------------


     EDDAV:  cpu time    1.1347: real time    1.1375
       DOS:  cpu time    0.0080: real time    0.0081
    CHARGE:  cpu time    0.0789: real time    0.0791
    MIXING:  cpu time    0.0012: real time    0.0012
    --------------------------------------------
      LOOP:  cpu time    1.2229: real time    1.2259

 eigenvalue-minimisations  :  6396
 total energy-change (2. order) :-0.5844744E-03  (-0.5844742E-03)
 number of electron      16.0000000 magnetization 
 augmentation part        0.3849089 magnetization 

 Broyden mixing:
  rms(total) = 0.71919E-04    rms(broyden)= 0.71906E-04
  rms(prec ) = 0.11783E-03
  weight for this iteration     100.00

 Free energy of the ion-electron system (eV)
  ---------------------------------------------------
  alpha Z        PSCENC =        12.44266281
  Ewald energy   TEWEN  =      2473.15002607
  -Hartree energ DENC   =     -2997.52072889
  -exchange      EXHF   =         0.00000000
  -V(xc)+E(xc)   XCENC  =        57.63646916
  PAW double counting   =       279.83967470     -285.00068887
  entropy T*S    EENTRO =        -0.00020423
  eigenvalues    EBANDS =      -166.08461153
  atomic energy  EATOM  =       588.61769381
  Solvation  Ediel_sol  =         0.00000000
  ---------------------------------------------------
  free energy    TOTEN  =       -36.91970696 eV

  energy without entropy =      -36.91950273  energy(sigma->0) =      -36.91960485


--------------------------------------------------------------------------------------------------------




--------------------------------------- Iteration      1(   6)  ---------------------------------------


    POTLOK:  cpu time    0.0126: real time    0.0152
    SETDIJ:  cpu time    0.0059: real time    0.0059
     EDDAV:  cpu time    1.2945: real time    1.2976
       DOS:  cpu time    0.0081: real time    0.0082
    CHARGE:  cpu time    0.0785: real time    0.0787
    MIXING:  cpu time    0.0010: real time    0.0010
    --------------------------------------------
      LOOP:  cpu time    1.4006: real time    1.4066

 eigenvalue-minimisations  :  6876
 total energy-change (2. order) :-0.2248437E-04  (-0.2256569E-04)
 number of electron      16.0000000 magnetization 
 augmentation part        0.3849125 magnetization 

 Broyden mixing:
  rms(total) = 0.38812E-04    rms(broyden)= 0.38805E-04
  rms(prec ) = 0.66821E-04
  weight for this iteration     100.00

 eigenvalues of (default mixing * dielectric matrix)
  average eigenvalue GAMMA=   1.1986
  1.1986

 Free energy of the ion-electron system (eV)
  ---------------------------------------------------
  alpha Z        PSCENC =        12.44266281
  Ewald energy   TEWEN  =      2473.15002607
  -Hartree energ DENC   =     -2997.52266919
  -exchange      EXHF   =         0.00000000
  -V(xc)+E(xc)   XCENC  =        57.63658417
  PAW double counting   =       279.84165033     -285.00266562
  entropy T*S    EENTRO =        -0.00020423
  eigenvalues    EBANDS =      -166.08280761
  atomic energy  EATOM  =       588.61769381
  Solvation  Ediel_sol  =         0.00000000
  ---------------------------------------------------
  free energy    TOTEN  =       -36.91972945 eV

  energy without entropy =      -36.91952522  energy(sigma->0) =      -36.91962734


--------------------------------------------------------------------------------------------------------




--------------------------------------- Iteration      1(   7)  ---------------------------------------


    POTLOK:  cpu time    0.0111: real time    0.0112
    SETDIJ:  cpu time    0.0055: real time    0.0056
     EDDAV:  cpu time    1.2014: real time    1.2044
       DOS:  cpu time    0.0083: real time    0.0083
    CHARGE:  cpu time    0.0780: real time    0.0782
    MIXING:  cpu time    0.0010: real time    0.0010
    --------------------------------------------
      LOOP:  cpu time    1.3053: real time    1.3086

 eigenvalue-minimisations  :  6408
 total energy-change (2. order) :-0.5368333E-06  (-0.6089745E-06)
 number of electron      16.0000000 magnetization 
 augmentation part        0.3849119 magnetization 

 Broyden mixing:
  rms(total) = 0.20887E-04    rms(broyden)= 0.20883E-04
  rms(prec ) = 0.33927E-04
  weight for this iteration     100.00

 eigenvalues of (default mixing * dielectric matrix)
  average eigenvalue GAMMA=   1.5262
  1.5262  1.5262

 Free energy of the ion-electron system (eV)
  ---------------------------------------------------
  alpha Z        PSCENC =        12.44266281
  Ewald energy   TEWEN  =      2473.15002607
  -Hartree energ DENC   =     -2997.52397718
  -exchange      EXHF   =         0.00000000
  -V(xc)+E(xc)   XCENC  =        57.63667805
  PAW double counting   =       279.84217173     -285.00318958
  entropy T*S    EENTRO =        -0.00020422
  eigenvalues    EBANDS =      -166.08159147
  atomic energy  EATOM  =       588.61769381
  Solvation  Ediel_sol  =         0.00000000
  ---------------------------------------------------
  free energy    TOTEN  =       -36.91972999 eV

  energy without entropy =      -36.91952576  energy(sigma->0) =      -36.91962788


--------------------------------------------------------------------------------------------------------




--------------------------------------- Iteration      1(   8)  ---------------------------------------


    POTLOK:  cpu time    0.0289: real time    0.0290
    SETDIJ:  cpu time    0.0059: real time    0.0059
     EDDAV:  cpu time    1.2175: real time    1.2205
       DOS:  cpu time    0.0087: real time    0.0087
    CHARGE:  cpu time    0.0807: real time    0.0809
    MIXING:  cpu time    0.0014: real time    0.0014
    --------------------------------------------
      LOOP:  cpu time    1.3431: real time    1.3464

 eigenvalue-minimisations  :  6456
 total energy-change (2. order) : 0.3362777E-07  (-0.2330991E-08)
 number of electron      16.0000000 magnetization 
 augmentation part        0.3849115 magnetization 

 Broyden mixing:
  rms(total) = 0.10882E-04    rms(broyden)= 0.10875E-04
  rms(prec ) = 0.18664E-04
  weight for this iteration     100.00

 eigenvalues of (default mixing * dielectric matrix)
  average eigenvalue GAMMA=   1.8763
  0.9689  2.7599  1.9000

 Free energy of the ion-electron system (eV)
  ---------------------------------------------------
  alpha Z        PSCENC =        12.44266281
  Ewald energy   TEWEN  =      2473.15002607
  -Hartree energ DENC   =     -2997.52433379
  -exchange      EXHF   =         0.00000000
  -V(xc)+E(xc)   XCENC  =        57.63672774
  PAW double counting   =       279.84203043     -285.00304491
  entropy T*S    EENTRO =        -0.00020422
  eigenvalues    EBANDS =      -166.08128789
  atomic energy  EATOM  =       588.61769381
  Solvation  Ediel_sol  =         0.00000000
  ---------------------------------------------------
  free energy    TOTEN  =       -36.91972995 eV

  energy without entropy =      -36.91952573  energy(sigma->0) =      -36.91962784


--------------------------------------------------------------------------------------------------------




--------------------------------------- Iteration      1(   9)  ---------------------------------------


    POTLOK:  cpu time    0.0124: real time    0.0125
    SETDIJ:  cpu time    0.0062: real time    0.0062
     EDDAV:  cpu time    1.1277: real time    1.1305
       DOS:  cpu time    0.0082: real time    0.0083
    CHARGE:  cpu time    0.0788: real time    0.0790
    MIXING:  cpu time    0.0014: real time    0.0014
    --------------------------------------------
      LOOP:  cpu time    1.2348: real time    1.2378

 eigenvalue-minimisations  :  6012
 total energy-change (2. order) : 0.1486444E-07  (-0.4207912E-09)
 number of electron      16.0000000 magnetization 
 augmentation part        0.3849114 magnetization 

 Broyden mixing:
  rms(total) = 0.48114E-05    rms(broyden)= 0.47953E-05
  rms(prec ) = 0.11425E-04
  weight for this iteration     100.00

 eigenvalues of (default mixing * dielectric matrix)
  average eigenvalue GAMMA=   1.7878
  2.7458  1.0118  1.3032  2.0902

 Free energy of the ion-electron system (eV)
  ---------------------------------------------------
  alpha Z        PSCENC =        12.44266281
  Ewald energy   TEWEN  =      2473.15002607
  -Hartree energ DENC   =     -2997.52391428
  -exchange      EXHF   =         0.00000000
  -V(xc)+E(xc)   XCENC  =        57.63674374
  PAW double counting   =       279.84157834     -285.00258784
  entropy T*S    EENTRO =        -0.00020422
  eigenvalues    EBANDS =      -166.08172838
  atomic energy  EATOM  =       588.61769381
  Solvation  Ediel_sol  =         0.00000000
  ---------------------------------------------------
  free energy    TOTEN  =       -36.91972994 eV

  energy without entropy =      -36.91952572  energy(sigma->0) =      -36.91962783


--------------------------------------------------------------------------------------------------------




--------------------------------------- Iteration      1(  10)  ---------------------------------------


    POTLOK:  cpu time    0.0113: real time    0.0114
    SETDIJ:  cpu time    0.0057: real time    0.0058
     EDDAV:  cpu time    1.1703: real time    1.1732
       DOS:  cpu time    0.0079: real time    0.0079
    CHARGE:  cpu time    0.0774: real time    0.0776
    MIXING:  cpu time    0.0011: real time    0.0011
    --------------------------------------------
      LOOP:  cpu time    1.2737: real time    1.2769

 eigenvalue-minimisations  :  6240
 total energy-change (2. order) :-0.1562228E-07  (-0.9404999E-10)
 number of electron      16.0000000 magnetization 
 augmentation part        0.3849115 magnetization 

 Broyden mixing:
  rms(total) = 0.28469E-05    rms(broyden)= 0.28196E-05
  rms(prec ) = 0.88186E-05
  weight for this iteration     100.00

 eigenvalues of (default mixing * dielectric matrix)
  average eigenvalue GAMMA=   1.9968
  3.4147  2.9622  1.0364  1.0364  1.5343

 Free energy of the ion-electron system (eV)
  ---------------------------------------------------
  alpha Z        PSCENC =        12.44266281
  Ewald energy   TEWEN  =      2473.15002607
  -Hartree energ DENC   =     -2997.52310106
  -exchange      EXHF   =         0.00000000
  -V(xc)+E(xc)   XCENC  =        57.63673413
  PAW double counting   =       279.84143457     -285.00244369
  entropy T*S    EENTRO =        -0.00020422
  eigenvalues    EBANDS =      -166.08253238
  atomic energy  EATOM  =       588.61769381
  Solvation  Ediel_sol  =         0.00000000
  ---------------------------------------------------
  free energy    TOTEN  =       -36.91972995 eV

  energy without entropy =      -36.91952574  energy(sigma->0) =      -36.91962784


--------------------------------------------------------------------------------------------------------




--------------------------------------- Iteration      1(  11)  ---------------------------------------


    POTLOK:  cpu time    0.0111: real time    0.0112
    SETDIJ:  cpu time    0.0056: real time    0.0056
     EDDAV:  cpu time    1.0880: real time    1.0906
       DOS:  cpu time    0.0083: real time    0.0084
    CHARGE:  cpu time    0.0787: real time    0.0789
    MIXING:  cpu time    0.0010: real time    0.0010
    --------------------------------------------
      LOOP:  cpu time    1.1928: real time    1.1958

 eigenvalue-minimisations  :  5784
 total energy-change (2. order) :-0.2583749E-07  (-0.9881189E-10)
 number of electron      16.0000000 magnetization 
 augmentation part        0.3849116 magnetization 

 Broyden mixing:
  rms(total) = 0.26244E-05    rms(broyden)= 0.25947E-05
  rms(prec ) = 0.68250E-05
  weight for this iteration     100.00

 eigenvalues of (default mixing * dielectric matrix)
  average eigenvalue GAMMA=   1.9813
  3.2896  3.0741  1.8100  1.8100  0.9136  0.9905

 Free energy of the ion-electron system (eV)
  ---------------------------------------------------
  alpha Z        PSCENC =        12.44266281
  Ewald energy   TEWEN  =      2473.15002607
  -Hartree energ DENC   =     -2997.52195482
  -exchange      EXHF   =         0.00000000
  -V(xc)+E(xc)   XCENC  =        57.63672339
  PAW double counting   =       279.84134334     -285.00235248
  entropy T*S    EENTRO =        -0.00020422
  eigenvalues    EBANDS =      -166.08366789
  atomic energy  EATOM  =       588.61769381
  Solvation  Ediel_sol  =         0.00000000
  ---------------------------------------------------
  free energy    TOTEN  =       -36.91972998 eV

  energy without entropy =      -36.91952576  energy(sigma->0) =      -36.91962787


--------------------------------------------------------------------------------------------------------




--------------------------------------- Iteration      1(  12)  ---------------------------------------


    POTLOK:  cpu time    0.0113: real time    0.0114
    SETDIJ:  cpu time    0.0057: real time    0.0057
     EDDAV:  cpu time    1.1240: real time    1.1268
       DOS:  cpu time    0.0079: real time    0.0079
    CHARGE:  cpu time    0.0774: real time    0.0775
    MIXING:  cpu time    0.0011: real time    0.0011
    --------------------------------------------
      LOOP:  cpu time    1.2275: real time    1.2305

 eigenvalue-minimisations  :  5988
 total energy-change (2. order) :-0.2721458E-07  (-0.1007443E-09)
 number of electron      16.0000000 magnetization 
[...]
      5      -9.4803      2.00000
      6      -9.4772      2.00000
      7      -4.8474      2.00000
      8      -4.7079      2.00000
      9       2.5429      0.00000
     10       2.6189      0.00000
     11       6.7769      0.00000
     12       7.3795      0.00000

 k-point   145 :       0.4762    0.2143    0.0000
  band No.  band energies     occupation 
      1     -16.8586      2.00000
      2     -16.8504      2.00000
      3     -11.5090      2.00000
      4     -11.5048      2.00000
      5      -9.7511      2.00000
      6      -9.7479      2.00000
      7      -4.4374      2.00000
      8      -4.3034      2.00000
      9       2.0259      0.00000
     10       2.1067      0.00000
     11       7.2997      0.00000
     12       7.8987      0.00000

 k-point   146 :       0.5000    0.2143    0.0000
  band No.  band energies     occupation 
      1     -16.4613      2.00000
      2     -16.4534      2.00000
      3     -11.9905      2.00000
      4     -11.9860      2.00000
      5      -9.9617      2.00000
      6      -9.9584      2.00000
      7      -4.0189      2.00000
      8      -3.8909      2.00000
      9       1.5154      0.00000
     10       1.6019      0.00000
     11       7.8501      0.00000
     12       8.4401      0.00000

 k-point   147 :      -0.4762    0.2143    0.0000
  band No.  band energies     occupation 
      1     -16.0477      2.00000
      2     -16.0401      2.00000
      3     -12.4855      2.00000
      4     -12.4806      2.00000
      5     -10.1203      2.00000
      6     -10.1169      2.00000
      7      -3.6032      2.00000
      8      -3.4818      2.00000
      9       1.0238      0.00000
     10       1.1171      0.00000
     11       8.4222      0.00000
     12       8.9933      0.00000

 k-point   148 :      -0.4524    0.2143    0.0000
  band No.  band energies     occupation 
      1     -15.6244      2.00000
      2     -15.6171      2.00000
      3     -12.9774      2.00000
      4     -12.9722      2.00000
      5     -10.2339      2.00000
      6     -10.2305      2.00000
      7      -3.2104      2.00000
      8      -3.0962      2.00000
      9       0.5727      0.00000
     10       0.6734      0.00000
     11       8.9972      0.00000
     12       9.5019      0.00000

 k-point   149 :      -0.4286    0.2143    0.0000
  band No.  band energies     occupation 
      1     -15.2095      2.00000
      2     -15.2025      2.00000
      3     -13.4414      2.00000
      4     -13.4359      2.00000
      5     -10.3074      2.00000
      6     -10.3040      2.00000
      7      -2.8790      2.00000
      8      -2.7720      2.00000
      9       0.2018      0.00000
     10       0.3099      0.00000
     11       9.4575      0.00000
     12       9.7789      0.00000

 k-point   150 :      -0.4048    0.2143    0.0000
  band No.  band energies     occupation 
      1     -14.8768      2.00000
      2     -14.8700      2.00000
      3     -13.7997      2.00000
      4     -13.7939      2.00000
      5     -10.3435      2.00000
      6     -10.3401      2.00000
      7      -2.6766      2.00000
      8      -2.5749      2.00000
      9      -0.0206      0.00000
     10       0.0928      0.00000
     11       9.5992      0.00000
     12      10.0261      0.00000

 k-point   151 :       0.4762    0.2381    0.0000
  band No.  band energies     occupation 
      1     -16.8712      2.00000
      2     -16.8629      2.00000
      3     -11.4002      2.00000
      4     -11.3961      2.00000
      5      -9.8606      2.00000
      6      -9.8573      2.00000
      7      -4.4471      2.00000
      8      -4.3128      2.00000
      9       2.0579      0.00000
     10       2.1361      0.00000
     11       7.2820      0.00000
     12       7.8787      0.00000

 k-point   152 :       0.5000    0.2381    0.0000
  band No.  band energies     occupation 
      1     -16.4858      2.00000
      2     -16.4778      2.00000
      3     -11.7874      2.00000
      4     -11.7830      2.00000
      5     -10.1714      2.00000
      6     -10.1679      2.00000
      7      -4.0338      2.00000
      8      -3.9050      2.00000
      9       1.5718      0.00000
     10       1.6533      0.00000
     11       7.8146      0.00000
     12       8.3988      0.00000

 k-point   153 :      -0.4762    0.2381    0.0000
  band No.  band energies     occupation 
      1     -16.0828      2.00000
      2     -16.0752      2.00000
      3     -12.2147      2.00000
      4     -12.2100      2.00000
      5     -10.4085      2.00000
      6     -10.4049      2.00000
      7      -3.6149      2.00000
      8      -3.4922      2.00000
      9       1.0923      0.00000
     10       1.1783      0.00000
     11       8.3679      0.00000
     12       8.9275      0.00000

 k-point   154 :      -0.4524    0.2381    0.0000
  band No.  band energies     occupation 
      1     -15.6666      2.00000
      2     -15.6593      2.00000
      3     -12.6668      2.00000
      4     -12.6618      2.00000
      5     -10.5793      2.00000
      6     -10.5756      2.00000
      7      -3.2037      2.00000
      8      -3.0875      2.00000
      9       0.6332      0.00000
     10       0.7246      0.00000
     11       8.9160      0.00000
     12       9.3650      0.00000

 k-point   155 :      -0.4286    0.2381    0.0000
  band No.  band energies     occupation 
      1     -15.2475      2.00000
      2     -15.2405      2.00000
      3     -13.1209      2.00000
      4     -13.1155      2.00000
      5     -10.6937      2.00000
      6     -10.6900      2.00000
      7      -2.8258      2.00000
      8      -2.7166      2.00000
      9       0.2205      0.00000
     10       0.3181      0.00000
     11       9.2914      0.00000
     12       9.6913      0.00000

 k-point   156 :      -0.4048    0.2381    0.0000
  band No.  band energies     occupation 
      1     -14.8591      2.00000
      2     -14.8524      2.00000
      3     -13.5338      2.00000
      4     -13.5282      2.00000
      5     -10.7595      2.00000
      6     -10.7558      2.00000
      7      -2.5341      2.00000
      8      -2.4312      2.00000
      9      -0.0923      0.00000
     10       0.0112      0.00000
     11       9.3882      0.00000
     12      10.1269      0.00000

 k-point   157 :      -0.3810    0.2381    0.0000
  band No.  band energies     occupation 
      1     -14.6541      2.00000
      2     -14.6475      2.00000
      3     -13.7476      2.00000
      4     -13.7419      2.00000
      5     -10.7810      2.00000
      6     -10.7772      2.00000
      7      -2.4176      2.00000
      8      -2.3176      2.00000
      9      -0.2159      0.00000
     10      -0.1095      0.00000
     11       9.4064      0.00000
     12      10.2008      0.00000

 k-point   158 :      -0.4762    0.2619    0.0000
  band No.  band energies     occupation 
      1     -16.0946      2.00000
      2     -16.0869      2.00000
      3     -12.1010      2.00000
      4     -12.0964      2.00000
      5     -10.5282      2.00000
      6     -10.5245      2.00000
      7      -3.6190      2.00000
      8      -3.4959      2.00000
      9       1.1163      0.00000
     10       1.1997      0.00000
     11       8.3496      0.00000
     12       8.9050      0.00000

 k-point   159 :      -0.4524    0.2619    0.0000
  band No.  band energies     occupation 
      1     -15.6882      2.00000
      2     -15.6809      2.00000
      3     -12.4593      2.00000
      4     -12.4544      2.00000
      5     -10.8045      2.00000
      6     -10.8007      2.00000
      7      -3.2012      2.00000
      8      -3.0840      2.00000
      9       0.6667      0.00000
     10       0.7530      0.00000
     11       8.8723      0.00000
     12       9.2945      0.00000

 k-point   160 :      -0.4286    0.2619    0.0000
  band No.  band energies     occupation 
      1     -15.2732      2.00000
      2     -15.2662      2.00000
      3     -12.8544      2.00000
      4     -12.8493      2.00000
      5     -10.9983      2.00000
      6     -10.9943      2.00000
      7      -2.7955      2.00000
      8      -2.6846      2.00000
      9       0.2375      0.00000
     10       0.3279      0.00000
     11       9.1801      0.00000
     12       9.6306      0.00000

 k-point   161 :      -0.4048    0.2619    0.0000
  band No.  band energies     occupation 
      1     -14.8660      2.00000
      2     -14.8593      2.00000
      3     -13.2583      2.00000
      4     -13.2529      2.00000
      5     -11.1187      2.00000
      6     -11.1147      2.00000
      7      -2.4354      2.00000
      8      -2.3307      2.00000
      9      -0.1382      0.00000
     10      -0.0429      0.00000
     11       9.2324      0.00000
     12       9.9852      0.00000

 k-point   162 :      -0.3810    0.2619    0.0000
  band No.  band energies     occupation 
      1     -14.5343      2.00000
      2     -14.5278      2.00000
      3     -13.5916      2.00000
      4     -13.5859      2.00000
      5     -11.1761      2.00000
      6     -11.1721      2.00000
      7      -2.1977      2.00000
      8      -2.0979      2.00000
      9      -0.3837      0.00000
     10      -0.2842      0.00000
     11       9.2355      0.00000
     12      10.0521      0.00000

 k-point   163 :      -0.4286    0.2857    0.0000
  band No.  band energies     occupation 
      1     -15.2822      2.00000
      2     -15.2751      2.00000
      3     -12.7414      2.00000
      4     -12.7364      2.00000
      5     -11.1238      2.00000
      6     -11.1198      2.00000
      7      -2.7857      2.00000
      8      -2.6742      2.00000
      9       0.2442      0.00000
     10       0.3321      0.00000
     11       9.1412      0.00000
     12       9.6101      0.00000

 k-point   164 :      -0.4048    0.2857    0.0000
  band No.  band energies     occupation 
      1     -14.8737      2.00000
      2     -14.8670      2.00000
      3     -13.0663      2.00000
      4     -13.0610      2.00000
      5     -11.3490      2.00000
      6     -11.3448      2.00000
      7      -2.3849      2.00000
      8      -2.2790      2.00000
      9      -0.1604      0.00000
     10      -0.0700      0.00000
     11       9.1502      0.00000
     12       9.9097      0.00000

 k-point   165 :      -0.3810    0.2857    0.0000
  band No.  band energies     occupation 
      1     -14.4903      2.00000
      2     -14.4839      2.00000
      3     -13.4056      2.00000
      4     -13.4000      2.00000
      5     -11.4788      2.00000
      6     -11.4745      2.00000
      7      -2.0424      2.00000
      8      -1.9418      2.00000
      9      -0.5047      0.00000
     10      -0.4108      0.00000
     11       9.1224      0.00000
     12       9.9453      0.00000

 k-point   166 :      -0.3571    0.2857    0.0000
  band No.  band energies     occupation 
      1     -14.2760      2.00000
      2     -14.2697      2.00000
      3     -13.6067      2.00000
      4     -13.6010      2.00000
      5     -11.5207      2.00000
      6     -11.5164      2.00000
      7      -1.8853      2.00000
      8      -1.7876      2.00000
      9      -0.6624      0.00000
     10      -0.5661      0.00000
     11       9.1095      0.00000
     12       9.9462      0.00000

 k-point   167 :      -0.3810    0.3095    0.0000
  band No.  band energies     occupation 
      1     -14.4806      2.00000
      2     -14.4742      2.00000
      3     -13.3185      2.00000
      4     -13.3131      2.00000
      5     -11.6001      2.00000
      6     -11.5957      2.00000
      7      -1.9848      2.00000
      8      -1.8836      2.00000
      9      -0.5504      0.00000
     10      -0.4587      0.00000
     11       9.0832      0.00000
     12       9.9075      0.00000

 k-point   168 :      -0.3571    0.3095    0.0000
  band No.  band energies     occupation 
      1     -14.1375      2.00000
      2     -14.1314      2.00000
      3     -13.5879      2.00000
      4     -13.5822      2.00000
      5     -11.7293      2.00000
      6     -11.7248      2.00000
      7      -1.6502      2.00000
      8      -1.5530      2.00000
      9      -0.8795      0.00000
     10      -0.7856      0.00000
     11       9.0408      0.00000
     12       9.8819      0.00000

 k-point   169 :      -0.3333    0.3333    0.0000
  band No.  band energies     occupation 
      1     -13.8305      2.00000
      2     -13.8305      2.00000
      3     -13.8246      2.00000
      4     -13.8246      2.00000
      5     -11.8206      2.00000
      6     -11.8161      2.00000
      7      -1.2618      1.49828
      8      -1.2618      1.49804
      9      -1.1668      0.50196
     10      -1.1668      0.50172
     11       9.0114      0.00000
     12       9.8558      0.00000


--------------------------------------------------------------------------------------------------------


 soft charge-density along one line, spin component           1
         0         1         2         3         4         5         6         7         8         9
 total charge-density along one line
 
 pseudopotential strength for first ion, spin component:           1
 10.133   0.016  -0.000  -0.000   0.000   0.000   0.000  -0.000
  0.016  -0.002   0.000   0.000  -0.000   0.000   0.000  -0.000
 -0.000   0.000  -4.261  -0.000  -0.000  -0.017  -0.000  -0.000
 -0.000   0.000  -0.000  -4.254  -0.000  -0.000  -0.014  -0.000
  0.000  -0.000  -0.000  -0.000  -4.261  -0.000  -0.000  -0.017
  0.000   0.000  -0.017  -0.000  -0.000  -0.770  -0.000  -0.000
  0.000   0.000  -0.000  -0.014  -0.000  -0.000  -0.770  -0.000
 -0.000  -0.000  -0.000  -0.000  -0.017  -0.000  -0.000  -0.770
 total augmentation occupancy for first ion, spin component:           1
  1.469  -1.133   0.000   0.000   0.000   0.000  -0.000   0.000
 -1.133   1.076   0.000   0.000   0.000   0.000  -0.000   0.000
 -0.000   0.000   1.227   0.000   0.000   0.230   0.000   0.000
  0.000   0.000   0.000   0.932  -0.000   0.000   0.106   0.000
  0.000   0.000   0.000  -0.000   1.227   0.000   0.000   0.230
  0.000   0.000   0.230   0.000   0.000   0.049   0.000   0.000
 -0.000  -0.000   0.000   0.106   0.000  -0.000   0.014  -0.000
  0.000   0.000   0.000   0.000   0.230   0.000   0.000   0.049


------------------------ aborting loop because EDIFF is reached ----------------------------------------


    CHARGE:  cpu time    0.0786: real time    0.0788
    FORLOC:  cpu time    0.0013: real time    0.0013
    FORNL :  cpu time    0.0997: real time    0.1000
    STRESS:  cpu time    0.4894: real time    0.4906
    FORHAR:  cpu time    0.0033: real time    0.0033
    MIXING:  cpu time    0.0007: real time    0.0007
    OFIELD:  cpu time    0.0000: real time    0.0000

  FORCE on cell =-STRESS in cart. coord.  units (eV):
  Direction    XX          YY          ZZ          XY          YZ          ZX
  --------------------------------------------------------------------------------------
  Alpha Z    12.44266    12.44266    12.44266
  Ewald    3012.30630  3012.30506 -3551.46173     0.00000    -0.00000     0.00000
  Hartree  2974.98680  2974.98679 -2952.45507    -0.00000     0.00000     0.00000
  E(xc)     -58.45161   -58.45161   -60.79549    -0.00000     0.00000    -0.00000
  Local   -6165.72763 -6165.72702  6291.19502    -0.00000    -0.00000    -0.00000
  n-local   -14.67841   -13.58456   -12.84993     0.71871     0.00000     0.00000
  augment    -1.56154    -1.56155    -1.42744     0.00000    -0.00000    -0.00000
  Kinetic   245.14818   236.79387   275.31345    -6.69748    -0.00000    -0.00000
  Fock        0.00000     0.00000     0.00000     0.00000     0.00000     0.00000
  -------------------------------------------------------------------------------------
  Total       0.83421     0.83421    -0.03852     0.00000    -0.00000     0.00000
  in kB      12.75633    12.75633    -0.58907     0.00000    -0.00000     0.00000
  external pressure =        8.31 kB  Pullay stress =        0.00 kB


 VOLUME and BASIS-vectors are now :
 -----------------------------------------------------------------------------
  energy-cutoff  :      800.00
  volume of cell :      104.78
      direct lattice vectors                 reciprocal lattice vectors
     2.130000000 -1.229756000  0.000000000     0.234741784 -0.406584721  0.000000000
     2.130000000  1.229756000  0.000000000     0.234741784  0.406584721  0.000000000
     0.000000000  0.000000000 20.000000000     0.000000000  0.000000000  0.050000000

  length of vectors
     2.459512110  2.459512110 20.000000000     0.469483589  0.469483589  0.050000000


 FORCES acting on ions
    electron-ion (+dipol)            ewald-force                    non-local-force                 convergence-correction
 -----------------------------------------------------------------------------------------------
   0.199E-06 0.196E-12 0.307E+03   -.241E-03 0.693E-14 -.307E+03   0.583E-16 0.309E-16 -.156E-02   0.572E-11 0.351E-14 0.258E-04
   0.271E-03 -.189E-12 0.307E+03   0.241E-03 -.456E-14 -.307E+03   0.402E-16 0.691E-16 -.156E-02   -.305E-10 0.838E-15 0.258E-04
   0.193E-06 -.149E-12 -.307E+03   -.241E-03 0.683E-14 0.307E+03   0.156E-16 -.450E-16 0.155E-02   -.231E-11 -.909E-15 0.130E-04
   0.271E-03 0.476E-12 -.307E+03   0.241E-03 -.465E-14 0.307E+03   -.851E-16 -.363E-16 0.155E-02   -.275E-11 0.144E-14 0.130E-04
 -----------------------------------------------------------------------------------------------
   0.542E-03 0.334E-12 -.638E-04   0.858E-14 0.456E-14 0.000E+00   0.290E-16 0.187E-16 -.120E-04   -.299E-10 0.488E-14 0.776E-04
 
 
 POSITION                                       TOTAL-FORCE (eV/Angst)
 -----------------------------------------------------------------------------------
      0.00000      0.00000      0.00000         0.000000     -0.000000     -0.000695
      1.42000      0.00000      0.00000        -0.000000      0.000000     -0.000695
      0.00000      0.00000      4.43868        -0.000000     -0.000000      0.000695
      1.42000      0.00000      4.43868         0.000000      0.000000      0.000695
 -----------------------------------------------------------------------------------
    total drift:                                0.000542      0.000000      0.000002


--------------------------------------------------------------------------------------------------------



  FREE ENERGIE OF THE ION-ELECTRON SYSTEM (eV)
  ---------------------------------------------------
  free  energy   TOTEN  =       -36.91973002 eV

  energy  without entropy=      -36.91952580  energy(sigma->0) =      -36.91962791
 


--------------------------------------------------------------------------------------------------------


    POTLOK:  cpu time    0.0167: real time    0.0168


--------------------------------------------------------------------------------------------------------


     LOOP+:  cpu time   18.0813: real time   18.2971
    4ORBIT:  cpu time    0.0000: real time    0.0000

 total amount of memory used by VASP MPI-rank0    51830. kBytes
=======================================================================

   base      :      30000. kBytes
   nonl-proj :       9792. kBytes
   fftplans  :       4589. kBytes
   grid      :       2514. kBytes
   one-center:          3. kBytes
   wavefun   :       4932. kBytes
 
  
  
 General timing and accounting informations for this job:
 ========================================================
  
                  Total CPU time used (sec):       20.629
                            User time (sec):       20.296
                          System time (sec):        0.332
                         Elapsed time (sec):       21.360
  
                   Maximum memory used (kb):       94772.
                   Average memory used (kb):           0.
  
                          Minor page faults:        32307
                          Major page faults:            0
                 Voluntary context switches:         1909
