<?xml version="1.0" encoding="ISO-8859-1"?>
<modeling>
 <generator>
  <i name="program" type="string">vasp </i>
  <i name="version" type="string">5.4.4.18Apr17-6-g9f103f2a35  </i>
  <i name="subversion" type="string">(build May 31 2018 21:15:54) complex            parallel </i>
  <i name="platform" type="string">c7_intel_O1 </i>
  <i name="date" type="string">2020 08 17 </i>
  <i name="time" type="string">20:03:46 </i>
 </generator>
 <incar>
  <i type="string" name="SYSTEM"> C-4</i>
  <i type="int" name="ISTART">     0</i>
  <i type="string" name="PREC">accurate</i>
  <i type="string" name="ALGO"> N</i>
  <i type="logical" name="ADDGRID"> T  </i>
  <i name="AMIN">      0.01000000</i>
  <i type="int" name="ICHARG">     1</i>
  <i type="int" name="NELMIN">     5</i>
  <i type="int" name="IBRION">    -1</i>
  <i name="EDIFF">      0.00000001</i>
  <i name="EDIFFG">     -0.00000001</i>
  <i type="int" name="NSW">     0</i>
  <i name="SYMPREC">      0.00010000</i>
  <i name="ENCUT">    800.00000000</i>
  <i type="int" name="NEDOS">  6001</i>
  <i type="logical" name="LREAL"> F  </i>
  <i type="int" name="ISMEAR">     0</i>
  <i name="SIGMA">      0.10000000</i>
  <i type="logical" name="LWAVE"> F  </i>
  <i type="logical" name="LCHARG"> T  </i>
  <v type="int" name="KPOINT_BSE">    -1     0     0     0</v>
 </incar>
 <structure name="primitive_cell" >
  <crystal>
   <varray name="basis" >
    <v>       2.13000000      -1.22975600       0.00000000 </v>
    <v>       2.13000000       1.22975600       0.00000000 </v>
    <v>       0.00000000       0.00000000      20.00000000 </v>
   </varray>
   <i name="volume">    104.77521120 </i>
   <varray name="rec_basis" >
    <v>       0.23474178      -0.40658472       0.00000000 </v>
    <v>       0.23474178       0.40658472       0.00000000 </v>
    <v>       0.00000000       0.00000000       0.05000000 </v>
   </varray>
  </crystal>
  <varray name="positions" >
   <v>       0.00000000       0.00000000       0.00000000 </v>
   <v>       0.33333300       0.33333300       0.00000000 </v>
   <v>       0.00000000       0.00000000       0.22193400 </v>
   <v>       0.33333300       0.33333300       0.22193400 </v>
  </varray>
 </structure>
 <varray name="primitive_index" >
  <v type="int" >        1 </v>
  <v type="int" >        2 </v>
  <v type="int" >        3 </v>
  <v type="int" >        4 </v>
 </varray>
 <kpoints>
  <generation param="Gamma">
   <v type="int" name="divisions">      42       42        1 </v>
   <v name="usershift">      0.00000000       0.00000000       0.00000000 </v>
   <v name="genvec1">      0.02380952       0.00000000       0.00000000 </v>
   <v name="genvec2">      0.00000000       0.02380952       0.00000000 </v>
   <v name="genvec3">      0.00000000       0.00000000       1.00000000 </v>
   <v name="shift">      0.00000000       0.00000000       0.00000000 </v>
  </generation>
  <varray name="kpointlist" >
   <v>       0.00000000       0.00000000       0.00000000 </v>
   <v>       0.02380952       0.00000000       0.00000000 </v>
   <v>       0.04761905       0.00000000       0.00000000 </v>
   <v>       0.07142857       0.00000000       0.00000000 </v>
   <v>       0.09523810       0.00000000       0.00000000 </v>
   <v>       0.11904762       0.00000000       0.00000000 </v>
   <v>       0.14285714       0.00000000       0.00000000 </v>
   <v>       0.16666667       0.00000000       0.00000000 </v>
   <v>       0.19047619       0.00000000       0.00000000 </v>
   <v>       0.21428571       0.00000000       0.00000000 </v>
   <v>       0.23809524       0.00000000       0.00000000 </v>
   <v>       0.26190476       0.00000000       0.00000000 </v>
   <v>       0.28571429       0.00000000       0.00000000 </v>
   <v>       0.30952381       0.00000000       0.00000000 </v>
   <v>       0.33333333       0.00000000       0.00000000 </v>
   <v>       0.35714286       0.00000000       0.00000000 </v>
   <v>       0.38095238       0.00000000       0.00000000 </v>
   <v>       0.40476190       0.00000000       0.00000000 </v>
   <v>       0.42857143       0.00000000       0.00000000 </v>
   <v>       0.45238095       0.00000000       0.00000000 </v>
   <v>       0.47619048       0.00000000       0.00000000 </v>
   <v>       0.50000000       0.00000000       0.00000000 </v>
   <v>       0.04761905       0.02380952       0.00000000 </v>
   <v>       0.07142857       0.02380952       0.00000000 </v>
   <v>       0.09523810       0.02380952       0.00000000 </v>
   <v>       0.11904762       0.02380952       0.00000000 </v>
   <v>       0.14285714       0.02380952       0.00000000 </v>
   <v>       0.16666667       0.02380952       0.00000000 </v>
   <v>       0.19047619       0.02380952       0.00000000 </v>
   <v>       0.21428571       0.02380952       0.00000000 </v>
   <v>       0.23809524       0.02380952       0.00000000 </v>
   <v>       0.26190476       0.02380952       0.00000000 </v>
   <v>       0.28571429       0.02380952       0.00000000 </v>
   <v>       0.30952381       0.02380952       0.00000000 </v>
   <v>       0.33333333       0.02380952       0.00000000 </v>
   <v>       0.35714286       0.02380952       0.00000000 </v>
   <v>       0.38095238       0.02380952       0.00000000 </v>
   <v>       0.40476190       0.02380952       0.00000000 </v>
   <v>       0.42857143       0.02380952       0.00000000 </v>
   <v>       0.45238095       0.02380952       0.00000000 </v>
   <v>       0.47619048       0.02380952       0.00000000 </v>
   <v>       0.50000000       0.02380952       0.00000000 </v>
   <v>       0.09523810       0.04761905       0.00000000 </v>
   <v>       0.11904762       0.04761905       0.00000000 </v>
   <v>       0.14285714       0.04761905       0.00000000 </v>
   <v>       0.16666667       0.04761905       0.00000000 </v>
   <v>       0.19047619       0.04761905       0.00000000 </v>
   <v>       0.21428571       0.04761905       0.00000000 </v>
   <v>       0.23809524       0.04761905       0.00000000 </v>
   <v>       0.26190476       0.04761905       0.00000000 </v>
   <v>       0.28571429       0.04761905       0.00000000 </v>
   <v>       0.30952381       0.04761905       0.00000000 </v>
   <v>       0.33333333       0.04761905       0.00000000 </v>
   <v>       0.35714286       0.04761905       0.00000000 </v>
   <v>       0.38095238       0.04761905       0.00000000 </v>
   <v>       0.40476190       0.04761905       0.00000000 </v>
   <v>       0.42857143       0.04761905       0.00000000 </v>
   <v>       0.45238095       0.04761905       0.00000000 </v>
   <v>       0.47619048       0.04761905       0.00000000 </v>
   <v>       0.50000000       0.04761905       0.00000000 </v>
   <v>      -0.47619048       0.04761905       0.00000000 </v>
   <v>       0.14285714       0.07142857       0.00000000 </v>
   <v>       0.16666667       0.07142857       0.00000000 </v>
   <v>       0.19047619       0.07142857       0.00000000 </v>
   <v>       0.21428571       0.07142857       0.00000000 </v>
   <v>       0.23809524       0.07142857       0.00000000 </v>
   <v>       0.26190476       0.07142857       0.00000000 </v>
   <v>       0.28571429       0.07142857       0.00000000 </v>
   <v>       0.30952381       0.07142857       0.00000000 </v>
   <v>       0.33333333       0.07142857       0.00000000 </v>
   <v>       0.35714286       0.07142857       0.00000000 </v>
   <v>       0.38095238       0.07142857       0.00000000 </v>
   <v>       0.40476190       0.07142857       0.00000000 </v>
   <v>       0.42857143       0.07142857       0.00000000 </v>
   <v>       0.45238095       0.07142857       0.00000000 </v>
   <v>       0.47619048       0.07142857       0.00000000 </v>
   <v>       0.50000000       0.07142857       0.00000000 </v>
   <v>      -0.47619048       0.07142857       0.00000000 </v>
   <v>       0.19047619       0.09523810       0.00000000 </v>
   <v>       0.21428571       0.09523810       0.00000000 </v>
   <v>       0.23809524       0.09523810       0.00000000 </v>
   <v>       0.26190476       0.09523810       0.00000000 </v>
   <v>       0.28571429       0.09523810       0.00000000 </v>
   <v>       0.30952381       0.09523810       0.00000000 </v>
   <v>       0.33333333       0.09523810       0.00000000 </v>
   <v>       0.35714286       0.09523810       0.00000000 </v>
   <v>       0.38095238       0.09523810       0.00000000 </v>
   <v>       0.40476190       0.09523810       0.00000000 </v>
   <v>       0.42857143       0.09523810       0.00000000 </v>
   <v>       0.45238095       0.09523810       0.00000000 </v>
   <v>       0.47619048       0.09523810       0.00000000 </v>
   <v>       0.50000000       0.09523810       0.00000000 </v>
   <v>      -0.47619048       0.09523810       0.00000000 </v>
   <v>      -0.45238095       0.09523810       0.00000000 </v>
   <v>       0.23809524       0.11904762       0.00000000 </v>
   <v>       0.26190476       0.11904762       0.00000000 </v>
   <v>       0.28571429       0.11904762       0.00000000 </v>
   <v>       0.30952381       0.11904762       0.00000000 </v>
   <v>       0.33333333       0.11904762       0.00000000 </v>
   <v>       0.35714286       0.11904762       0.00000000 </v>
   <v>       0.38095238       0.11904762       0.00000000 </v>
   <v>       0.40476190       0.11904762       0.00000000 </v>
   <v>       0.42857143       0.11904762       0.00000000 </v>
   <v>       0.45238095       0.11904762       0.00000000 </v>
   <v>       0.47619048       0.11904762       0.00000000 </v>
   <v>       0.50000000       0.11904762       0.00000000 </v>
   <v>      -0.47619048       0.11904762       0.00000000 </v>
   <v>      -0.45238095       0.11904762       0.00000000 </v>
   <v>       0.28571429       0.14285714       0.00000000 </v>
   <v>       0.30952381       0.14285714       0.00000000 </v>
   <v>       0.33333333       0.14285714       0.00000000 </v>
   <v>       0.35714286       0.14285714       0.00000000 </v>
   <v>       0.38095238       0.14285714       0.00000000 </v>
   <v>       0.40476190       0.14285714       0.00000000 </v>
   <v>       0.42857143       0.14285714       0.00000000 </v>
   <v>       0.45238095       0.14285714       0.00000000 </v>
   <v>       0.47619048       0.14285714       0.00000000 </v>
   <v>       0.50000000       0.14285714       0.00000000 </v>
   <v>      -0.47619048       0.14285714       0.00000000 </v>
   <v>      -0.45238095       0.14285714       0.00000000 </v>
   <v>      -0.42857143       0.14285714       0.00000000 </v>
   <v>       0.33333333       0.16666667       0.00000000 </v>
   <v>       0.35714286       0.16666667       0.00000000 </v>
   <v>       0.38095238       0.16666667       0.00000000 </v>
   <v>       0.40476190       0.16666667       0.00000000 </v>
   <v>       0.42857143       0.16666667       0.00000000 </v>
   <v>       0.45238095       0.16666667       0.00000000 </v>
   <v>       0.47619048       0.16666667       0.00000000 </v>
   <v>       0.50000000       0.16666667       0.00000000 </v>
   <v>      -0.47619048       0.16666667       0.00000000 </v>
   <v>      -0.45238095       0.16666667       0.00000000 </v>
   <v>      -0.42857143       0.16666667       0.00000000 </v>
   <v>       0.38095238       0.19047619       0.00000000 </v>
   <v>       0.40476190       0.19047619       0.00000000 </v>
   <v>       0.42857143       0.19047619       0.00000000 </v>
   <v>       0.45238095       0.19047619       0.00000000 </v>
   <v>       0.47619048       0.19047619       0.00000000 </v>
   <v>       0.50000000       0.19047619       0.00000000 </v>
   <v>      -0.47619048       0.19047619       0.00000000 </v>
   <v>      -0.45238095       0.19047619       0.00000000 </v>
   <v>      -0.42857143       0.19047619       0.00000000 </v>
   <v>      -0.40476190       0.19047619       0.00000000 </v>
   <v>       0.42857143       0.21428571       0.00000000 </v>
   <v>       0.45238095       0.21428571       0.00000000 </v>
   <v>       0.47619048       0.21428571       0.00000000 </v>
   <v>       0.50000000       0.21428571       0.00000000 </v>
   <v>      -0.47619048       0.21428571       0.00000000 </v>
   <v>      -0.45238095       0.21428571       0.00000000 </v>
   <v>      -0.42857143       0.21428571       0.00000000 </v>
   <v>      -0.40476190       0.21428571       0.00000000 </v>
   <v>       0.47619048       0.23809524       0.00000000 </v>
   <v>       0.50000000       0.23809524       0.00000000 </v>
   <v>      -0.47619048       0.23809524       0.00000000 </v>
   <v>      -0.45238095       0.23809524       0.00000000 </v>
   <v>      -0.42857143       0.23809524       0.00000000 </v>
   <v>      -0.40476190       0.23809524       0.00000000 </v>
   <v>      -0.38095238       0.23809524       0.00000000 </v>
   <v>      -0.47619048       0.26190476       0.00000000 </v>
   <v>      -0.45238095       0.26190476       0.00000000 </v>
   <v>      -0.42857143       0.26190476       0.00000000 </v>
   <v>      -0.40476190       0.26190476       0.00000000 </v>
   <v>      -0.38095238       0.26190476       0.00000000 </v>
   <v>      -0.42857143       0.28571429       0.00000000 </v>
   <v>      -0.40476190       0.28571429       0.00000000 </v>
   <v>      -0.38095238       0.28571429       0.00000000 </v>
   <v>      -0.35714286       0.28571429       0.00000000 </v>
   <v>      -0.38095238       0.30952381       0.00000000 </v>
   <v>      -0.35714286       0.30952381       0.00000000 </v>
   <v>      -0.33333333       0.33333333       0.00000000 </v>
  </varray>
  <varray name="weights" >
   <v>       0.00056689 </v>
   <v>       0.00340136 </v>
   <v>       0.00340136 </v>
   <v>       0.00340136 </v>
   <v>       0.00340136 </v>
   <v>       0.00340136 </v>
   <v>       0.00340136 </v>
   <v>       0.00340136 </v>
   <v>       0.00340136 </v>
   <v>       0.00340136 </v>
   <v>       0.00340136 </v>
   <v>       0.00340136 </v>
   <v>       0.00340136 </v>
   <v>       0.00340136 </v>
   <v>       0.00340136 </v>
   <v>       0.00340136 </v>
   <v>       0.00340136 </v>
   <v>       0.00340136 </v>
   <v>       0.00340136 </v>
   <v>       0.00340136 </v>
   <v>       0.00340136 </v>
   <v>       0.00170068 </v>
   <v>       0.00340136 </v>
   <v>       0.00680272 </v>
   <v>       0.00680272 </v>
   <v>       0.00680272 </v>
   <v>       0.00680272 </v>
   <v>       0.00680272 </v>
   <v>       0.00680272 </v>
   <v>       0.00680272 </v>
   <v>       0.00680272 </v>
   <v>       0.00680272 </v>
   <v>       0.00680272 </v>
   <v>       0.00680272 </v>
   <v>       0.00680272 </v>
   <v>       0.00680272 </v>
   <v>       0.00680272 </v>
   <v>       0.00680272 </v>
   <v>       0.00680272 </v>
   <v>       0.00680272 </v>
   <v>       0.00680272 </v>
   <v>       0.00680272 </v>
   <v>       0.00340136 </v>
   <v>       0.00680272 </v>
   <v>       0.00680272 </v>
   <v>       0.00680272 </v>
   <v>       0.00680272 </v>
   <v>       0.00680272 </v>
   <v>       0.00680272 </v>
   <v>       0.00680272 </v>
   <v>       0.00680272 </v>
   <v>       0.00680272 </v>
   <v>       0.00680272 </v>
   <v>       0.00680272 </v>
   <v>       0.00680272 </v>
   <v>       0.00680272 </v>
   <v>       0.00680272 </v>
   <v>       0.00680272 </v>
   <v>       0.00680272 </v>
   <v>       0.00680272 </v>
   <v>       0.00340136 </v>
   <v>       0.00340136 </v>
   <v>       0.00680272 </v>
   <v>       0.00680272 </v>
   <v>       0.00680272 </v>
   <v>       0.00680272 </v>
   <v>       0.00680272 </v>
   <v>       0.00680272 </v>
   <v>       0.00680272 </v>
   <v>       0.00680272 </v>
   <v>       0.00680272 </v>
   <v>       0.00680272 </v>
   <v>       0.00680272 </v>
   <v>       0.00680272 </v>
   <v>       0.00680272 </v>
   <v>       0.00680272 </v>
   <v>       0.00680272 </v>
   <v>       0.00680272 </v>
   <v>       0.00340136 </v>
   <v>       0.00680272 </v>
   <v>       0.00680272 </v>
   <v>       0.00680272 </v>
   <v>       0.00680272 </v>
   <v>       0.00680272 </v>
   <v>       0.00680272 </v>
   <v>       0.00680272 </v>
   <v>       0.00680272 </v>
   <v>       0.00680272 </v>
   <v>       0.00680272 </v>
   <v>       0.00680272 </v>
   <v>       0.00680272 </v>
   <v>       0.00680272 </v>
   <v>       0.00680272 </v>
   <v>       0.00340136 </v>
   <v>       0.00340136 </v>
   <v>       0.00680272 </v>
   <v>       0.00680272 </v>
   <v>       0.00680272 </v>
   <v>       0.00680272 </v>
   <v>       0.00680272 </v>
   <v>       0.00680272 </v>
   <v>       0.00680272 </v>
   <v>       0.00680272 </v>
   <v>       0.00680272 </v>
   <v>       0.00680272 </v>
   <v>       0.00680272 </v>
   <v>       0.00680272 </v>
   <v>       0.00680272 </v>
   <v>       0.00340136 </v>
   <v>       0.00680272 </v>
   <v>       0.00680272 </v>
   <v>       0.00680272 </v>
   <v>       0.00680272 </v>
   <v>       0.00680272 </v>
   <v>       0.00680272 </v>
   <v>       0.00680272 </v>
   <v>       0.00680272 </v>
   <v>       0.00680272 </v>
   <v>       0.00680272 </v>
   <v>       0.00680272 </v>
   <v>       0.00340136 </v>
   <v>       0.00340136 </v>
   <v>       0.00680272 </v>
   <v>       0.00680272 </v>
   <v>       0.00680272 </v>
   <v>       0.00680272 </v>
   <v>       0.00680272 </v>
   <v>       0.00680272 </v>
   <v>       0.00680272 </v>
   <v>       0.00680272 </v>
   <v>       0.00680272 </v>
   <v>       0.00680272 </v>
   <v>       0.00340136 </v>
   <v>       0.00680272 </v>
   <v>       0.00680272 </v>
   <v>       0.00680272 </v>
   <v>       0.00680272 </v>
   <v>       0.00680272 </v>
   <v>       0.00680272 </v>
   <v>       0.00680272 </v>
   <v>       0.00680272 </v>
   <v>       0.00340136 </v>
   <v>       0.00340136 </v>
   <v>       0.00680272 </v>
   <v>       0.00680272 </v>
   <v>       0.00680272 </v>
   <v>       0.00680272 </v>
   <v>       0.00680272 </v>
   <v>       0.00680272 </v>
   <v>       0.00680272 </v>
   <v>       0.00340136 </v>
   <v>       0.00680272 </v>
   <v>       0.00680272 </v>
   <v>       0.00680272 </v>
   <v>       0.00680272 </v>
   <v>       0.00680272 </v>
   <v>       0.00340136 </v>
   <v>       0.00340136 </v>
   <v>       0.00680272 </v>
   <v>       0.00680272 </v>
   <v>       0.00680272 </v>
   <v>       0.00680272 </v>
   <v>       0.00340136 </v>
   <v>       0.00680272 </v>
   <v>       0.00680272 </v>
   <v>       0.00340136 </v>
   <v>       0.00340136 </v>
   <v>       0.00680272 </v>
   <v>       0.00113379 </v>
  </varray>
 </kpoints>
 <parameters>
  <separator name="general" >
   <i type="string" name="SYSTEM">C-4</i>
   <i type="logical" name="LCOMPAT"> F  </i>
  </separator>
  <separator name="electronic" >
   <i type="string" name="PREC">accura</i>
   <i name="ENMAX">    800.00000000</i>
   <i name="ENAUG">    644.87300000</i>
   <i name="EDIFF">      0.00000001</i>
   <i type="int" name="IALGO">    38</i>
   <i type="int" name="IWAVPR">    10</i>
   <i type="int" name="NBANDS">    12</i>
   <i name="NELECT">     16.00000000</i>
   <i type="int" name="TURBO">     0</i>
   <i type="int" name="IRESTART">     0</i>
   <i type="int" name="NREBOOT">     0</i>
   <i type="int" name="NMIN">     0</i>
   <i name="EREF">      0.00000000</i>
   <separator name="electronic smearing" >
    <i type="int" name="ISMEAR">     0</i>
    <i name="SIGMA">      0.10000000</i>
    <i name="KSPACING">      0.50000000</i>
    <i type="logical" name="KGAMMA"> T  </i>
   </separator>
   <separator name="electronic projectors" >
    <i type="logical" name="LREAL"> F  </i>
    <v name="ROPT">      0.00000000</v>
    <i type="int" name="LMAXPAW">  -100</i>
    <i type="int" name="LMAXMIX">     2</i>
    <i type="logical" name="NLSPLINE"> F  </i>
   </separator>
   <separator name="electronic startup" >
    <i type="int" name="ISTART">     0</i>
    <i type="int" name="ICHARG">     1</i>
    <i type="int" name="INIWAV">     1</i>
   </separator>
   <separator name="electronic spin" >
    <i type="int" name="ISPIN">     1</i>
    <i type="logical" name="LNONCOLLINEAR"> F  </i>
    <v name="MAGMOM">      1.00000000      1.00000000      1.00000000      1.00000000</v>
    <i name="NUPDOWN">     -1.00000000</i>
    <i type="logical" name="LSORBIT"> F  </i>
    <v name="SAXIS">      0.00000000      0.00000000      1.00000000</v>
    <i type="logical" name="LSPIRAL"> F  </i>
    <v name="QSPIRAL">      0.00000000      0.00000000      0.00000000</v>
    <i type="logical" name="LZEROZ"> F  </i>
   </separator>
   <separator name="electronic exchange-correlation" >
    <i type="logical" name="LASPH"> F  </i>
    <i type="logical" name="LMETAGGA"> F  </i>
   </separator>
   <separator name="electronic convergence" >
    <i type="int" name="NELM">    60</i>
    <i type="int" name="NELMDL">    -5</i>
    <i type="int" name="NELMIN">     5</i>
    <i name="ENINI">    800.00000000</i>
    <separator name="electronic convergence detail" >
     <i type="logical" name="LDIAG"> T  </i>
     <i type="logical" name="LSUBROT"> F  </i>
     <i name="WEIMIN">      0.00000000</i>
     <i name="EBREAK">      0.00000000</i>
     <i name="DEPER">      0.30000000</i>
     <i type="int" name="NRMM">     4</i>
     <i name="TIME">      0.40000000</i>
    </separator>
   </separator>
   <separator name="electronic mixer" >
    <i name="AMIX">      0.40000000</i>
    <i name="BMIX">      1.00000000</i>
    <i name="AMIN">      0.01000000</i>
    <i name="AMIX_MAG">      1.60000000</i>
    <i name="BMIX_MAG">      1.00000000</i>
    <separator name="electronic mixer details" >
     <i type="int" name="IMIX">     4</i>
     <i type="logical" name="MIXFIRST"> F  </i>
     <i type="int" name="MAXMIX">   -45</i>
     <i name="WC">    100.00000000</i>
     <i type="int" name="INIMIX">     1</i>
     <i type="int" name="MIXPRE">     1</i>
     <i type="int" name="MREMOVE">     5</i>
    </separator>
   </separator>
   <separator name="electronic dipolcorrection" >
    <i type="logical" name="LDIPOL"> F  </i>
    <i type="logical" name="LMONO"> F  </i>
    <i type="int" name="IDIPOL">     0</i>
    <i name="EPSILON">      1.00000000</i>
    <v name="DIPOL">   -100.00000000   -100.00000000   -100.00000000</v>
    <i name="EFIELD">      0.00000000</i>
   </separator>
  </separator>
  <separator name="grids" >
   <i type="int" name="NGX">    24</i>
   <i type="int" name="NGY">    24</i>
   <i type="int" name="NGZ">   192</i>
   <i type="int" name="NGXF">    48</i>
   <i type="int" name="NGYF">    48</i>
   <i type="int" name="NGZF">   384</i>
   <i type="logical" name="ADDGRID"> T  </i>
  </separator>
  <separator name="ionic" >
   <i type="int" name="NSW">     0</i>
   <i type="int" name="IBRION">    -1</i>
   <i type="int" name="MDALGO">     0</i>
   <i type="int" name="ISIF">     2</i>
   <i name="PSTRESS">      0.00000000</i>
   <i name="EDIFFG">     -0.00000001</i>
   <i type="int" name="NFREE">     0</i>
   <i name="POTIM">      0.50000000</i>
   <i name="SMASS">     -3.00000000</i>
   <i name="SCALEE">      1.00000000</i>
  </separator>
  <separator name="ionic md" >
   <i name="TEBEG">      0.00010000</i>
   <i name="TEEND">      0.00010000</i>
   <i type="int" name="NBLOCK">     1</i>
   <i type="int" name="KBLOCK">     1</i>
   <i type="int" name="NPACO">   256</i>
   <i name="APACO">     16.00000000</i>
  </separator>
  <separator name="symmetry" >
   <i type="int" name="ISYM">     2</i>
   <i name="SYMPREC">      0.00010000</i>
  </separator>
  <separator name="dos" >
   <i type="int" name="LORBIT">     0</i>
   <v name="RWIGS">     -1.00000000</v>
   <i type="int" name="NEDOS">  6001</i>
   <i name="EMIN">     10.00000000</i>
   <i name="EMAX">    -10.00000000</i>
   <i name="EFERMI">      0.00000000</i>
  </separator>
  <separator name="writing" >
   <i type="int" name="NWRITE">     2</i>
   <i type="logical" name="LWAVE"> F  </i>
   <i type="logical" name="LDOWNSAMPLE"> F  </i>
   <i type="logical" name="LCHARG"> T  </i>
   <i type="logical" name="LPARD"> F  </i>
   <i type="logical" name="LVTOT"> F  </i>
   <i type="logical" name="LVHAR"> F  </i>
   <i type="logical" name="LELF"> F  </i>
   <i type="logical" name="LOPTICS"> F  </i>
   <v name="STM">      0.00000000      0.00000000      0.00000000      0.00000000      0.00000000      0.00000000      0.00000000</v>
  </separator>
  <separator name="performance" >
   <i type="int" name="NPAR">     6</i>
   <i type="int" name="NSIM">     4</i>
   <i type="int" name="NBLK">    -1</i>
   <i type="logical" name="LPLANE"> T  </i>
   <i type="logical" name="LSCALAPACK"> T  </i>
   <i type="logical" name="LSCAAWARE"> F  </i>
   <i type="logical" name="LSCALU"> F  </i>
   <i type="logical" name="LASYNC"> F  </i>
   <i type="logical" name="LORBITALREAL"> F  </i>
  </separator>
  <separator name="miscellaneous" >
   <i type="int" name="IDIOT">     3</i>
   <i type="int" name="ISPECIAL">     0</i>
   <i type="logical" name="LMUSIC"> F  </i>
   <v name="POMASS">     12.01100000</v>
   <v name="DARWINR">      0.00000000</v>
   <v name="DARWINV">      1.00000000</v>
   <i type="logical" name="LCORR"> T  </i>
  </separator>
  <i type="logical" name="GGA_COMPAT"> T  </i>
  <i type="logical" name="LBERRY"> F  </i>
  <i type="int" name="ICORELEVEL">     0</i>
  <i type="logical" name="LDAU"> F  </i>
  <i type="int" name="I_CONSTRAINED_M">     0</i>
  <separator name="electronic exchange-correlation" >
   <i type="string" name="GGA">--</i>
   <i type="int" name="VOSKOWN">     0</i>
   <i type="logical" name="LHFCALC"> F  </i>
   <i type="string" name="PRECFOCK"></i>
   <i type="logical" name="LSYMGRAD"> F  </i>
   <i type="logical" name="LHFONE"> F  </i>
   <i type="logical" name="LRHFCALC"> F  </i>
   <i type="logical" name="LTHOMAS"> F  </i>
   <i type="logical" name="LMODELHF"> F  </i>
   <i name="ENCUT4O">     -1.00000000</i>
   <i type="int" name="EXXOEP">     0</i>
   <i type="int" name="FOURORBIT">     0</i>
   <i name="AEXX">      0.00000000</i>
   <i name="HFALPHA">      0.00000000</i>
   <i name="MCALPHA">      0.00000000</i>
   <i name="ALDAX">      1.00000000</i>
   <i name="AGGAX">      1.00000000</i>
   <i name="ALDAC">      1.00000000</i>
   <i name="AGGAC">      1.00000000</i>
   <i type="int" name="NKREDX">     1</i>
   <i type="int" name="NKREDY">     1</i>
   <i type="int" name="NKREDZ">     1</i>
   <i type="logical" name="SHIFTRED"> F  </i>
   <i type="logical" name="ODDONLY"> F  </i>
   <i type="logical" name="EVENONLY"> F  </i>
   <i type="int" name="LMAXFOCK">     0</i>
   <i type="int" name="NMAXFOCKAE">     0</i>
   <i type="logical" name="LFOCKAEDFT"> F  </i>
   <i name="HFSCREEN">      0.00000000</i>
   <i name="HFSCREENC">      0.00000000</i>
   <i type="int" name="NBANDSGWLOW">     0</i>
  </separator>
  <separator name="vdW DFT" >
   <i type="logical" name="LUSE_VDW"> F  </i>
   <i name="Zab_VDW">     -0.84910000</i>
   <i name="PARAM1">      0.12340000</i>
   <i name="PARAM2">      1.00000000</i>
   <i name="PARAM3">      0.00000000</i>
  </separator>
  <separator name="model GW" >
   <i type="int" name="MODEL_GW">     0</i>
   <i name="MODEL_EPS0">     15.71628168</i>
   <i name="MODEL_ALPHA">      1.00000000</i>
  </separator>
  <separator name="linear response parameters" >
   <i type="logical" name="LEPSILON"> F  </i>
   <i type="logical" name="LRPA"> F  </i>
   <i type="logical" name="LNABLA"> F  </i>
   <i type="logical" name="LVEL"> F  </i>
   <i type="int" name="KINTER">     0</i>
   <i name="CSHIFT">      0.10000000</i>
   <i name="OMEGAMAX">     -1.00000000</i>
   <i name="DEG_THRESHOLD">      0.00200000</i>
   <i name="RTIME">     -0.10000000</i>
   <i name="WPLASMAI">      0.00000000</i>
   <v name="DFIELD">      0.00000000      0.00000000      0.00000000</v>
   <v name="WPLASMA">      0.00000000      0.00000000      0.00000000      0.00000000      0.00000000      0.00000000      0.00000000      0.00000000      0.00000000</v>
  </separator>
  <separator name="orbital magnetization" >
   <i type="logical" name="NUCIND"> F  </i>
   <v name="MAGPOS">      0.00000000      0.00000000      0.00000000</v>
   <i type="logical" name="LNICSALL"> T  </i>
   <i type="logical" name="ORBITALMAG"> F  </i>
   <i type="logical" name="LMAGBLOCH"> F  </i>
   <i type="logical" name="LCHIMAG"> F  </i>
   <i type="logical" name="LGAUGE"> T  </i>
   <i type="int" name="MAGATOM">     0</i>
   <v name="MAGDIPOL">      0.00000000      0.00000000      0.00000000</v>
   <v name="AVECCONST">      0.00000000      0.00000000      0.00000000</v>
  </separator>
  <separator name="response functions" >
   <i type="logical" name="LADDER"> F  </i>
   <i type="logical" name="LRPAFORCE"> F  </i>
   <i type="logical" name="LFXC"> F  </i>
   <i type="logical" name="LHARTREE"> T  </i>
   <i type="int" name="IBSE">     0</i>
   <v type="int" name="KPOINT">    -1     0     0     0</v>
   <i type="logical" name="LTCTE"> F  </i>
   <i type="logical" name="LTETE"> F  </i>
   <i type="logical" name="LTRIPLET"> F  </i>
   <i type="logical" name="LFXCEPS"> F  </i>
   <i type="logical" name="LFXHEG"> F  </i>
   <i type="int" name="NATURALO">     2</i>
   <i type="logical" name="L2ORDER"> F  </i>
   <i type="logical" name="LMP2LT"> F  </i>
   <i type="logical" name="LUSEW"> F  </i>
   <i name="ENCUTGW">     -2.00000000</i>
   <i name="ENCUTGWSOFT">     -2.00000000</i>
   <i name="ENCUTLF">     -1.00000000</i>
   <i type="int" name="LMAXMP2">    -1</i>
   <i name="SCISSOR">      0.00000000</i>
   <i type="int" name="NOMEGA">     0</i>
   <i type="int" name="NOMEGAR">     0</i>
   <i type="int" name="NBANDSGW">    -1</i>
   <i type="int" name="NBANDSO">    -1</i>
   <i type="int" name="NBANDSV">    -1</i>
   <i type="int" name="NELM">     1</i>
   <i type="int" name="NELMHF">     1</i>
   <i type="int" name="DIM">     3</i>
   <i type="int" name="ANTIRES">     0</i>
   <i name="OMEGAMAX">    -30.00000000</i>
   <i name="OMEGAMIN">    -30.00000000</i>
   <i name="OMEGATL">   -200.00000000</i>
   <i type="int" name="OMEGAGRID">   140</i>
   <i name="CSHIFT">     -0.10000000</i>
   <i type="logical" name="SELFENERGY"> F  </i>
   <i type="logical" name="LSPECTRAL"> F  </i>
   <i type="logical" name="LSPECTRALGW"> F  </i>
   <i type="logical" name="LSINGLES"> F  </i>
   <i type="logical" name="LFERMIGW"> F  </i>
   <i type="logical" name="ODDONLYGW"> F  </i>
   <i type="logical" name="EVENONLYGW"> F  </i>
   <i type="int" name="NKREDLFX">     1</i>
   <i type="int" name="NKREDLFY">     1</i>
   <i type="int" name="NKREDLFZ">     1</i>
   <i type="int" name="MAXMEM">  2800</i>
   <i type="int" name="TELESCOPE">     0</i>
   <i type="int" name="TAUPAR">     1</i>
   <i type="int" name="OMEGAPAR">    -1</i>
   <i name="LAMBDA">      1.00000000</i>
  </separator>
  <separator name="External order field" >
   <i name="OFIELD_KAPPA">      0.00000000</i>
   <v name="OFIELD_K">      0.00000000      0.00000000      0.00000000</v>
   <i name="OFIELD_Q6_NEAR">      0.00000000</i>
   <i name="OFIELD_Q6_FAR">      0.00000000</i>
   <i name="OFIELD_A">      0.00000000</i>
  </separator>
 </parameters>
 <atominfo>
  <atoms>       4 </atoms>
  <types>       1 </types>
  <array name="atoms" >
   <dimension dim="1">ion</dimension>
   <field type="string">element</field>
   <field type="int">atomtype</field>
   <set>
    <rc><c>C </c><c>   1</c></rc>
    <rc><c>C </c><c>   1</c></rc>
    <rc><c>C </c><c>   1</c></rc>
    <rc><c>C </c><c>   1</c></rc>
   </set>
  </array>
  <array name="atomtypes" >
   <dimension dim="1">type</dimension>
   <field type="int">atomspertype</field>
   <field type="string">element</field>
   <field>mass</field>
   <field>valence</field>
   <field type="string">pseudopotential</field>
   <set>
    <rc><c>   4</c><c>C </c><c>     12.01100000</c><c>      4.00000000</c><c> PAW_PBE C 08Apr2002                    </c></rc>
   </set>
  </array>
 </atominfo>
 <structure name="initialpos" >
  <crystal>
   <varray name="basis" >
    <v>       2.13000000      -1.22975600       0.00000000 </v>
    <v>       2.13000000       1.22975600       0.00000000 </v>
    <v>       0.00000000       0.00000000      20.00000000 </v>
   </varray>
   <i name="volume">    104.77521120 </i>
   <varray name="rec_basis" >
    <v>       0.23474178      -0.40658472       0.00000000 </v>
    <v>       0.23474178       0.40658472       0.00000000 </v>
    <v>       0.00000000       0.00000000       0.05000000 </v>
   </varray>
  </crystal>
  <varray name="positions" >
   <v>       0.00000000       0.00000000       0.00000000 </v>
   <v>       0.33333300       0.33333300       0.00000000 </v>
   <v>       0.00000000       0.00000000       0.22193400 </v>
   <v>       0.33333300       0.33333300       0.22193400 </v>
  </varray>
  <varray name="selective"  type="logical" >
   <v type="logical" >  F  F  F </v>
   <v type="logical" >  F  F  F </v>
   <v type="logical" >  F  F  T </v>
   <v type="logical" >  F  F  T </v>
  </varray>
  <nose>
   <v>      -3.00000000       0.00000000       0.00010000       0.00010000 </v>
  </nose>
 </structure>
 <calculation>
  <scstep>
   <time name="dav">    0.78    0.78</time>
   <time name="total">    0.81    0.83</time>
   <energy>
    <i name="alphaZ">     12.44266281 </i>
    <i name="ewald">   2473.15002607 </i>
    <i name="hartreedc">  -2997.52072889 </i>
    <i name="XCdc">     57.63646916 </i>
    <i name="pawpsdc">    279.83967470 </i>
    <i name="pawaedc">   -285.00068887 </i>
    <i name="eentropy">     -0.00569973 </i>
    <i name="bandstr">    -34.08483694 </i>
    <i name="atom">    588.61769381 </i>
    <i name="e_fr_energy">     95.07457213 </i>
    <i name="e_wo_entrp">     95.08027186 </i>
    <i name="e_0_energy">     95.07742199 </i>
   </energy>
  </scstep>
  <scstep>
   <time name="dav">    1.28    1.29</time>
   <time name="total">    1.29    1.30</time>
   <energy>
    <i name="e_fr_energy">    -30.51155463 </i>
    <i name="e_wo_entrp">    -30.51130942 </i>
    <i name="e_0_energy">    -30.51143202 </i>
   </energy>
  </scstep>
  <scstep>
   <time name="dav">    0.95    0.96</time>
   <time name="total">    0.96    0.96</time>
   <energy>
    <i name="e_fr_energy">    -36.85044739 </i>
    <i name="e_wo_entrp">    -36.85024196 </i>
    <i name="e_0_energy">    -36.85034468 </i>
   </energy>
  </scstep>
  <scstep>
   <time name="dav">    1.22    1.22</time>
   <time name="total">    1.22    1.23</time>
   <energy>
    <i name="e_fr_energy">    -36.91912249 </i>
    <i name="e_wo_entrp">    -36.91891826 </i>
    <i name="e_0_energy">    -36.91902037 </i>
   </energy>
  </scstep>
  <scstep>
   <time name="dav">    1.13    1.14</time>
   <time name="total">    1.22    1.23</time>
   <energy>
    <i name="e_fr_energy">    -36.91970696 </i>
    <i name="e_wo_entrp">    -36.91950273 </i>
    <i name="e_0_energy">    -36.91960485 </i>
   </energy>
  </scstep>
  <scstep>
   <time name="dav">    1.29    1.30</time>
   <time name="total">    1.40    1.41</time>
   <energy>
    <i name="e_fr_energy">    -36.91972945 </i>
    <i name="e_wo_entrp">    -36.91952522 </i>
    <i name="e_0_energy">    -36.91962734 </i>
   </energy>
  </scstep>
  <scstep>
   <time name="dav">    1.20    1.20</time>
   <time name="total">    1.31    1.31</time>
   <energy>
    <i name="e_fr_energy">    -36.91972999 </i>
    <i name="e_wo_entrp">    -36.91952576 </i>
    <i name="e_0_energy">    -36.91962788 </i>
   </energy>
  </scstep>
  <scstep>
   <time name="dav">    1.22    1.22</time>
   <time name="total">    1.34    1.35</time>
   <energy>
    <i name="e_fr_energy">    -36.91972995 </i>
    <i name="e_wo_entrp">    -36.91952573 </i>
    <i name="e_0_energy">    -36.91962784 </i>
   </energy>
  </scstep>
  <scstep>
   <time name="dav">    1.13    1.13</time>
   <time name="total">    1.23    1.24</time>
   <energy>
    <i name="e_fr_energy">    -36.91972994 </i>
    <i name="e_wo_entrp">    -36.91952572 </i>
    <i name="e_0_energy">    -36.91962783 </i>
   </energy>
  </scstep>
  <scstep>
   <time name="dav">    1.17    1.17</time>
   <time name="total">    1.27    1.28</time>
   <energy>
    <i name="e_fr_energy">    -36.91972995 </i>
    <i name="e_wo_entrp">    -36.91952574 </i>
    <i name="e_0_energy">    -36.91962784 </i>
   </energy>
  </scstep>
  <scstep>
   <time name="dav">    1.09    1.09</time>
   <time name="total">    1.19    1.20</time>
   <energy>
    <i name="e_fr_energy">    -36.91972998 </i>
    <i name="e_wo_entrp">    -36.91952576 </i>
    <i name="e_0_energy">    -36.91962787 </i>
   </energy>
  </scstep>
  <scstep>
   <time name="dav">    1.12    1.13</time>
   <time name="total">    1.23    1.23</time>
   <energy>
    <i name="e_fr_energy">    -36.91973001 </i>
    <i name="e_wo_entrp">    -36.91952579 </i>
    <i name="e_0_energy">    -36.91962790 </i>
   </energy>
  </scstep>
  <scstep>
   <time name="dav">    1.12    1.12</time>
   <time name="total">    1.22    1.23</time>
   <energy>
    <i name="e_fr_energy">    -36.91973002 </i>
    <i name="e_wo_entrp">    -36.91952581 </i>
    <i name="e_0_energy">    -36.91962792 </i>
   </energy>
  </scstep>
  <scstep>
   <time name="dav">    1.06    1.06</time>
   <time name="total">    1.09    1.09</time>
   <energy>
    <i name="alphaZ">     12.44266281 </i>
    <i name="ewald">   2473.15002607 </i>
    <i name="hartreedc">  -2997.51894711 </i>
    <i name="XCdc">     57.63670979 </i>
    <i name="pawpsdc">    279.84145194 </i>
    <i name="pawaedc">   -285.00246074 </i>
    <i name="eentropy">     -0.00020422 </i>
    <i name="bandstr">   -166.08666237 </i>
    <i name="atom">    588.61769381 </i>
    <i name="e_fr_energy">    -36.91973002 </i>
    <i name="e_wo_entrp">    -36.91952580 </i>
    <i name="e_0_energy">    -36.91962791 </i>
   </energy>
  </scstep>
  <structure>
   <crystal>
    <varray name="basis" >
     <v>       2.13000000      -1.22975600       0.00000000 </v>
     <v>       2.13000000       1.22975600       0.00000000 </v>
     <v>       0.00000000       0.00000000      20.00000000 </v>
    </varray>
    <i name="volume">    104.77521120 </i>
    <varray name="rec_basis" >
     <v>       0.23474178      -0.40658472       0.00000000 </v>
     <v>       0.23474178       0.40658472       0.00000000 </v>
     <v>       0.00000000       0.00000000       0.05000000 </v>
    </varray>
   </crystal>
   <varray name="positions" >
    <v>       0.00000000       0.00000000       0.00000000 </v>
    <v>       0.33333300       0.33333300       0.00000000 </v>
    <v>       0.00000000       0.00000000       0.22193400 </v>
    <v>       0.33333300       0.33333300       0.22193400 </v>
   </varray>
  </structure>
  <varray name="forces" >
   <v>       0.00000000      -0.00000000      -0.00069499 </v>
   <v>      -0.00000000       0.00000000      -0.00069499 </v>
   <v>      -0.00000000      -0.00000000       0.00069499 </v>
   <v>       0.00000000       0.00000000       0.00069499 </v>
  </varray>
  <varray name="stress" >
   <v>      12.75633308       0.00000000       0.00000000 </v>
   <v>       0.00000000      12.75633156      -0.00000000 </v>
   <v>       0.00000000      -0.00000000      -0.58907329 </v>
  </varray>
  <energy>
   <i name="e_fr_energy">    -36.91973002 </i>
   <i name="e_wo_entrp">    -36.91962791 </i>
   <i name="e_0_energy">     -0.00020422 </i>
  </energy>
  <time name="totalsc">   18.08   18.30</time>
  <eigenvalues>
   <array>
    <dimension dim="1">band</dimension>
    <dimension dim="2">kpoint</dimension>
    <dimension dim="3">spin</dimension>
    <field>eigene</field>
    <field>occ</field>
    <set>
     <set comment="spin 1">
      <set comment="kpoint 1">
       <r>  -20.7948    1.0000 </r>
       <r>  -20.7831    1.0000 </r>
       <r>   -8.9733    1.0000 </r>
       <r>   -8.7915    1.0000 </r>
       <r>   -4.2421    1.0000 </r>
       <r>   -4.2420    1.0000 </r>
       <r>   -4.2416    1.0000 </r>
       <r>   -4.2415    1.0000 </r>
       <r>    1.9311    0.0000 </r>
       <r>    2.4902    0.0000 </r>
       <r>    3.1231    0.0000 </r>
       <r>    4.0115    0.0000 </r>
      </set>
      <set comment="kpoint 2">
       <r>  -20.7813    1.0000 </r>
       <r>  -20.7696    1.0000 </r>
       <r>   -8.9571    1.0000 </r>
       <r>   -8.7755    1.0000 </r>
       <r>   -4.2980    1.0000 </r>
       <r>   -4.2975    1.0000 </r>
       <r>   -4.2718    1.0000 </r>
       <r>   -4.2713    1.0000 </r>
       <r>    1.9491    0.0000 </r>
       <r>    2.5085    0.0000 </r>
       <r>    3.1415    0.0000 </r>
       <r>    4.0296    0.0000 </r>
      </set>
      <set comment="kpoint 3">
       <r>  -20.7409    1.0000 </r>
       <r>  -20.7292    1.0000 </r>
       <r>   -8.9086    1.0000 </r>
       <r>   -8.7274    1.0000 </r>
       <r>   -4.4630    1.0000 </r>
       <r>   -4.4624    1.0000 </r>
       <r>   -4.3589    1.0000 </r>
       <r>   -4.3584    1.0000 </r>
       <r>    2.0032    0.0000 </r>
       <r>    2.5635    0.0000 </r>
       <r>    3.1964    0.0000 </r>
       <r>    4.0839    0.0000 </r>
      </set>
      <set comment="kpoint 4">
       <r>  -20.6737    1.0000 </r>
       <r>  -20.6620    1.0000 </r>
       <r>   -8.8279    1.0000 </r>
       <r>   -8.6473    1.0000 </r>
       <r>   -4.7287    1.0000 </r>
       <r>   -4.7279    1.0000 </r>
       <r>   -4.4975    1.0000 </r>
       <r>   -4.4969    1.0000 </r>
       <r>    2.0933    0.0000 </r>
       <r>    2.6550    0.0000 </r>
       <r>    3.2881    0.0000 </r>
       <r>    4.1744    0.0000 </r>
      </set>
      <set comment="kpoint 5">
       <r>  -20.5795    1.0000 </r>
       <r>  -20.5680    1.0000 </r>
       <r>   -8.7151    1.0000 </r>
       <r>   -8.5354    1.0000 </r>
       <r>   -5.0831    1.0000 </r>
       <r>   -5.0820    1.0000 </r>
       <r>   -4.6788    1.0000 </r>
       <r>   -4.6781    1.0000 </r>
       <r>    2.2195    0.0000 </r>
       <r>    2.7830    0.0000 </r>
       <r>    3.4163    0.0000 </r>
       <r>    4.3009    0.0000 </r>
      </set>
      <set comment="kpoint 6">
       <r>  -20.4587    1.0000 </r>
       <r>  -20.4472    1.0000 </r>
       <r>   -8.5704    1.0000 </r>
       <r>   -8.3920    1.0000 </r>
       <r>   -5.5124    1.0000 </r>
       <r>   -5.5111    1.0000 </r>
       <r>   -4.8931    1.0000 </r>
       <r>   -4.8923    1.0000 </r>
       <r>    2.3817    0.0000 </r>
       <r>    2.9476    0.0000 </r>
       <r>    3.5811    0.0000 </r>
       <r>    4.4634    0.0000 </r>
      </set>
      <set comment="kpoint 7">
       <r>  -20.3112    1.0000 </r>
       <r>  -20.2999    1.0000 </r>
       <r>   -8.3943    1.0000 </r>
       <r>   -8.2174    1.0000 </r>
       <r>   -6.0027    1.0000 </r>
       <r>   -6.0012    1.0000 </r>
       <r>   -5.1305    1.0000 </r>
       <r>   -5.1297    1.0000 </r>
       <r>    2.5799    0.0000 </r>
       <r>    3.1487    0.0000 </r>
       <r>    3.7822    0.0000 </r>
       <r>    4.6617    0.0000 </r>
      </set>
      <set comment="kpoint 8">
       <r>  -20.1372    1.0000 </r>
       <r>  -20.1260    1.0000 </r>
       <r>   -8.1872    1.0000 </r>
       <r>   -8.0120    1.0000 </r>
       <r>   -6.5410    1.0000 </r>
       <r>   -6.5392    1.0000 </r>
       <r>   -5.3819    1.0000 </r>
       <r>   -5.3810    1.0000 </r>
       <r>    2.8140    0.0000 </r>
       <r>    3.3861    0.0000 </r>
       <r>    4.0197    0.0000 </r>
       <r>    4.8952    0.0000 </r>
      </set>
      <set comment="kpoint 9">
       <r>  -19.9368    1.0000 </r>
       <r>  -19.9259    1.0000 </r>
       <r>   -7.9495    1.0000 </r>
       <r>   -7.7765    1.0000 </r>
       <r>   -7.1156    1.0000 </r>
       <r>   -7.1135    1.0000 </r>
       <r>   -5.6393    1.0000 </r>
       <r>   -5.6384    1.0000 </r>
       <r>    3.0840    0.0000 </r>
       <r>    3.6596    0.0000 </r>
       <r>    4.2929    0.0000 </r>
       <r>    5.1631    0.0000 </r>
      </set>
      <set comment="kpoint 10">
       <r>  -19.7103    1.0000 </r>
       <r>  -19.6996    1.0000 </r>
       <r>   -7.7167    1.0000 </r>
       <r>   -7.7143    1.0000 </r>
       <r>   -7.6821    1.0000 </r>
       <r>   -7.5116    1.0000 </r>
       <r>   -5.8960    1.0000 </r>
       <r>   -5.8951    1.0000 </r>
       <r>    3.3896    0.0000 </r>
       <r>    3.9686    0.0000 </r>
       <r>    4.6011    0.0000 </r>
       <r>    5.4621    0.0000 </r>
      </set>
      <set comment="kpoint 11">
       <r>  -19.4580    1.0000 </r>
       <r>  -19.4475    1.0000 </r>
       <r>   -8.3356    1.0000 </r>
       <r>   -8.3329    1.0000 </r>
       <r>   -7.3859    1.0000 </r>
       <r>   -7.2182    1.0000 </r>
       <r>   -6.1463    1.0000 </r>
       <r>   -6.1454    1.0000 </r>
       <r>    3.7306    0.0000 </r>
       <r>    4.3122    0.0000 </r>
       <r>    4.9407    0.0000 </r>
       <r>    5.7703    0.0000 </r>
      </set>
      <set comment="kpoint 12">
       <r>  -19.1801    1.0000 </r>
       <r>  -19.1698    1.0000 </r>
       <r>   -8.9653    1.0000 </r>
       <r>   -8.9623    1.0000 </r>
       <r>   -7.0621    1.0000 </r>
       <r>   -6.8977    1.0000 </r>
       <r>   -6.3858    1.0000 </r>
       <r>   -6.3848    1.0000 </r>
       <r>    4.1066    0.0000 </r>
       <r>    4.6853    0.0000 </r>
       <r>    5.2767    0.0000 </r>
       <r>    5.7033    0.0000 </r>
      </set>
      <set comment="kpoint 13">
       <r>  -18.8770    1.0000 </r>
       <r>  -18.8670    1.0000 </r>
       <r>   -9.5999    1.0000 </r>
       <r>   -9.5965    1.0000 </r>
       <r>   -6.7124    1.0000 </r>
       <r>   -6.6107    1.0000 </r>
       <r>   -6.6097    1.0000 </r>
       <r>   -6.5517    1.0000 </r>
       <r>    4.5155    0.0000 </r>
       <r>    4.9743    0.0000 </r>
       <r>    4.9814    0.0000 </r>
       <r>    5.2693    0.0000 </r>
      </set>
      <set comment="kpoint 14">
       <r>  -18.5492    1.0000 </r>
       <r>  -18.5395    1.0000 </r>
       <r>  -10.2341    1.0000 </r>
       <r>  -10.2304    1.0000 </r>
       <r>   -6.8181    1.0000 </r>
       <r>   -6.8171    1.0000 </r>
       <r>   -6.3391    1.0000 </r>
       <r>   -6.1827    1.0000 </r>
       <r>    4.3280    0.0000 </r>
       <r>    4.4346    0.0000 </r>
       <r>    4.9654    0.0000 </r>
       <r>    5.5943    0.0000 </r>
      </set>
      <set comment="kpoint 15">
       <r>  -18.1973    1.0000 </r>
       <r>  -18.1879    1.0000 </r>
       <r>  -10.8638    1.0000 </r>
       <r>  -10.8597    1.0000 </r>
       <r>   -7.0057    1.0000 </r>
       <r>   -7.0046    1.0000 </r>
       <r>   -5.9454    1.0000 </r>
       <r>   -5.7940    1.0000 </r>
       <r>    3.6653    0.0000 </r>
       <r>    3.7804    0.0000 </r>
       <r>    5.4401    0.0000 </r>
       <r>    6.0651    0.0000 </r>
      </set>
      <set comment="kpoint 16">
       <r>  -17.8221    1.0000 </r>
       <r>  -17.8130    1.0000 </r>
       <r>  -11.4850    1.0000 </r>
       <r>  -11.4806    1.0000 </r>
       <r>   -7.1714    1.0000 </r>
       <r>   -7.1703    1.0000 </r>
       <r>   -5.5362    1.0000 </r>
       <r>   -5.3903    1.0000 </r>
       <r>    3.0094    0.0000 </r>
       <r>    3.1326    0.0000 </r>
       <r>    5.9362    0.0000 </r>
       <r>    6.4333    0.0000 </r>
      </set>
      <set comment="kpoint 17">
       <r>  -17.4249    1.0000 </r>
       <r>  -17.4162    1.0000 </r>
       <r>  -12.0940    1.0000 </r>
       <r>  -12.0892    1.0000 </r>
       <r>   -7.3138    1.0000 </r>
       <r>   -7.3127    1.0000 </r>
       <r>   -5.1185    1.0000 </r>
       <r>   -4.9791    1.0000 </r>
       <r>    2.3751    0.0000 </r>
       <r>    2.5072    0.0000 </r>
       <r>    6.3104    0.0000 </r>
       <r>    6.4063    0.0000 </r>
      </set>
      <set comment="kpoint 18">
       <r>  -17.0079    1.0000 </r>
       <r>  -16.9995    1.0000 </r>
       <r>  -12.6868    1.0000 </r>
       <r>  -12.6816    1.0000 </r>
       <r>   -7.4318    1.0000 </r>
       <r>   -7.4307    1.0000 </r>
       <r>   -4.7040    1.0000 </r>
       <r>   -4.5719    1.0000 </r>
       <r>    1.7784    0.0000 </r>
       <r>    1.9200    0.0000 </r>
       <r>    6.3231    0.0000 </r>
       <r>    6.3536    0.0000 </r>
      </set>
      <set comment="kpoint 19">
       <r>  -16.5752    1.0000 </r>
       <r>  -16.5671    1.0000 </r>
       <r>  -13.2577    1.0000 </r>
       <r>  -13.2521    1.0000 </r>
       <r>   -7.5245    1.0000 </r>
       <r>   -7.5234    1.0000 </r>
       <r>   -4.3114    1.0000 </r>
       <r>   -4.1875    1.0000 </r>
       <r>    1.2411    0.0000 </r>
       <r>    1.3928    0.0000 </r>
       <r>    6.2875    0.0000 </r>
       <r>    6.3090    0.0000 </r>
      </set>
      <set comment="kpoint 20">
       <r>  -16.1372    1.0000 </r>
       <r>  -16.1294    1.0000 </r>
       <r>  -13.7952    1.0000 </r>
       <r>  -13.7893    1.0000 </r>
       <r>   -7.5911    1.0000 </r>
       <r>   -7.5900    1.0000 </r>
       <r>   -3.9714    1.0000 </r>
       <r>   -3.8562    1.0000 </r>
       <r>    0.7963    0.0000 </r>
       <r>    0.9580    0.0000 </r>
       <r>    6.2571    0.0000 </r>
       <r>    6.2761    0.0000 </r>
      </set>
      <set comment="kpoint 21">
       <r>  -15.7301    1.0000 </r>
       <r>  -15.7226    1.0000 </r>
       <r>  -14.2622    1.0000 </r>
       <r>  -14.2560    1.0000 </r>
       <r>   -7.6312    1.0000 </r>
       <r>   -7.6301    1.0000 </r>
       <r>   -3.7307    1.0000 </r>
       <r>   -3.6228    1.0000 </r>
       <r>    0.4920    0.0000 </r>
       <r>    0.6620    0.0000 </r>
       <r>    6.2379    0.0000 </r>
       <r>    6.2559    0.0000 </r>
      </set>
      <set comment="kpoint 22">
       <r>  -15.5165    1.0000 </r>
       <r>  -15.5091    1.0000 </r>
       <r>  -14.4958    1.0000 </r>
       <r>  -14.4895    1.0000 </r>
       <r>   -7.6447    1.0000 </r>
       <r>   -7.6435    1.0000 </r>
       <r>   -3.6419    1.0000 </r>
       <r>   -3.5370    1.0000 </r>
       <r>    0.3820    0.0000 </r>
       <r>    0.5552    0.0000 </r>
       <r>    6.2313    0.0000 </r>
       <r>    6.2491    0.0000 </r>
      </set>
      <set comment="kpoint 23">
       <r>  -20.7544    1.0000 </r>
       <r>  -20.7427    1.0000 </r>
       <r>   -8.9248    1.0000 </r>
       <r>   -8.7434    1.0000 </r>
       <r>   -4.4074    1.0000 </r>
       <r>   -4.4068    1.0000 </r>
       <r>   -4.3313    1.0000 </r>
       <r>   -4.3308    1.0000 </r>
       <r>    1.9852    0.0000 </r>
       <r>    2.5452    0.0000 </r>
       <r>    3.1781    0.0000 </r>
       <r>    4.0658    0.0000 </r>
      </set>
      <set comment="kpoint 24">
       <r>  -20.7006    1.0000 </r>
       <r>  -20.6889    1.0000 </r>
       <r>   -8.8602    1.0000 </r>
       <r>   -8.6793    1.0000 </r>
       <r>   -4.6199    1.0000 </r>
       <r>   -4.6192    1.0000 </r>
       <r>   -4.4470    1.0000 </r>
       <r>   -4.4464    1.0000 </r>
       <r>    2.0573    0.0000 </r>
       <r>    2.6184    0.0000 </r>
       <r>    3.2514    0.0000 </r>
       <r>    4.1382    0.0000 </r>
      </set>
      <set comment="kpoint 25">
       <r>  -20.6199    1.0000 </r>
       <r>  -20.6083    1.0000 </r>
       <r>   -8.7634    1.0000 </r>
       <r>   -8.5833    1.0000 </r>
       <r>   -4.9262    1.0000 </r>
       <r>   -4.9253    1.0000 </r>
       <r>   -4.6107    1.0000 </r>
       <r>   -4.6101    1.0000 </r>
       <r>    2.1654    0.0000 </r>
       <r>    2.7282    0.0000 </r>
       <r>    3.3613    0.0000 </r>
       <r>    4.2467    0.0000 </r>
      </set>
      <set comment="kpoint 26">
       <r>  -20.5124    1.0000 </r>
       <r>  -20.5009    1.0000 </r>
       <r>   -8.6347    1.0000 </r>
       <r>   -8.4557    1.0000 </r>
       <r>   -5.3141    1.0000 </r>
       <r>   -5.3129    1.0000 </r>
       <r>   -4.8126    1.0000 </r>
       <r>   -4.8119    1.0000 </r>
       <r>    2.3096    0.0000 </r>
       <r>    2.8745    0.0000 </r>
       <r>    3.5078    0.0000 </r>
       <r>    4.3912    0.0000 </r>
      </set>
      <set comment="kpoint 27">
       <r>  -20.3782    1.0000 </r>
       <r>  -20.3668    1.0000 </r>
       <r>   -8.4743    1.0000 </r>
       <r>   -8.2967    1.0000 </r>
       <r>   -5.7700    1.0000 </r>
       <r>   -5.7686    1.0000 </r>
       <r>   -5.0425    1.0000 </r>
       <r>   -5.0417    1.0000 </r>
       <r>    2.4898    0.0000 </r>
       <r>    3.0574    0.0000 </r>
       <r>    3.6908    0.0000 </r>
       <r>    4.5717    0.0000 </r>
      </set>
      <set comment="kpoint 28">
       <r>  -20.2174    1.0000 </r>
       <r>  -20.2062    1.0000 </r>
       <r>   -8.2826    1.0000 </r>
       <r>   -8.1067    1.0000 </r>
       <r>   -6.2808    1.0000 </r>
       <r>   -6.2791    1.0000 </r>
       <r>   -5.2905    1.0000 </r>
       <r>   -5.2896    1.0000 </r>
       <r>    2.7060    0.0000 </r>
       <r>    3.2766    0.0000 </r>
       <r>    3.9102    0.0000 </r>
       <r>    4.7876    0.0000 </r>
      </set>
      <set comment="kpoint 29">
       <r>  -20.0303    1.0000 </r>
       <r>  -20.0192    1.0000 </r>
       <r>   -8.0602    1.0000 </r>
       <r>   -7.8862    1.0000 </r>
       <r>   -6.8342    1.0000 </r>
       <r>   -6.8323    1.0000 </r>
       <r>   -5.5480    1.0000 </r>
       <r>   -5.5471    1.0000 </r>
       <r>    2.9581    0.0000 </r>
       <r>    3.5321    0.0000 </r>
       <r>    4.1656    0.0000 </r>
       <r>    5.0386    0.0000 </r>
      </set>
      <set comment="kpoint 30">
       <r>  -19.8168    1.0000 </r>
       <r>  -19.8060    1.0000 </r>
       <r>   -7.8076    1.0000 </r>
       <r>   -7.6359    1.0000 </r>
       <r>   -7.4196    1.0000 </r>
       <r>   -7.4174    1.0000 </r>
       <r>   -5.8076    1.0000 </r>
       <r>   -5.8066    1.0000 </r>
       <r>    3.2460    0.0000 </r>
       <r>    3.8234    0.0000 </r>
       <r>    4.4565    0.0000 </r>
       <r>    5.3228    0.0000 </r>
      </set>
      <set comment="kpoint 31">
       <r>  -19.5774    1.0000 </r>
       <r>  -19.5668    1.0000 </r>
       <r>   -8.0275    1.0000 </r>
       <r>   -8.0250    1.0000 </r>
       <r>   -7.5257    1.0000 </r>
       <r>   -7.3567    1.0000 </r>
       <r>   -6.0632    1.0000 </r>
       <r>   -6.0622    1.0000 </r>
       <r>    3.5693    0.0000 </r>
       <r>    4.1500    0.0000 </r>
       <r>    4.7812    0.0000 </r>
       <r>    5.6330    0.0000 </r>
      </set>
      <set comment="kpoint 32">
       <r>  -19.3123    1.0000 </r>
       <r>  -19.3020    1.0000 </r>
       <r>   -8.6502    1.0000 </r>
       <r>   -8.6474    1.0000 </r>
       <r>   -7.2156    1.0000 </r>
       <r>   -7.0496    1.0000 </r>
       <r>   -6.3098    1.0000 </r>
       <r>   -6.3088    1.0000 </r>
       <r>    3.9279    0.0000 </r>
       <r>    4.5097    0.0000 </r>
       <r>    5.1309    0.0000 </r>
       <r>    5.8547    0.0000 </r>
      </set>
      <set comment="kpoint 33">
       <r>  -19.0218    1.0000 </r>
       <r>  -19.0117    1.0000 </r>
       <r>   -9.2811    1.0000 </r>
       <r>   -9.2779    1.0000 </r>
       <r>   -6.8787    1.0000 </r>
       <r>   -6.7162    1.0000 </r>
       <r>   -6.5433    1.0000 </r>
       <r>   -6.5423    1.0000 </r>
       <r>    4.3210    0.0000 </r>
       <r>    4.8855    0.0000 </r>
       <r>    5.2501    0.0000 </r>
       <r>    5.4763    0.0000 </r>
      </set>
      <set comment="kpoint 34">
       <r>  -18.7063    1.0000 </r>
       <r>  -18.6965    1.0000 </r>
       <r>   -9.9145    1.0000 </r>
       <r>   -9.9109    1.0000 </r>
       <r>   -6.7605    1.0000 </r>
       <r>   -6.7594    1.0000 </r>
       <r>   -6.5169    1.0000 </r>
       <r>   -6.3585    1.0000 </r>
       <r>    4.6386    0.0000 </r>
       <r>    4.7419    0.0000 </r>
       <r>    4.7625    0.0000 </r>
       <r>    5.3925    0.0000 </r>
      </set>
      <set comment="kpoint 35">
       <r>  -18.3664    1.0000 </r>
       <r>  -18.3569    1.0000 </r>
       <r>  -10.5457    1.0000 </r>
       <r>  -10.5417    1.0000 </r>
       <r>   -6.9588    1.0000 </r>
       <r>   -6.9577    1.0000 </r>
       <r>   -6.1330    1.0000 </r>
       <r>   -5.9792    1.0000 </r>
       <r>    3.9894    0.0000 </r>
       <r>    4.0993    0.0000 </r>
       <r>    5.2127    0.0000 </r>
       <r>    5.8390    0.0000 </r>
      </set>
      <set comment="kpoint 36">
       <r>  -18.0029    1.0000 </r>
       <r>  -17.9936    1.0000 </r>
       <r>  -11.1705    1.0000 </r>
       <r>  -11.1662    1.0000 </r>
       <r>   -7.1360    1.0000 </r>
       <r>   -7.1349    1.0000 </r>
       <r>   -5.7309    1.0000 </r>
       <r>   -5.5823    1.0000 </r>
       <r>    3.3293    0.0000 </r>
       <r>    3.4473    0.0000 </r>
       <r>    5.7023    0.0000 </r>
       <r>    6.3182    0.0000 </r>
      </set>
      <set comment="kpoint 37">
       <r>  -17.6166    1.0000 </r>
       <r>  -17.6077    1.0000 </r>
       <r>  -11.7852    1.0000 </r>
       <r>  -11.7806    1.0000 </r>
       <r>   -7.2906    1.0000 </r>
       <r>   -7.2894    1.0000 </r>
       <r>   -5.3164    1.0000 </r>
       <r>   -5.1737    1.0000 </r>
       <r>    2.6838    0.0000 </r>
       <r>    2.8103    0.0000 </r>
       <r>    6.1922    0.0000 </r>
       <r>    6.4902    0.0000 </r>
      </set>
      <set comment="kpoint 38">
       <r>  -17.2093    1.0000 </r>
       <r>  -17.2007    1.0000 </r>
       <r>  -12.3860    1.0000 </r>
       <r>  -12.3810    1.0000 </r>
       <r>   -7.4211    1.0000 </r>
       <r>   -7.4200    1.0000 </r>
       <r>   -4.8985    1.0000 </r>
       <r>   -4.7627    1.0000 </r>
       <r>    2.0672    0.0000 </r>
       <r>    2.2029    0.0000 </r>
       <r>    6.3916    0.0000 </r>
       <r>    6.4406    0.0000 </r>
      </set>
      <set comment="kpoint 39">
       <r>  -16.7838    1.0000 </r>
       <r>  -16.7756    1.0000 </r>
       <r>  -12.9681    1.0000 </r>
       <r>  -12.9628    1.0000 </r>
       <r>   -7.5267    1.0000 </r>
       <r>   -7.5256    1.0000 </r>
       <r>   -4.4918    1.0000 </r>
       <r>   -4.3638    1.0000 </r>
       <r>    1.4976    0.0000 </r>
       <r>    1.6433    0.0000 </r>
       <r>    6.3663    0.0000 </r>
       <r>    6.3915    0.0000 </r>
      </set>
      <set comment="kpoint 40">
       <r>  -16.3465    1.0000 </r>
       <r>  -16.3386    1.0000 </r>
       <r>  -13.5240    1.0000 </r>
       <r>  -13.5183    1.0000 </r>
       <r>   -7.6065    1.0000 </r>
       <r>   -7.6054    1.0000 </r>
       <r>   -4.1205    1.0000 </r>
       <r>   -4.0010    1.0000 </r>
       <r>    1.0020    0.0000 </r>
       <r>    1.1578    0.0000 </r>
       <r>    6.3323    0.0000 </r>
       <r>    6.3526    0.0000 </r>
      </set>
      <set comment="kpoint 41">
       <r>  -15.9160    1.0000 </r>
       <r>  -15.9083    1.0000 </r>
       <r>  -14.0341    1.0000 </r>
       <r>  -14.0281    1.0000 </r>
       <r>   -7.6600    1.0000 </r>
       <r>   -7.6588    1.0000 </r>
       <r>   -3.8232    1.0000 </r>
       <r>   -3.7120    1.0000 </r>
       <r>    0.6208    0.0000 </r>
       <r>    0.7861    0.0000 </r>
       <r>    6.3073    0.0000 </r>
       <r>    6.3260    0.0000 </r>
      </set>
      <set comment="kpoint 42">
       <r>  -15.5695    1.0000 </r>
       <r>  -15.5620    1.0000 </r>
       <r>  -14.4206    1.0000 </r>
       <r>  -14.4143    1.0000 </r>
       <r>   -7.6869    1.0000 </r>
       <r>   -7.6857    1.0000 </r>
       <r>   -3.6523    1.0000 </r>
       <r>   -3.5467    1.0000 </r>
       <r>    0.4076    0.0000 </r>
       <r>    0.5791    0.0000 </r>
       <r>    6.2943    0.0000 </r>
       <r>    6.3125    0.0000 </r>
      </set>
      <set comment="kpoint 43">
       <r>  -20.6333    1.0000 </r>
       <r>  -20.6217    1.0000 </r>
       <r>   -8.7795    1.0000 </r>
       <r>   -8.5993    1.0000 </r>
       <r>   -4.8681    1.0000 </r>
       <r>   -4.8672    1.0000 </r>
       <r>   -4.5928    1.0000 </r>
       <r>   -4.5922    1.0000 </r>
       <r>    2.1474    0.0000 </r>
       <r>    2.7099    0.0000 </r>
       <r>    3.3430    0.0000 </r>
       <r>    4.2286    0.0000 </r>
      </set>
      <set comment="kpoint 44">
       <r>  -20.5392    1.0000 </r>
       <r>  -20.5277    1.0000 </r>
       <r>   -8.6668    1.0000 </r>
       <r>   -8.4876    1.0000 </r>
       <r>   -5.1998    1.0000 </r>
       <r>   -5.1987    1.0000 </r>
       <r>   -4.7853    1.0000 </r>
       <r>   -4.7846    1.0000 </r>
       <r>    2.2736    0.0000 </r>
       <r>    2.8379    0.0000 </r>
       <r>    3.4712    0.0000 </r>
       <r>    4.3551    0.0000 </r>
      </set>
      <set comment="kpoint 45">
       <r>  -20.4184    1.0000 </r>
       <r>  -20.4070    1.0000 </r>
       <r>   -8.5223    1.0000 </r>
       <r>   -8.3443    1.0000 </r>
       <r>   -5.6052    1.0000 </r>
       <r>   -5.6039    1.0000 </r>
       <r>   -5.0120    1.0000 </r>
       <r>   -5.0111    1.0000 </r>
       <r>    2.4358    0.0000 </r>
       <r>    3.0026    0.0000 </r>
       <r>    3.6360    0.0000 </r>
       <r>    4.5176    0.0000 </r>
      </set>
      <set comment="kpoint 46">
       <r>  -20.2710    1.0000 </r>
       <r>  -20.2597    1.0000 </r>
       <r>   -8.3464    1.0000 </r>
       <r>   -8.1699    1.0000 </r>
       <r>   -6.0730    1.0000 </r>
       <r>   -6.0714    1.0000 </r>
       <r>   -5.2612    1.0000 </r>
       <r>   -5.2603    1.0000 </r>
       <r>    2.6341    0.0000 </r>
       <r>    3.2036    0.0000 </r>
       <r>    3.8372    0.0000 </r>
       <r>    4.7159    0.0000 </r>
      </set>
      <set comment="kpoint 47">
       <r>  -20.0971    1.0000 </r>
       <r>  -20.0860    1.0000 </r>
       <r>   -8.1394    1.0000 </r>
       <r>   -7.9647    1.0000 </r>
       <r>   -6.5915    1.0000 </r>
       <r>   -6.5897    1.0000 </r>
       <r>   -5.5230    1.0000 </r>
       <r>   -5.5220    1.0000 </r>
       <r>    2.8683    0.0000 </r>
       <r>    3.4410    0.0000 </r>
       <r>    4.0746    0.0000 </r>
       <r>    4.9495    0.0000 </r>
      </set>
      <set comment="kpoint 48">
       <r>  -19.8968    1.0000 </r>
       <r>  -19.8859    1.0000 </r>
       <r>   -7.9020    1.0000 </r>
       <r>   -7.7294    1.0000 </r>
       <r>   -7.1494    1.0000 </r>
       <r>   -7.1473    1.0000 </r>
       <r>   -5.7891    1.0000 </r>
       <r>   -5.7881    1.0000 </r>
       <r>    3.1383    0.0000 </r>
       <r>    3.7145    0.0000 </r>
       <r>    4.3479    0.0000 </r>
       <r>    5.2175    0.0000 </r>
      </set>
      <set comment="kpoint 49">
       <r>  -19.6705    1.0000 </r>
       <r>  -19.6598    1.0000 </r>
       <r>   -7.7366    1.0000 </r>
       <r>   -7.7342    1.0000 </r>
       <r>   -7.6348    1.0000 </r>
       <r>   -7.4648    1.0000 </r>
       <r>   -6.0529    1.0000 </r>
       <r>   -6.0518    1.0000 </r>
       <r>    3.4440    0.0000 </r>
       <r>    4.0237    0.0000 </r>
       <r>    4.6562    0.0000 </r>
       <r>    5.5169    0.0000 </r>
      </set>
      <set comment="kpoint 50">
       <r>  -19.4183    1.0000 </r>
       <r>  -19.4078    1.0000 </r>
       <r>   -8.3443    1.0000 </r>
       <r>   -8.3416    1.0000 </r>
       <r>   -7.3389    1.0000 </r>
       <r>   -7.1717    1.0000 </r>
       <r>   -6.3089    1.0000 </r>
       <r>   -6.3078    1.0000 </r>
       <r>    3.7851    0.0000 </r>
       <r>    4.3674    0.0000 </r>
       <r>    4.9960    0.0000 </r>
       <r>    5.8220    0.0000 </r>
      </set>
      <set comment="kpoint 51">
       <r>  -19.1406    1.0000 </r>
       <r>  -19.1304    1.0000 </r>
       <r>   -8.9649    1.0000 </r>
       <r>   -8.9619    1.0000 </r>
       <r>   -7.0154    1.0000 </r>
       <r>   -6.8515    1.0000 </r>
       <r>   -6.5528    1.0000 </r>
       <r>   -6.5516    1.0000 </r>
       <r>    4.1612    0.0000 </r>
       <r>    4.7405    0.0000 </r>
       <r>    5.3230    0.0000 </r>
       <r>    5.6738    0.0000 </r>
      </set>
      <set comment="kpoint 52">
       <r>  -18.8377    1.0000 </r>
       <r>  -18.8277    1.0000 </r>
       <r>   -9.5921    1.0000 </r>
       <r>   -9.5887    1.0000 </r>
       <r>   -6.7811    1.0000 </r>
       <r>   -6.7799    1.0000 </r>
       <r>   -6.6660    1.0000 </r>
       <r>   -6.5058    1.0000 </r>
       <r>    4.5700    0.0000 </r>
       <r>    4.9467    0.0000 </r>
       <r>    4.9776    0.0000 </r>
       <r>    5.2694    0.0000 </r>
      </set>
      <set comment="kpoint 53">
       <r>  -18.5101    1.0000 </r>
       <r>  -18.5005    1.0000 </r>
       <r>  -10.2204    1.0000 </r>
       <r>  -10.2167    1.0000 </r>
       <r>   -6.9912    1.0000 </r>
       <r>   -6.9899    1.0000 </r>
       <r>   -6.2930    1.0000 </r>
       <r>   -6.1371    1.0000 </r>
       <r>    4.2946    0.0000 </r>
       <r>    4.3966    0.0000 </r>
       <r>    5.0202    0.0000 </r>
       <r>    5.6447    0.0000 </r>
      </set>
      <set comment="kpoint 54">
       <r>  -18.1585    1.0000 </r>
       <r>  -18.1491    1.0000 </r>
       <r>  -10.8453    1.0000 </r>
       <r>  -10.8412    1.0000 </r>
       <r>   -7.1806    1.0000 </r>
       <r>   -7.1794    1.0000 </r>
       <r>   -5.8996    1.0000 </r>
       <r>   -5.7486    1.0000 </r>
       <r>    3.6371    0.0000 </r>
       <r>    3.7477    0.0000 </r>
       <r>    5.4967    0.0000 </r>
       <r>    6.1216    0.0000 </r>
      </set>
      <set comment="kpoint 55">
       <r>  -17.7837    1.0000 </r>
       <r>  -17.7746    1.0000 </r>
       <r>  -11.4626    1.0000 </r>
       <r>  -11.4582    1.0000 </r>
       <r>   -7.3479    1.0000 </r>
       <r>   -7.3466    1.0000 </r>
       <r>   -5.4905    1.0000 </r>
       <r>   -5.3451    1.0000 </r>
       <r>    2.9869    0.0000 </r>
       <r>    3.1059    0.0000 </r>
       <r>    6.0004    0.0000 </r>
       <r>    6.5915    0.0000 </r>
      </set>
      <set comment="kpoint 56">
       <r>  -17.3870    1.0000 </r>
       <r>  -17.3782    1.0000 </r>
       <r>  -12.0685    1.0000 </r>
       <r>  -12.0637    1.0000 </r>
       <r>   -7.4914    1.0000 </r>
       <r>   -7.4901    1.0000 </r>
       <r>   -5.0729    1.0000 </r>
       <r>   -4.9338    1.0000 </r>
       <r>    2.3576    0.0000 </r>
       <r>    2.4856    0.0000 </r>
       <r>    6.4685    0.0000 </r>
       <r>    6.6505    0.0000 </r>
      </set>
      <set comment="kpoint 57">
       <r>  -16.9704    1.0000 </r>
       <r>  -16.9621    1.0000 </r>
       <r>  -12.6587    1.0000 </r>
       <r>  -12.6535    1.0000 </r>
       <r>   -7.6101    1.0000 </r>
       <r>   -7.6089    1.0000 </r>
       <r>   -4.6581    1.0000 </r>
       <r>   -4.5263    1.0000 </r>
       <r>    1.7647    0.0000 </r>
       <r>    1.9025    0.0000 </r>
       <r>    6.5594    0.0000 </r>
       <r>    6.5965    0.0000 </r>
      </set>
      <set comment="kpoint 58">
       <r>  -16.5383    1.0000 </r>
       <r>  -16.5303    1.0000 </r>
       <r>  -13.2274    1.0000 </r>
       <r>  -13.2219    1.0000 </r>
       <r>   -7.7033    1.0000 </r>
       <r>   -7.7020    1.0000 </r>
       <r>   -4.2648    1.0000 </r>
       <r>   -4.1412    1.0000 </r>
       <r>    1.2299    0.0000 </r>
       <r>    1.3779    0.0000 </r>
       <r>    6.5288    0.0000 </r>
       <r>    6.5525    0.0000 </r>
      </set>
      <set comment="kpoint 59">
       <r>  -16.1010    1.0000 </r>
       <r>  -16.0933    1.0000 </r>
       <r>  -13.7631    1.0000 </r>
       <r>  -13.7572    1.0000 </r>
       <r>   -7.7703    1.0000 </r>
       <r>   -7.7690    1.0000 </r>
       <r>   -3.9239    1.0000 </r>
       <r>   -3.8088    1.0000 </r>
       <r>    0.7864    0.0000 </r>
       <r>    0.9444    0.0000 </r>
       <r>    6.4993    0.0000 </r>
       <r>    6.5197    0.0000 </r>
      </set>
      <set comment="kpoint 60">
       <r>  -15.6949    1.0000 </r>
       <r>  -15.6874    1.0000 </r>
       <r>  -14.2286    1.0000 </r>
       <r>  -14.2225    1.0000 </r>
       <r>   -7.8107    1.0000 </r>
       <r>   -7.8093    1.0000 </r>
       <r>   -3.6819    1.0000 </r>
       <r>   -3.5742    1.0000 </r>
       <r>    0.4823    0.0000 </r>
       <r>    0.6485    0.0000 </r>
       <r>    6.4803    0.0000 </r>
       <r>    6.4996    0.0000 </r>
      </set>
      <set comment="kpoint 61">
       <r>  -15.4820    1.0000 </r>
       <r>  -15.4746    1.0000 </r>
       <r>  -14.4614    1.0000 </r>
       <r>  -14.4551    1.0000 </r>
       <r>   -7.8241    1.0000 </r>
       <r>   -7.8228    1.0000 </r>
       <r>   -3.5926    1.0000 </r>
       <r>   -3.4879    1.0000 </r>
       <r>    0.3721    0.0000 </r>
       <r>    0.5417    0.0000 </r>
       <r>    6.4738    0.0000 </r>
       <r>    6.4928    0.0000 </r>
      </set>
      <set comment="kpoint 62">
       <r>  -20.4318    1.0000 </r>
       <r>  -20.4204    1.0000 </r>
       <r>   -8.5384    1.0000 </r>
       <r>   -8.3602    1.0000 </r>
       <r>   -5.5428    1.0000 </r>
       <r>   -5.5416    1.0000 </r>
       <r>   -5.0087    1.0000 </r>
       <r>   -5.0079    1.0000 </r>
       <r>    2.4178    0.0000 </r>
       <r>    2.9843    0.0000 </r>
       <r>    3.6177    0.0000 </r>
       <r>    4.4996    0.0000 </r>
      </set>
      <set comment="kpoint 63">
       <r>  -20.2978    1.0000 </r>
       <r>  -20.2865    1.0000 </r>
       <r>   -8.3783    1.0000 </r>
       <r>   -8.2015    1.0000 </r>
       <r>   -5.9503    1.0000 </r>
       <r>   -5.9488    1.0000 </r>
       <r>   -5.2647    1.0000 </r>
       <r>   -5.2638    1.0000 </r>
       <r>    2.5982    0.0000 </r>
       <r>    3.1671    0.0000 </r>
       <r>    3.8007    0.0000 </r>
       <r>    4.6800    0.0000 </r>
      </set>
      <set comment="kpoint 64">
       <r>  -20.1372    1.0000 </r>
       <r>  -20.1261    1.0000 </r>
       <r>   -8.1870    1.0000 </r>
       <r>   -8.0119    1.0000 </r>
       <r>   -6.4151    1.0000 </r>
       <r>   -6.4134    1.0000 </r>
       <r>   -5.5385    1.0000 </r>
       <r>   -5.5375    1.0000 </r>
       <r>    2.8145    0.0000 </r>
       <r>    3.3864    0.0000 </r>
       <r>    4.0201    0.0000 </r>
       <r>    4.8959    0.0000 </r>
      </set>
      <set comment="kpoint 65">
       <r>  -19.9502    1.0000 </r>
       <r>  -19.9392    1.0000 </r>
       <r>   -7.9650    1.0000 </r>
       <r>   -7.7919    1.0000 </r>
       <r>   -6.9285    1.0000 </r>
       <r>   -6.9265    1.0000 </r>
       <r>   -5.8187    1.0000 </r>
       <r>   -5.8176    1.0000 </r>
       <r>    3.0666    0.0000 </r>
       <r>    3.6419    0.0000 </r>
       <r>    4.2755    0.0000 </r>
       <r>    5.1470    0.0000 </r>
      </set>
      <set comment="kpoint 66">
       <r>  -19.7370    1.0000 </r>
       <r>  -19.7263    1.0000 </r>
       <r>   -7.7130    1.0000 </r>
       <r>   -7.5422    1.0000 </r>
       <r>   -7.4803    1.0000 </r>
       <r>   -7.4781    1.0000 </r>
       <r>   -6.0971    1.0000 </r>
       <r>   -6.0959    1.0000 </r>
       <r>    3.3546    0.0000 </r>
       <r>    3.9334    0.0000 </r>
       <r>    4.5665    0.0000 </r>
       <r>    5.4318    0.0000 </r>
      </set>
      <set comment="kpoint 67">
       <r>  -19.4979    1.0000 </r>
       <r>  -19.4874    1.0000 </r>
       <r>   -8.0611    1.0000 </r>
       <r>   -8.0586    1.0000 </r>
       <r>   -7.4317    1.0000 </r>
       <r>   -7.2635    1.0000 </r>
       <r>   -6.3675    1.0000 </r>
       <r>   -6.3663    1.0000 </r>
       <r>    3.6781    0.0000 </r>
       <r>    4.2602    0.0000 </r>
       <r>    4.8916    0.0000 </r>
       <r>    5.7423    0.0000 </r>
      </set>
      <set comment="kpoint 68">
       <r>  -19.2331    1.0000 </r>
       <r>  -19.2228    1.0000 </r>
       <r>   -8.6619    1.0000 </r>
       <r>   -8.6591    1.0000 </r>
       <r>   -7.1221    1.0000 </r>
       <r>   -6.9571    1.0000 </r>
       <r>   -6.6257    1.0000 </r>
       <r>   -6.6244    1.0000 </r>
       <r>    4.0368    0.0000 </r>
       <r>    4.6201    0.0000 </r>
       <r>    5.2403    0.0000 </r>
       <r>    5.8461    0.0000 </r>
      </set>
      <set comment="kpoint 69">
       <r>  -18.9430    1.0000 </r>
       <r>  -18.9330    1.0000 </r>
       <r>   -9.2752    1.0000 </r>
       <r>   -9.2721    1.0000 </r>
       <r>   -6.8682    1.0000 </r>
       <r>   -6.8668    1.0000 </r>
       <r>   -6.7859    1.0000 </r>
       <r>   -6.6243    1.0000 </r>
       <r>    4.4301    0.0000 </r>
       <r>    4.9881    0.0000 </r>
       <r>    5.1984    0.0000 </r>
       <r>    5.3686    0.0000 </r>
      </set>
      <set comment="kpoint 70">
       <r>  -18.6280    1.0000 </r>
       <r>  -18.6182    1.0000 </r>
       <r>   -9.8946    1.0000 </r>
       <r>   -9.8911    1.0000 </r>
       <r>   -7.0921    1.0000 </r>
       <r>   -7.0907    1.0000 </r>
       <r>   -6.4247    1.0000 </r>
       <r>   -6.2672    1.0000 </r>
       <r>    4.5712    0.0000 </r>
       <r>    4.6628    0.0000 </r>
       <r>    4.8634    0.0000 </r>
       <r>    5.4848    0.0000 </r>
      </set>
      <set comment="kpoint 71">
       <r>  -18.2887    1.0000 </r>
       <r>  -18.2792    1.0000 </r>
       <r>  -10.5146    1.0000 </r>
       <r>  -10.5107    1.0000 </r>
       <r>   -7.2955    1.0000 </r>
       <r>   -7.2941    1.0000 </r>
       <r>   -6.0414    1.0000 </r>
       <r>   -5.8884    1.0000 </r>
       <r>    3.9243    0.0000 </r>
       <r>    4.0254    0.0000 </r>
       <r>    5.3230    0.0000 </r>
       <r>    5.9440    0.0000 </r>
      </set>
      <set comment="kpoint 72">
       <r>  -17.9257    1.0000 </r>
       <r>  -17.9166    1.0000 </r>
       <r>  -11.1304    1.0000 </r>
       <r>  -11.1262    1.0000 </r>
       <r>   -7.4765    1.0000 </r>
       <r>   -7.4751    1.0000 </r>
       <r>   -5.6397    1.0000 </r>
       <r>   -5.4919    1.0000 </r>
       <r>    3.2762    0.0000 </r>
       <r>    3.3859    0.0000 </r>
       <r>    5.8169    0.0000 </r>
       <r>    6.4413    0.0000 </r>
      </set>
      <set comment="kpoint 73">
       <r>  -17.5402    1.0000 </r>
       <r>  -17.5314    1.0000 </r>
       <r>  -11.7379    1.0000 </r>
       <r>  -11.7333    1.0000 </r>
       <r>   -7.6339    1.0000 </r>
       <r>   -7.6324    1.0000 </r>
       <r>   -5.2254    1.0000 </r>
       <r>   -5.0835    1.0000 </r>
       <r>    2.6417    0.0000 </r>
       <r>    2.7603    0.0000 </r>
       <r>    6.3356    0.0000 </r>
       <r>    6.8993    0.0000 </r>
      </set>
      <set comment="kpoint 74">
       <r>  -17.1339    1.0000 </r>
       <r>  -17.1254    1.0000 </r>
       <r>  -12.3327    1.0000 </r>
       <r>  -12.3277    1.0000 </r>
       <r>   -7.7665    1.0000 </r>
       <r>   -7.7650    1.0000 </r>
       <r>   -4.8073    1.0000 </r>
       <r>   -4.6721    1.0000 </r>
       <r>    2.0340    0.0000 </r>
       <r>    2.1623    0.0000 </r>
       <r>    6.7851    0.0000 </r>
       <r>    6.9131    0.0000 </r>
      </set>
      <set comment="kpoint 75">
       <r>  -16.7095    1.0000 </r>
       <r>  -16.7013    1.0000 </r>
       <r>  -12.9100    1.0000 </r>
       <r>  -12.9047    1.0000 </r>
       <r>   -7.8735    1.0000 </r>
       <r>   -7.8720    1.0000 </r>
       <r>   -4.3997    1.0000 </r>
       <r>   -4.2722    1.0000 </r>
       <r>    1.4711    0.0000 </r>
       <r>    1.6093    0.0000 </r>
       <r>    6.8333    0.0000 </r>
       <r>    6.8670    0.0000 </r>
      </set>
      <set comment="kpoint 76">
       <r>  -16.2735    1.0000 </r>
       <r>  -16.2657    1.0000 </r>
       <r>  -13.4619    1.0000 </r>
       <r>  -13.4563    1.0000 </r>
       <r>   -7.9543    1.0000 </r>
       <r>   -7.9528    1.0000 </r>
       <r>   -4.0266    1.0000 </r>
       <r>   -3.9076    1.0000 </r>
       <r>    0.9794    0.0000 </r>
       <r>    1.1279    0.0000 </r>
       <r>    6.8048    0.0000 </r>
       <r>    6.8288    0.0000 </r>
      </set>
      <set comment="kpoint 77">
       <r>  -15.8446    1.0000 </r>
       <r>  -15.8371    1.0000 </r>
       <r>  -13.9687    1.0000 </r>
       <r>  -13.9628    1.0000 </r>
       <r>   -8.0084    1.0000 </r>
       <r>   -8.0069    1.0000 </r>
       <r>   -3.7269    1.0000 </r>
       <r>   -3.6161    1.0000 </r>
       <r>    0.5994    0.0000 </r>
       <r>    0.7574    0.0000 </r>
       <r>    6.7808    0.0000 </r>
       <r>    6.8024    0.0000 </r>
      </set>
      <set comment="kpoint 78">
       <r>  -15.4999    1.0000 </r>
       <r>  -15.4925    1.0000 </r>
       <r>  -14.3526    1.0000 </r>
       <r>  -14.3464    1.0000 </r>
       <r>   -8.0355    1.0000 </r>
       <r>   -8.0340    1.0000 </r>
       <r>   -3.5540    1.0000 </r>
       <r>   -3.4487    1.0000 </r>
       <r>    0.3861    0.0000 </r>
       <r>    0.5503    0.0000 </r>
       <r>    6.7681    0.0000 </r>
       <r>    6.7889    0.0000 </r>
      </set>
      <set comment="kpoint 79">
       <r>  -20.1506    1.0000 </r>
       <r>  -20.1394    1.0000 </r>
       <r>   -8.2029    1.0000 </r>
       <r>   -8.0276    1.0000 </r>
       <r>   -6.3475    1.0000 </r>
       <r>   -6.3459    1.0000 </r>
       <r>   -5.5526    1.0000 </r>
       <r>   -5.5515    1.0000 </r>
       <r>    2.7965    0.0000 </r>
       <r>    3.3682    0.0000 </r>
       <r>    4.0019    0.0000 </r>
       <r>    4.8781    0.0000 </r>
      </set>
      <set comment="kpoint 80">
       <r>  -19.9769    1.0000 </r>
       <r>  -19.9659    1.0000 </r>
       <r>   -7.9966    1.0000 </r>
       <r>   -7.8232    1.0000 </r>
       <r>   -6.7956    1.0000 </r>
       <r>   -6.7937    1.0000 </r>
       <r>   -5.8565    1.0000 </r>
       <r>   -5.8553    1.0000 </r>
       <r>    3.0308    0.0000 </r>
       <r>    3.6056    0.0000 </r>
       <r>    4.2393    0.0000 </r>
       <r>    5.1117    0.0000 </r>
      </set>
      <set comment="kpoint 81">
       <r>  -19.7770    1.0000 </r>
       <r>  -19.7662    1.0000 </r>
       <r>   -7.7599    1.0000 </r>
       <r>   -7.5887    1.0000 </r>
       <r>   -7.2905    1.0000 </r>
       <r>   -7.2885    1.0000 </r>
       <r>   -6.1613    1.0000 </r>
       <r>   -6.1600    1.0000 </r>
       <r>    3.3010    0.0000 </r>
       <r>    3.8791    0.0000 </r>
       <r>    4.5126    0.0000 </r>
       <r>    5.3802    0.0000 </r>
      </set>
      <set comment="kpoint 82">
       <r>  -19.5510    1.0000 </r>
       <r>  -19.5404    1.0000 </r>
       <r>   -7.8252    1.0000 </r>
       <r>   -7.8229    1.0000 </r>
       <r>   -7.4936    1.0000 </r>
       <r>   -7.3248    1.0000 </r>
       <r>   -6.4573    1.0000 </r>
       <r>   -6.4558    1.0000 </r>
       <r>    3.6068    0.0000 </r>
       <r>    4.1885    0.0000 </r>
       <r>    4.8212    0.0000 </r>
       <r>    5.6807    0.0000 </r>
      </set>
      <set comment="kpoint 83">
       <r>  -19.2993    1.0000 </r>
       <r>  -19.2889    1.0000 </r>
       <r>   -8.3907    1.0000 </r>
       <r>   -8.3880    1.0000 </r>
       <r>   -7.1986    1.0000 </r>
       <r>   -7.0327    1.0000 </r>
       <r>   -6.7385    1.0000 </r>
       <r>   -6.7370    1.0000 </r>
       <r>    3.9480    0.0000 </r>
       <r>    4.5326    0.0000 </r>
       <r>    5.1615    0.0000 </r>
       <r>    5.9515    0.0000 </r>
      </set>
      <set comment="kpoint 84">
       <r>  -19.0221    1.0000 </r>
       <r>  -19.0120    1.0000 </r>
       <r>   -8.9778    1.0000 </r>
       <r>   -8.9749    1.0000 </r>
       <r>   -7.0016    1.0000 </r>
       <r>   -7.0000    1.0000 </r>
       <r>   -6.8760    1.0000 </r>
       <r>   -6.7134    1.0000 </r>
       <r>    4.3242    0.0000 </r>
       <r>    4.9051    0.0000 </r>
       <r>    5.3882    0.0000 </r>
       <r>    5.5482    0.0000 </r>
      </set>
      <set comment="kpoint 85">
       <r>  -18.7199    1.0000 </r>
       <r>  -18.7100    1.0000 </r>
       <r>   -9.5788    1.0000 </r>
       <r>   -9.5755    1.0000 </r>
       <r>   -7.2443    1.0000 </r>
       <r>   -7.2427    1.0000 </r>
       <r>   -6.5277    1.0000 </r>
       <r>   -6.3688    1.0000 </r>
[...]
       <r>     9.5856     0.3236    23.8292 </r>
       <r>     9.5913     0.3177    23.8310 </r>
       <r>     9.5969     0.3124    23.8328 </r>
       <r>     9.6026     0.3073    23.8346 </r>
       <r>     9.6083     0.3026    23.8363 </r>
       <r>     9.6140     0.2981    23.8380 </r>
       <r>     9.6197     0.2936    23.8396 </r>
       <r>     9.6254     0.2892    23.8413 </r>
       <r>     9.6310     0.2848    23.8429 </r>
       <r>     9.6367     0.2802    23.8445 </r>
       <r>     9.6424     0.2755    23.8461 </r>
       <r>     9.6481     0.2707    23.8476 </r>
       <r>     9.6538     0.2657    23.8491 </r>
       <r>     9.6594     0.2605    23.8506 </r>
       <r>     9.6651     0.2552    23.8520 </r>
       <r>     9.6708     0.2498    23.8535 </r>
       <r>     9.6765     0.2442    23.8548 </r>
       <r>     9.6822     0.2386    23.8562 </r>
       <r>     9.6879     0.2329    23.8575 </r>
       <r>     9.6935     0.2274    23.8588 </r>
       <r>     9.6992     0.2219    23.8601 </r>
       <r>     9.7049     0.2166    23.8613 </r>
       <r>     9.7106     0.2116    23.8625 </r>
       <r>     9.7163     0.2068    23.8637 </r>
       <r>     9.7220     0.2024    23.8648 </r>
       <r>     9.7276     0.1984    23.8660 </r>
       <r>     9.7333     0.1948    23.8671 </r>
       <r>     9.7390     0.1918    23.8682 </r>
       <r>     9.7447     0.1893    23.8692 </r>
       <r>     9.7504     0.1875    23.8703 </r>
       <r>     9.7560     0.1862    23.8714 </r>
       <r>     9.7617     0.1857    23.8724 </r>
       <r>     9.7674     0.1858    23.8735 </r>
       <r>     9.7731     0.1868    23.8745 </r>
       <r>     9.7788     0.1884    23.8756 </r>
       <r>     9.7845     0.1909    23.8767 </r>
       <r>     9.7901     0.1942    23.8778 </r>
       <r>     9.7958     0.1983    23.8789 </r>
       <r>     9.8015     0.2032    23.8801 </r>
       <r>     9.8072     0.2089    23.8813 </r>
       <r>     9.8129     0.2154    23.8825 </r>
       <r>     9.8186     0.2227    23.8838 </r>
       <r>     9.8242     0.2308    23.8851 </r>
       <r>     9.8299     0.2395    23.8864 </r>
       <r>     9.8356     0.2488    23.8878 </r>
       <r>     9.8413     0.2587    23.8893 </r>
       <r>     9.8470     0.2690    23.8908 </r>
       <r>     9.8527     0.2797    23.8924 </r>
       <r>     9.8583     0.2907    23.8941 </r>
       <r>     9.8640     0.3018    23.8958 </r>
       <r>     9.8697     0.3129    23.8976 </r>
       <r>     9.8754     0.3240    23.8994 </r>
       <r>     9.8811     0.3348    23.9013 </r>
       <r>     9.8867     0.3453    23.9033 </r>
       <r>     9.8924     0.3553    23.9053 </r>
       <r>     9.8981     0.3647    23.9074 </r>
       <r>     9.9038     0.3735    23.9095 </r>
       <r>     9.9095     0.3815    23.9117 </r>
       <r>     9.9152     0.3886    23.9139 </r>
       <r>     9.9208     0.3949    23.9161 </r>
       <r>     9.9265     0.4001    23.9184 </r>
       <r>     9.9322     0.4044    23.9207 </r>
       <r>     9.9379     0.4076    23.9230 </r>
       <r>     9.9436     0.4098    23.9253 </r>
       <r>     9.9493     0.4110    23.9277 </r>
       <r>     9.9549     0.4112    23.9300 </r>
       <r>     9.9606     0.4104    23.9323 </r>
       <r>     9.9663     0.4086    23.9347 </r>
       <r>     9.9720     0.4060    23.9370 </r>
       <r>     9.9777     0.4025    23.9392 </r>
       <r>     9.9834     0.3982    23.9415 </r>
       <r>     9.9890     0.3933    23.9437 </r>
       <r>     9.9947     0.3876    23.9459 </r>
       <r>    10.0004     0.3814    23.9481 </r>
       <r>    10.0061     0.3746    23.9502 </r>
       <r>    10.0118     0.3673    23.9523 </r>
       <r>    10.0174     0.3596    23.9544 </r>
       <r>    10.0231     0.3516    23.9564 </r>
       <r>    10.0288     0.3432    23.9583 </r>
       <r>    10.0345     0.3346    23.9602 </r>
       <r>    10.0402     0.3257    23.9621 </r>
       <r>    10.0459     0.3167    23.9639 </r>
       <r>    10.0515     0.3076    23.9656 </r>
       <r>    10.0572     0.2984    23.9673 </r>
       <r>    10.0629     0.2892    23.9690 </r>
       <r>    10.0686     0.2799    23.9706 </r>
       <r>    10.0743     0.2707    23.9721 </r>
       <r>    10.0800     0.2616    23.9736 </r>
       <r>    10.0856     0.2525    23.9750 </r>
       <r>    10.0913     0.2435    23.9764 </r>
       <r>    10.0970     0.2346    23.9777 </r>
       <r>    10.1027     0.2259    23.9790 </r>
       <r>    10.1084     0.2173    23.9802 </r>
       <r>    10.1140     0.2089    23.9814 </r>
       <r>    10.1197     0.2006    23.9826 </r>
       <r>    10.1254     0.1925    23.9837 </r>
       <r>    10.1311     0.1846    23.9847 </r>
       <r>    10.1368     0.1768    23.9857 </r>
       <r>    10.1425     0.1692    23.9867 </r>
       <r>    10.1481     0.1617    23.9876 </r>
       <r>    10.1538     0.1544    23.9885 </r>
       <r>    10.1595     0.1472    23.9893 </r>
       <r>    10.1652     0.1401    23.9901 </r>
       <r>    10.1709     0.1332    23.9909 </r>
       <r>    10.1766     0.1264    23.9916 </r>
       <r>    10.1822     0.1197    23.9923 </r>
       <r>    10.1879     0.1132    23.9929 </r>
       <r>    10.1936     0.1068    23.9935 </r>
       <r>    10.1993     0.1005    23.9941 </r>
       <r>    10.2050     0.0944    23.9946 </r>
       <r>    10.2107     0.0884    23.9951 </r>
       <r>    10.2163     0.0825    23.9956 </r>
       <r>    10.2220     0.0768    23.9960 </r>
       <r>    10.2277     0.0713    23.9964 </r>
       <r>    10.2334     0.0659    23.9968 </r>
       <r>    10.2391     0.0608    23.9972 </r>
       <r>    10.2447     0.0558    23.9975 </r>
       <r>    10.2504     0.0511    23.9978 </r>
       <r>    10.2561     0.0465    23.9980 </r>
       <r>    10.2618     0.0423    23.9983 </r>
       <r>    10.2675     0.0382    23.9985 </r>
       <r>    10.2732     0.0344    23.9987 </r>
       <r>    10.2788     0.0308    23.9989 </r>
       <r>    10.2845     0.0275    23.9990 </r>
       <r>    10.2902     0.0244    23.9991 </r>
       <r>    10.2959     0.0216    23.9993 </r>
       <r>    10.3016     0.0190    23.9994 </r>
       <r>    10.3073     0.0166    23.9995 </r>
       <r>    10.3129     0.0144    23.9996 </r>
       <r>    10.3186     0.0125    23.9996 </r>
       <r>    10.3243     0.0108    23.9997 </r>
       <r>    10.3300     0.0092    23.9997 </r>
       <r>    10.3357     0.0079    23.9998 </r>
       <r>    10.3414     0.0067    23.9998 </r>
       <r>    10.3470     0.0056    23.9999 </r>
       <r>    10.3527     0.0047    23.9999 </r>
       <r>    10.3584     0.0039    23.9999 </r>
       <r>    10.3641     0.0033    23.9999 </r>
       <r>    10.3698     0.0027    23.9999 </r>
       <r>    10.3754     0.0022    24.0000 </r>
       <r>    10.3811     0.0018    24.0000 </r>
       <r>    10.3868     0.0014    24.0000 </r>
       <r>    10.3925     0.0012    24.0000 </r>
       <r>    10.3982     0.0009    24.0000 </r>
       <r>    10.4039     0.0007    24.0000 </r>
       <r>    10.4095     0.0006    24.0000 </r>
       <r>    10.4152     0.0005    24.0000 </r>
       <r>    10.4209     0.0004    24.0000 </r>
       <r>    10.4266     0.0003    24.0000 </r>
       <r>    10.4323     0.0002    24.0000 </r>
       <r>    10.4380     0.0002    24.0000 </r>
       <r>    10.4436     0.0001    24.0000 </r>
       <r>    10.4493     0.0001    24.0000 </r>
       <r>    10.4550     0.0001    24.0000 </r>
       <r>    10.4607     0.0001    24.0000 </r>
       <r>    10.4664     0.0000    24.0000 </r>
       <r>    10.4720     0.0000    24.0000 </r>
       <r>    10.4777     0.0000    24.0000 </r>
       <r>    10.4834     0.0000    24.0000 </r>
       <r>    10.4891     0.0000    24.0000 </r>
       <r>    10.4948     0.0000    24.0000 </r>
       <r>    10.5005     0.0000    24.0000 </r>
       <r>    10.5061     0.0000    24.0000 </r>
       <r>    10.5118     0.0000    24.0000 </r>
       <r>    10.5175     0.0000    24.0000 </r>
       <r>    10.5232     0.0000    24.0000 </r>
       <r>    10.5289     0.0000    24.0000 </r>
       <r>    10.5346     0.0000    24.0000 </r>
       <r>    10.5402     0.0000    24.0000 </r>
       <r>    10.5459     0.0000    24.0000 </r>
       <r>    10.5516     0.0000    24.0000 </r>
       <r>    10.5573     0.0000    24.0000 </r>
       <r>    10.5630     0.0000    24.0000 </r>
       <r>    10.5687     0.0000    24.0000 </r>
       <r>    10.5743     0.0000    24.0000 </r>
       <r>    10.5800     0.0000    24.0000 </r>
       <r>    10.5857     0.0000    24.0000 </r>
       <r>    10.5914     0.0000    24.0000 </r>
       <r>    10.5971     0.0000    24.0000 </r>
       <r>    10.6027     0.0000    24.0000 </r>
       <r>    10.6084     0.0000    24.0000 </r>
       <r>    10.6141     0.0000    24.0000 </r>
       <r>    10.6198     0.0000    24.0000 </r>
       <r>    10.6255     0.0000    24.0000 </r>
       <r>    10.6312     0.0000    24.0000 </r>
       <r>    10.6368     0.0000    24.0000 </r>
       <r>    10.6425     0.0000    24.0000 </r>
       <r>    10.6482     0.0000    24.0000 </r>
       <r>    10.6539     0.0000    24.0000 </r>
       <r>    10.6596     0.0000    24.0000 </r>
       <r>    10.6653     0.0000    24.0000 </r>
       <r>    10.6709     0.0000    24.0000 </r>
       <r>    10.6766     0.0000    24.0000 </r>
       <r>    10.6823     0.0000    24.0000 </r>
       <r>    10.6880     0.0000    24.0000 </r>
       <r>    10.6937     0.0000    24.0000 </r>
       <r>    10.6993     0.0000    24.0000 </r>
       <r>    10.7050     0.0000    24.0000 </r>
       <r>    10.7107     0.0000    24.0000 </r>
       <r>    10.7164     0.0000    24.0000 </r>
       <r>    10.7221     0.0000    24.0000 </r>
       <r>    10.7278     0.0000    24.0000 </r>
       <r>    10.7334     0.0000    24.0000 </r>
       <r>    10.7391     0.0000    24.0000 </r>
       <r>    10.7448     0.0000    24.0000 </r>
       <r>    10.7505     0.0000    24.0000 </r>
       <r>    10.7562     0.0000    24.0000 </r>
       <r>    10.7619     0.0000    24.0000 </r>
       <r>    10.7675     0.0000    24.0000 </r>
       <r>    10.7732     0.0000    24.0000 </r>
       <r>    10.7789     0.0000    24.0000 </r>
       <r>    10.7846     0.0000    24.0000 </r>
       <r>    10.7903     0.0000    24.0000 </r>
       <r>    10.7960     0.0000    24.0000 </r>
       <r>    10.8016     0.0000    24.0000 </r>
       <r>    10.8073     0.0000    24.0000 </r>
       <r>    10.8130     0.0000    24.0000 </r>
       <r>    10.8187     0.0000    24.0000 </r>
       <r>    10.8244     0.0000    24.0000 </r>
       <r>    10.8300     0.0000    24.0000 </r>
       <r>    10.8357     0.0000    24.0000 </r>
       <r>    10.8414     0.0000    24.0000 </r>
       <r>    10.8471     0.0000    24.0000 </r>
       <r>    10.8528     0.0000    24.0000 </r>
       <r>    10.8585     0.0000    24.0000 </r>
       <r>    10.8641     0.0000    24.0000 </r>
       <r>    10.8698     0.0000    24.0000 </r>
       <r>    10.8755     0.0000    24.0000 </r>
       <r>    10.8812     0.0000    24.0000 </r>
       <r>    10.8869     0.0000    24.0000 </r>
       <r>    10.8926     0.0000    24.0000 </r>
       <r>    10.8982     0.0000    24.0000 </r>
       <r>    10.9039     0.0000    24.0000 </r>
       <r>    10.9096     0.0000    24.0000 </r>
       <r>    10.9153     0.0000    24.0000 </r>
       <r>    10.9210     0.0000    24.0000 </r>
       <r>    10.9267     0.0000    24.0000 </r>
       <r>    10.9323     0.0000    24.0000 </r>
       <r>    10.9380     0.0000    24.0000 </r>
       <r>    10.9437     0.0000    24.0000 </r>
       <r>    10.9494     0.0000    24.0000 </r>
       <r>    10.9551     0.0000    24.0000 </r>
       <r>    10.9607     0.0000    24.0000 </r>
       <r>    10.9664     0.0000    24.0000 </r>
       <r>    10.9721     0.0000    24.0000 </r>
       <r>    10.9778     0.0000    24.0000 </r>
       <r>    10.9835     0.0000    24.0000 </r>
       <r>    10.9892     0.0000    24.0000 </r>
       <r>    10.9948     0.0000    24.0000 </r>
       <r>    11.0005     0.0000    24.0000 </r>
       <r>    11.0062     0.0000    24.0000 </r>
       <r>    11.0119     0.0000    24.0000 </r>
       <r>    11.0176     0.0000    24.0000 </r>
       <r>    11.0233     0.0000    24.0000 </r>
       <r>    11.0289     0.0000    24.0000 </r>
       <r>    11.0346     0.0000    24.0000 </r>
       <r>    11.0403     0.0000    24.0000 </r>
       <r>    11.0460     0.0000    24.0000 </r>
       <r>    11.0517     0.0000    24.0000 </r>
       <r>    11.0573     0.0000    24.0000 </r>
       <r>    11.0630     0.0000    24.0000 </r>
       <r>    11.0687     0.0000    24.0000 </r>
       <r>    11.0744     0.0000    24.0000 </r>
       <r>    11.0801     0.0000    24.0000 </r>
       <r>    11.0858     0.0000    24.0000 </r>
       <r>    11.0914     0.0000    24.0000 </r>
       <r>    11.0971     0.0000    24.0000 </r>
       <r>    11.1028     0.0000    24.0000 </r>
       <r>    11.1085     0.0000    24.0000 </r>
       <r>    11.1142     0.0000    24.0000 </r>
       <r>    11.1199     0.0000    24.0000 </r>
       <r>    11.1255     0.0000    24.0000 </r>
       <r>    11.1312     0.0000    24.0000 </r>
       <r>    11.1369     0.0000    24.0000 </r>
       <r>    11.1426     0.0000    24.0000 </r>
       <r>    11.1483     0.0000    24.0000 </r>
       <r>    11.1540     0.0000    24.0000 </r>
       <r>    11.1596     0.0000    24.0000 </r>
       <r>    11.1653     0.0000    24.0000 </r>
       <r>    11.1710     0.0000    24.0000 </r>
       <r>    11.1767     0.0000    24.0000 </r>
       <r>    11.1824     0.0000    24.0000 </r>
       <r>    11.1880     0.0000    24.0000 </r>
       <r>    11.1937     0.0000    24.0000 </r>
       <r>    11.1994     0.0000    24.0000 </r>
       <r>    11.2051     0.0000    24.0000 </r>
       <r>    11.2108     0.0000    24.0000 </r>
       <r>    11.2165     0.0000    24.0000 </r>
       <r>    11.2221     0.0000    24.0000 </r>
       <r>    11.2278     0.0000    24.0000 </r>
       <r>    11.2335     0.0000    24.0000 </r>
       <r>    11.2392     0.0000    24.0000 </r>
       <r>    11.2449     0.0000    24.0000 </r>
       <r>    11.2506     0.0000    24.0000 </r>
       <r>    11.2562     0.0000    24.0000 </r>
       <r>    11.2619     0.0000    24.0000 </r>
       <r>    11.2676     0.0000    24.0000 </r>
       <r>    11.2733     0.0000    24.0000 </r>
       <r>    11.2790     0.0000    24.0000 </r>
       <r>    11.2847     0.0000    24.0000 </r>
       <r>    11.2903     0.0000    24.0000 </r>
       <r>    11.2960     0.0000    24.0000 </r>
       <r>    11.3017     0.0000    24.0000 </r>
       <r>    11.3074     0.0000    24.0000 </r>
       <r>    11.3131     0.0000    24.0000 </r>
       <r>    11.3187     0.0000    24.0000 </r>
       <r>    11.3244     0.0000    24.0000 </r>
       <r>    11.3301     0.0000    24.0000 </r>
       <r>    11.3358     0.0000    24.0000 </r>
       <r>    11.3415     0.0000    24.0000 </r>
       <r>    11.3472     0.0000    24.0000 </r>
       <r>    11.3528     0.0000    24.0000 </r>
       <r>    11.3585     0.0000    24.0000 </r>
       <r>    11.3642     0.0000    24.0000 </r>
       <r>    11.3699     0.0000    24.0000 </r>
       <r>    11.3756     0.0000    24.0000 </r>
       <r>    11.3813     0.0000    24.0000 </r>
       <r>    11.3869     0.0000    24.0000 </r>
       <r>    11.3926     0.0000    24.0000 </r>
       <r>    11.3983     0.0000    24.0000 </r>
       <r>    11.4040     0.0000    24.0000 </r>
       <r>    11.4097     0.0000    24.0000 </r>
       <r>    11.4153     0.0000    24.0000 </r>
       <r>    11.4210     0.0000    24.0000 </r>
       <r>    11.4267     0.0000    24.0000 </r>
       <r>    11.4324     0.0000    24.0000 </r>
       <r>    11.4381     0.0000    24.0000 </r>
       <r>    11.4438     0.0000    24.0000 </r>
       <r>    11.4494     0.0000    24.0000 </r>
       <r>    11.4551     0.0000    24.0000 </r>
       <r>    11.4608     0.0000    24.0000 </r>
       <r>    11.4665     0.0000    24.0000 </r>
       <r>    11.4722     0.0000    24.0000 </r>
       <r>    11.4779     0.0000    24.0000 </r>
       <r>    11.4835     0.0000    24.0000 </r>
       <r>    11.4892     0.0000    24.0000 </r>
       <r>    11.4949     0.0000    24.0000 </r>
       <r>    11.5006     0.0000    24.0000 </r>
       <r>    11.5063     0.0000    24.0000 </r>
       <r>    11.5120     0.0000    24.0000 </r>
       <r>    11.5176     0.0000    24.0000 </r>
       <r>    11.5233     0.0000    24.0000 </r>
       <r>    11.5290     0.0000    24.0000 </r>
       <r>    11.5347     0.0000    24.0000 </r>
       <r>    11.5404     0.0000    24.0000 </r>
       <r>    11.5460     0.0000    24.0000 </r>
       <r>    11.5517     0.0000    24.0000 </r>
       <r>    11.5574     0.0000    24.0000 </r>
       <r>    11.5631     0.0000    24.0000 </r>
       <r>    11.5688     0.0000    24.0000 </r>
       <r>    11.5745     0.0000    24.0000 </r>
       <r>    11.5801     0.0000    24.0000 </r>
       <r>    11.5858     0.0000    24.0000 </r>
       <r>    11.5915     0.0000    24.0000 </r>
       <r>    11.5972     0.0000    24.0000 </r>
       <r>    11.6029     0.0000    24.0000 </r>
       <r>    11.6086     0.0000    24.0000 </r>
       <r>    11.6142     0.0000    24.0000 </r>
       <r>    11.6199     0.0000    24.0000 </r>
       <r>    11.6256     0.0000    24.0000 </r>
       <r>    11.6313     0.0000    24.0000 </r>
       <r>    11.6370     0.0000    24.0000 </r>
       <r>    11.6427     0.0000    24.0000 </r>
       <r>    11.6483     0.0000    24.0000 </r>
       <r>    11.6540     0.0000    24.0000 </r>
       <r>    11.6597     0.0000    24.0000 </r>
       <r>    11.6654     0.0000    24.0000 </r>
       <r>    11.6711     0.0000    24.0000 </r>
       <r>    11.6767     0.0000    24.0000 </r>
       <r>    11.6824     0.0000    24.0000 </r>
       <r>    11.6881     0.0000    24.0000 </r>
       <r>    11.6938     0.0000    24.0000 </r>
       <r>    11.6995     0.0000    24.0000 </r>
       <r>    11.7052     0.0000    24.0000 </r>
       <r>    11.7108     0.0000    24.0000 </r>
       <r>    11.7165     0.0000    24.0000 </r>
       <r>    11.7222     0.0000    24.0000 </r>
       <r>    11.7279     0.0000    24.0000 </r>
       <r>    11.7336     0.0000    24.0000 </r>
       <r>    11.7393     0.0000    24.0000 </r>
       <r>    11.7449     0.0000    24.0000 </r>
       <r>    11.7506     0.0000    24.0000 </r>
      </set>
     </set>
    </array>
   </total>
  </dos>
 </calculation>
 <structure name="finalpos" >
  <crystal>
   <varray name="basis" >
    <v>       2.13000000      -1.22975600       0.00000000 </v>
    <v>       2.13000000       1.22975600       0.00000000 </v>
    <v>       0.00000000       0.00000000      20.00000000 </v>
   </varray>
   <i name="volume">    104.77521120 </i>
   <varray name="rec_basis" >
    <v>       0.23474178      -0.40658472       0.00000000 </v>
    <v>       0.23474178       0.40658472       0.00000000 </v>
    <v>       0.00000000       0.00000000       0.05000000 </v>
   </varray>
  </crystal>
  <varray name="positions" >
   <v>       0.00000000       0.00000000       0.00000000 </v>
   <v>       0.33333300       0.33333300       0.00000000 </v>
   <v>       0.00000000       0.00000000       0.22193400 </v>
   <v>       0.33333300       0.33333300       0.22193400 </v>
  </varray>
  <varray name="selective"  type="logical" >
   <v type="logical" >  F  F  F </v>
   <v type="logical" >  F  F  F </v>
   <v type="logical" >  F  F  T </v>
   <v type="logical" >  F  F  T </v>
  </varray>
  <nose>
   <v>      -3.00000000       0.00000000       0.00010000       0.00010000 </v>
  </nose>
 </structure>
</modeling>
