    2    2    1    1
  0.5238761E+02  0.2459512E-09  0.2459512E-09  0.2000000E-08  0.5000000E-15
  1.000000000000000E-004
  CAR 
 C-2                                     
      8    169     12
 
  0.3742002E-15  0.3742002E-15  0.1262379E-14  0.5668934E-03
    1      -22.297020   1.000000
    2      -10.390160   1.000000
    3       -5.750030   1.000000
    4       -5.749971   1.000000
    5        0.526644   0.000000
    6        1.328426   0.000000
    7        1.696845   0.000000
    8        2.604363   0.000000
    9        3.067692   0.000000
   10        4.727724   0.000000
   11        5.349361   0.000000
   12        5.650188   0.000000
 
  0.2380952E-01  0.3750413E-15  0.1262379E-14  0.3401361E-02
    1      -22.283560   1.000000
    2      -10.374046   1.000000
    3       -5.805942   1.000000
    4       -5.779750   1.000000
    5        0.544912   0.000000
    6        1.346942   0.000000
    7        1.715581   0.000000
    8        2.622939   0.000000
    9        3.086200   0.000000
   10        4.746115   0.000000
   11        5.366236   0.000000
   12        5.660304   0.000000
 
  0.4761905E-01  0.3771171E-15  0.1262379E-14  0.3401361E-02
    1      -22.243185   1.000000
    2      -10.325741   1.000000
    3       -5.970879   1.000000
    4       -5.866864   1.000000
    5        0.599721   0.000000
    6        1.402484   0.000000
    7        1.771789   0.000000
    8        2.678661   0.000000
    9        3.141731   0.000000
   10        4.801273   0.000000
   11        5.416393   0.000000
   12        5.687619   0.000000
 
  0.7142857E-01  0.3718030E-15  0.1262379E-14  0.3401361E-02
    1      -22.175934   1.000000
    2      -10.245319   1.000000
    3       -6.236489   1.000000
    4       -6.005368   1.000000
    5        0.691080   0.000000
    6        1.495032   0.000000
    7        1.865472   0.000000
    8        2.771514   0.000000
    9        3.234293   0.000000
   10        4.893164   0.000000
   11        5.497182   0.000000
   12        5.726091   0.000000
 
  0.9523810E-01  0.3768972E-15  0.1262379E-14  0.3401361E-02
    1      -22.081860   1.000000
    2      -10.132971   1.000000
    3       -6.590753   1.000000
    4       -6.186654   1.000000
    5        0.818997   0.000000
    6        1.624545   0.000000
    7        1.996632   0.000000
    8        2.901467   0.000000
    9        3.363888   0.000000
   10        5.021710   0.000000
   11        5.596227   0.000000
   12        5.776927   0.000000
 
  0.1190476E+00  0.3690156E-15  0.1262379E-14  0.3401361E-02
    1      -21.961052   1.000000
    2       -9.988949   1.000000
    3       -7.019981   1.000000
    4       -6.400894   1.000000
    5        0.983463   0.000000
    6        1.790963   0.000000
    7        2.165269   0.000000
    8        3.068469   0.000000
    9        3.530498   0.000000
   10        5.186763   0.000000
   11        5.668541   0.000000
   12        5.875464   0.000000
 
  0.1428571E+00  0.3593300E-15  0.1262379E-14  0.3401361E-02
    1      -21.813612   1.000000
    2       -9.813572   1.000000
    3       -7.510139   1.000000
    4       -6.638287   1.000000
    5        1.184452   0.000000
    6        1.994185   0.000000
    7        2.371381   0.000000
    8        3.272432   0.000000
    9        3.734060   0.000000
   10        5.387982   0.000000
   11        5.680545   0.000000
   12        6.049692   0.000000
 
  0.1666667E+00  0.3574853E-15  0.1262379E-14  0.3401361E-02
    1      -21.639688   1.000000
    2       -9.607292   1.000000
    3       -8.048264   1.000000
    4       -6.889657   1.000000
    5        1.421911   0.000000
    6        2.234047   0.000000
    7        2.614962   0.000000
    8        3.513189   0.000000
    9        3.974434   0.000000
   10        5.624140   0.000000
   11        5.652990   0.000000
   12        6.277719   0.000000
 
  0.1904762E+00  0.3695184E-15  0.1262379E-14  0.3401361E-02
    1      -21.439442   1.000000
    2       -9.370683   1.000000
    3       -8.622763   1.000000
    4       -7.147045   1.000000
    5        1.695767   0.000000
    6        2.510237   0.000000
    7        2.896000   0.000000
    8        3.790346   0.000000
    9        4.251298   0.000000
   10        5.600070   0.000000
   11        5.879166   0.000000
   12        6.162131   0.000000
 
  0.2142857E+00  0.3824535E-15  0.1262379E-14  0.3401361E-02
    1      -21.213083   1.000000
    2       -9.223632   1.000000
    3       -9.104473   1.000000
    4       -7.403721   1.000000
    5        2.005908   0.000000
    6        2.822051   0.000000
    7        3.214474   0.000000
    8        4.102542   0.000000
    9        4.563739   0.000000
   10        5.530375   0.000000
   11        5.530810   0.000000
   12        6.227143   0.000000
 
  0.2380952E+00  0.1267399E-14  0.1262379E-14  0.3401361E-02
    1      -20.960854   1.000000
    2       -9.842399   1.000000
    3       -8.809652   1.000000
    4       -7.654048   1.000000
    5        2.352182   0.000000
    6        3.167244   0.000000
    7        3.570345   0.000000
    8        4.437529   0.000000
    9        4.907758   0.000000
   10        4.928838   0.000000
   11        5.454168   0.000000
   12        6.568951   0.000000
 
  0.2619048E+00  0.3644006E-15  0.1262379E-14  0.3401361E-02
    1      -20.683072   1.000000
    2      -10.471959   1.000000
    3       -8.487471   1.000000
    4       -7.893506   1.000000
    5        2.734356   0.000000
    6        3.530922   0.000000
    7        3.963516   0.000000
    8        4.255615   0.000000
    9        4.872534   0.000000
   10        5.229386   0.000000
   11        5.431024   0.000000
   12        6.950787   0.000000
 
  0.2857143E+00  0.3625559E-15  0.1262379E-14  0.3401361E-02
    1      -20.380109   1.000000
    2      -11.106336   1.000000
    3       -8.139635   1.000000
    4       -8.118419   1.000000
    5        3.152039   0.000000
    6        3.504743   0.000000
    7        4.052628   0.000000
    8        4.393651   0.000000
    9        5.232616   0.000000
   10        5.285788   0.000000
   11        5.762111   0.000000
   12        7.368927   0.000000
 
  0.3095238E+00  0.3329557E-15  0.1262379E-14  0.3401361E-02
    1      -20.052434   1.000000
    2      -11.740436   1.000000
    3       -8.325812   1.000000
    4       -7.768453   1.000000
    5        2.875349   0.000000
    6        3.604428   0.000000
    7        4.473667   0.000000
    8        4.857894   0.000000
    9        5.156816   0.000000
   10        5.745322   0.000000
   11        6.215320   0.000000
   12        7.822336   0.000000
 
  0.3333333E+00  0.3588666E-15  0.1262379E-14  0.3401361E-02
    1      -19.700677   1.000000
    2      -12.369950   1.000000
    3       -8.513325   1.000000
    4       -7.377227   1.000000
    5        2.215637   0.000000
    6        4.089142   0.000000
    7        4.962404   0.000000
    8        5.065780   0.000000
    9        5.376295   0.000000
   10        6.242801   0.000000
   11        6.711977   0.000000
   12        8.310130   0.000000
 
  0.3571429E+00  0.3570219E-15  0.1262379E-14  0.3401361E-02
    1      -19.325676   1.000000
    2      -12.990956   1.000000
    3       -8.679050   1.000000
    4       -6.970735   1.000000
    5        1.563575   0.000000
    6        4.591091   0.000000
    7        5.015159   0.000000
    8        5.491058   0.000000
    9        5.915441   0.000000
   10        6.776882   0.000000
   11        7.246929   0.000000
   12        8.831150   0.000000
 
  0.3809524E+00  0.3551772E-15  0.1262379E-14  0.3401361E-02
    1      -18.928685   1.000000
    2      -13.599775   1.000000
    3       -8.821490   1.000000
    4       -6.556275   1.000000
    5        0.933687   0.000000
    6        4.859972   0.000000
    7        5.237945   0.000000
    8        6.056132   0.000000
    9        6.495212   0.000000
   10        7.346865   0.000000
   11        7.818952   0.000000
   12        9.383495   0.000000
 
  0.4047619E+00  0.3828922E-15  0.1262379E-14  0.3401361E-02
    1      -18.511820   1.000000
    2      -14.192363   1.000000
    3       -8.939484   1.000000
    4       -6.145372   1.000000
    5        0.341711   0.000000
    6        4.831079   0.000000
    7        5.802934   0.000000
    8        6.656101   0.000000
    9        7.112790   0.000000
   10        7.952032   0.000000
   11        8.427405   0.000000
   12        9.963218   0.000000
 
  0.4285714E+00  0.3810475E-15  0.1262379E-14  0.3401361E-02
    1      -18.079253   1.000000
    2      -14.763079   1.000000
    3       -9.032116   1.000000
    4       -5.756853   1.000000
    5       -0.190573   0.000000
    6        4.790353   0.000000
    7        6.424983   0.000000
    8        7.289551   0.000000
    9        7.767788   0.000000
   10        8.591277   0.000000
   11        9.071623   0.000000
   12       10.555884   0.000000
 
  0.4523810E+00  0.3514472E-15  0.1262379E-14  0.3401361E-02
    1      -17.641389   1.000000
    2      -15.300367   1.000000
    3       -9.098730   1.000000
    4       -5.421242   1.000000
    5       -0.630339   0.000000
    6        4.758574   0.000000
    7        7.083079   0.000000
    8        7.954463   0.000000
    9        8.459990   0.000000
   10        9.261914   0.000000
   11        9.747627   0.000000
   12       10.014261   0.000000
 
  0.4761905E+00  0.3496025E-15  0.1262379E-14  0.3401361E-02
    1      -17.234469   1.000000
    2      -15.767235   1.000000
    3       -9.138869   1.000000
    4       -5.184175   1.000000
    5       -0.930505   0.000000
    6        4.738864   0.000000
    7        7.772155   0.000000
    8        8.646401   0.000000
    9        9.184441   0.000000
   10        9.250985   0.000000
   11        9.923007   0.000000
   12       10.174991   0.000000
 
  0.5000000E+00  0.3719052E-15  0.1262379E-14  0.1700680E-02
    1      -17.020932   1.000000
    2      -16.000811   1.000000
    3       -9.152292   1.000000
    4       -5.096900   1.000000
    5       -1.038908   0.000000
    6        4.732199   0.000000
    7        8.419916   0.000000
    8        8.572779   0.000000
    9        9.270793   0.000000
   10        9.473524   0.000000
   11        9.951766   0.000000
   12        9.960527   0.000000
 
  0.4761905E-01  0.2380952E-01  0.1262379E-14  0.3401361E-02
    1      -22.256641   1.000000
    2      -10.341835   1.000000
    3       -5.915330   1.000000
    4       -5.839223   1.000000
    5        0.581451   0.000000
    6        1.383972   0.000000
    7        1.753053   0.000000
    8        2.660088   0.000000
    9        3.123220   0.000000
   10        4.782889   0.000000
   11        5.399822   0.000000
   12        5.681949   0.000000
 
  0.7142857E-01  0.2380952E-01  0.1262379E-14  0.6802721E-02
    1      -22.202829   1.000000
    2      -10.277473   1.000000
    3       -6.127757   1.000000
    4       -5.954898   1.000000
    5        0.654536   0.000000
    6        1.458016   0.000000
    7        1.827999   0.000000
    8        2.734376   0.000000
    9        3.197269   0.000000
   10        4.856415   0.000000
   11        5.466001   0.000000
   12        5.721809   0.000000
 
  0.9523810E-01  0.2380952E-01  0.1262379E-14  0.6802721E-02
    1      -22.122165   1.000000
    2      -10.181086   1.000000
    3       -6.433933   1.000000
    4       -6.118593   1.000000
    5        0.764180   0.000000
    6        1.569048   0.000000
    7        1.940422   0.000000
    8        2.845781   0.000000
    9        3.308357   0.000000
   10        4.966640   0.000000
   11        5.560012   0.000000
   12        5.772075   0.000000
 
  0.1190476E+00  0.2380952E-01  0.1262379E-14  0.6802721E-02
    1      -22.014725   1.000000
    2      -10.052896   1.000000
    3       -6.821671   1.000000
    4       -6.320468   1.000000
    5        0.910381   0.000000
    6        1.717017   0.000000
    7        2.090322   0.000000
    8        2.994262   0.000000
    9        3.456478   0.000000
   10        5.113459   0.000000
   11        5.660428   0.000000
   12        5.841606   0.000000
 
  0.1428571E+00  0.2380952E-01  0.1262379E-14  0.6802721E-02
    1      -21.880601   1.000000
    2       -9.893190   1.000000
    3       -7.277477   1.000000
    4       -6.550271   1.000000
    5        1.093123   0.000000
    6        1.901846   0.000000
    7        2.277698   0.000000
    8        3.179755   0.000000
    9        3.641598   0.000000
   10        5.296663   0.000000
   11        5.715111   0.000000
   12        5.973628   0.000000
 
  0.1666667E+00  0.2380952E-01  0.1262379E-14  0.6802721E-02
    1      -21.719921   1.000000
    2       -9.702348   1.000000
    3       -7.788137   1.000000
    4       -6.798241   1.000000
    5        1.312366   0.000000
    6        2.123409   0.000000
    7        2.502549   0.000000
    8        3.402143   0.000000
    9        3.863628   0.000000
   10        5.515665   0.000000
   11        5.714222   0.000000
   12        6.174070   0.000000
 
  0.1904762E+00  0.2380952E-01  0.1262379E-14  0.6802721E-02
    1      -21.532836   1.000000
    2       -9.480873   1.000000
    3       -8.341462   1.000000
    4       -7.055707   1.000000
    5        1.568048   0.000000
    6        2.381485   0.000000
    7        2.764863   0.000000
    8        3.661181   0.000000
    9        4.122374   0.000000
   10        5.678784   0.000000
   11        5.767143   0.000000
   12        6.405662   0.000000
 
  0.2142857E+00  0.2380952E-01  0.1262379E-14  0.6802721E-02
    1      -21.319532   1.000000
    2       -9.229421   1.000000
    3       -8.926657   1.000000
    4       -7.315306   1.000000
    5        1.860077   0.000000
    6        2.675626   0.000000
    7        3.064628   0.000000
    8        3.956190   0.000000
    9        4.417358   0.000000
   10        5.620379   0.000000
   11        5.797146   0.000000
   12        6.092927   0.000000
 
  0.2380952E+00  0.2380952E-01  0.1262379E-14  0.6802721E-02
    1      -21.080240   1.000000
    2       -9.534444   1.000000
    3       -8.948840   1.000000
    4       -7.570894   1.000000
    5        2.188326   0.000000
    6        3.004652   0.000000
    7        3.401816   0.000000
    8        4.283800   0.000000
    9        4.747039   0.000000
   10        5.210320   0.000000
   11        5.547955   0.000000
   12        6.404937   0.000000
 
  0.2619048E+00  0.2380952E-01  0.1262379E-14  0.6802721E-02
    1      -20.815233   1.000000
    2      -10.156983   1.000000
    3       -8.640233   1.000000
    4       -7.817478   1.000000
    5        2.552612   0.000000
    6        3.363512   0.000000
    7        3.776371   0.000000
    8        4.501620   0.000000
    9        4.735671   0.000000
   10        5.101977   0.000000
   11        5.477275   0.000000
   12        6.767973   0.000000
 
  0.2857143E+00  0.2380952E-01  0.1262379E-14  0.6802721E-02
    1      -20.524858   1.000000
    2      -10.787657   1.000000
    3       -8.305056   1.000000
    4       -8.050990   1.000000
    5        2.952648   0.000000
    6        3.666794   0.000000
    7        4.005515   0.000000
    8        4.188141   0.000000
    9        5.084414   0.000000
   10        5.313393   0.000000
   11        5.582720   0.000000
   12        7.168053   0.000000
 
  0.3095238E+00  0.2380952E-01  0.1262379E-14  0.6802721E-02
    1      -20.209533   1.000000
    2      -11.420875   1.000000
    3       -8.268176   1.000000
    4       -7.945279   1.000000
    5        3.191437   0.000000
    6        3.387923   0.000000
    7        4.260243   0.000000
    8        4.636446   0.000000
    9        5.253893   0.000000
   10        5.523725   0.000000
   11        5.997070   0.000000
   12        7.603723   0.000000
 
  0.3333333E+00  0.2380952E-01  0.1262379E-14  0.6802721E-02
    1      -19.869794   1.000000
    2      -12.051873   1.000000
    3       -8.466426   1.000000
    4       -7.563642   1.000000
    5        2.537447   0.000000
    6        3.857245   0.000000
    7        4.725026   0.000000
    8        5.100133   0.000000
    9        5.196686   0.000000
   10        6.002521   0.000000
   11        6.472806   0.000000
   12        8.074111   0.000000
 
  0.3571429E+00  0.2380952E-01  0.1262379E-14  0.6802721E-02
    1      -19.506367   1.000000
    2      -12.676541   1.000000
    3       -8.643646   1.000000
    4       -7.164108   1.000000
    5        1.881002   0.000000
    6        4.356123   0.000000
    7        5.094672   0.000000
    8        5.234557   0.000000
    9        5.654455   0.000000
   10        6.518305   0.000000
   11        6.988700   0.000000
   12        8.578194   0.000000
 
  0.3809524E+00  0.2380952E-01  0.1262379E-14  0.6802721E-02
    1      -19.120277   1.000000
    2      -13.291071   1.000000
    3       -8.798212   1.000000
    4       -6.752531   1.000000
    5        1.239614   0.000000
    6        4.831421   0.000000
    7        5.090048   0.000000
    8        5.781517   0.000000
    9        6.214632   0.000000
   10        7.070238   0.000000
   11        7.542203   0.000000
   12        9.114424   0.000000
 
  0.4047619E+00  0.2380952E-01  0.1262379E-14  0.6802721E-02
    1      -18.713111   1.000000
    2      -13.891623   1.000000
    3       -8.928766   1.000000
    4       -6.338029   1.000000
    5        0.627558   0.000000
    6        4.911008   0.000000
    7        5.524209   0.000000
    8        6.363916   0.000000
    9        6.813353   0.000000
   10        7.657639   0.000000
   11        8.132446   0.000000
   12        9.679958   0.000000
 
  0.4285714E+00  0.2380952E-01  0.1262379E-14  0.6802721E-02
    1      -18.287794   1.000000
    2      -14.473608   1.000000
    3       -9.034333   1.000000
    4       -5.935231   1.000000
    5        0.062948   0.000000
    6        4.871221   0.000000
    7        6.122584   0.000000
    8        6.980365   0.000000
    9        7.449650   0.000000
   10        8.279604   0.000000
   11        8.758808   0.000000
   12       10.267411   0.000000
 
  0.4523810E+00  0.2380952E-01  0.1262379E-14  0.6802721E-02
    1      -17.850672   1.000000
    2      -15.029317   1.000000
    3       -9.114132   1.000000
    4       -5.568194   1.000000
    5       -0.427581   0.000000
    6        4.834495   0.000000
    7        6.763075   0.000000
    8        7.629157   0.000000
    9        8.123263   0.000000
   10        8.934408   0.000000
   11        9.420266   0.000000
   12       10.405563   0.000000
 
  0.4761905E+00  0.2380952E-01  0.1262379E-14  0.6802721E-02
    1      -17.420290   1.000000
    2      -15.539261   1.000000
    3       -9.167627   1.000000
    4       -5.275019   1.000000
    5       -0.804086   0.000000
    6        4.808600   0.000000
    7        7.436989   0.000000
    8        8.307293   0.000000
    9        8.833858   0.000000
   10        9.615144   0.000000
   11        9.634874   0.000000
   12       10.121058   0.000000
 
  0.5000000E+00  0.2380952E-01  0.1262379E-14  0.6802721E-02
    1      -17.073871   1.000000
    2      -15.925610   1.000000
    3       -9.194457   1.000000
    4       -5.106895   1.000000
    5       -1.014148   0.000000
    6        4.795362   0.000000
    7        8.137391   0.000000
    8        8.885908   0.000000
    9        9.003656   0.000000
   10        9.582566   0.000000
   11        9.752607   0.000000
   12       10.358631   0.000000
 
  0.9523810E-01  0.4761905E-01  0.1262379E-14  0.3401361E-02
    1      -22.135605   1.000000
    2      -10.197144   1.000000
    3       -6.375864   1.000000
    4       -6.100682   1.000000
    5        0.745910   0.000000
    6        1.550547   0.000000
    7        1.921685   0.000000
    8        2.827217   0.000000
    9        3.289851   0.000000
   10        4.948279   0.000000
   11        5.547516   0.000000
   12        5.785166   0.000000
 
  0.1190476E+00  0.4761905E-01  0.1262379E-14  0.6802721E-02
    1      -22.041574   1.000000
    2      -10.084909   1.000000
    3       -6.707403   1.000000
    4       -6.293143   1.000000
    5        0.873850   0.000000
    6        1.680038   0.000000
    7        2.052850   0.000000
    8        2.957154   0.000000
    9        3.419485   0.000000
   10        5.076796   0.000000
   11        5.654875   0.000000
   12        5.864140   0.000000
 
  0.1428571E+00  0.4761905E-01  0.1262379E-14  0.6802721E-02
    1      -21.920822   1.000000
    2       -9.941025   1.000000
    3       -7.112698   1.000000
    4       -6.519747   1.000000
    5        1.038347   0.000000
    6        1.846429   0.000000
    7        2.221493   0.000000
    8        3.124139   0.000000
    9        3.586160   0.000000
   10        5.241833   0.000000
   11        5.763594   0.000000
   12        5.963779   0.000000
 
  0.1666667E+00  0.4761905E-01  0.1262379E-14  0.6802721E-02
    1      -21.773454   1.000000
    2       -9.765827   1.000000
    3       -7.580409   1.000000
    4       -6.768906   1.000000
    5        1.239374   0.000000
    6        2.049624   0.000000
    7        2.427614   0.000000
    8        3.328089   0.000000
    9        3.789827   0.000000
   10        5.443085   0.000000
   11        5.825545   0.000000
   12        6.120585   0.000000
 
  0.1904762E+00  0.4761905E-01  0.1262379E-14  0.6802721E-02
    1      -21.599616   1.000000
    2       -9.559761   1.000000
    3       -8.098773   1.000000
    4       -7.030676   1.000000
    5        1.476878   0.000000
    6        2.289463   0.000000
    7        2.671207   0.000000
    8        3.568847   0.000000
    9        4.030378   0.000000
   10        5.679399   0.000000
   11        5.832122   0.000000
   12        6.339908   0.000000
 
  0.2142857E+00  0.4761905E-01  0.1262379E-14  0.6802721E-02
    1      -21.399474   1.000000
    2       -9.323388   1.000000
    3       -8.656540   1.000000
    4       -7.296782   1.000000
    5        1.750783   0.000000
    6        2.565650   0.000000
    7        2.952260   0.000000
    8        3.846044   0.000000
    9        4.307572   0.000000
   10        5.801206   0.000000
   11        5.921713   0.000000
   12        6.079410   0.000000
 
  0.2380952E+00  0.4761905E-01  0.1262379E-14  0.6802721E-02
    1      -21.173239   1.000000
    2       -9.243581   1.000000
    3       -9.057446   1.000000
    4       -7.560530   1.000000
    5        2.060983   0.000000
    6        2.877511   0.000000
    7        3.270758   0.000000
    8        4.158336   0.000000
    9        4.620807   0.000000
   10        5.451782   0.000000
   11        5.745531   0.000000
   12        6.275860   0.000000
 
  0.2619048E+00  0.4761905E-01  0.1262379E-14  0.6802721E-02
    1      -20.921167   1.000000
    2       -9.851097   1.000000
    3       -8.762918   1.000000
    4       -7.816509   1.000000
    5        2.407331   0.000000
    6        3.222820   0.000000
    7        3.626667   0.000000
    8        4.490136   0.000000
    9        4.860326   0.000000
   10        4.967932   0.000000
   11        5.675918   0.000000
   12        6.619957   0.000000
 
  0.2857143E+00  0.4761905E-01  0.1262379E-14  0.6802721E-02
    1      -20.643562   1.000000
    2      -10.471539   1.000000
    3       -8.441041   1.000000
    4       -8.060400   1.000000
    5        2.789618   0.000000
    6        3.584748   0.000000
    7        4.019920   0.000000
    8        4.202967   0.000000
    9        4.920192   0.000000
   10        5.331512   0.000000
   11        5.617026   0.000000
   12        7.001747   0.000000
 
  0.3095238E+00  0.4761905E-01  0.1262379E-14  0.6802721E-02
    1      -20.340815   1.000000
    2      -11.098565   1.000000
    3       -8.288729   1.000000
    4       -8.093513   1.000000
    5        3.207511   0.000000
    6        3.473349   0.000000
    7        4.089533   0.000000
    8        4.450309   0.000000
    9        5.337832   0.000000
   10        5.459374   0.000000
   11        5.827046   0.000000
   12        7.419232   0.000000
 
  0.3333333E+00  0.4761905E-01  0.1262379E-14  0.6802721E-02
    1      -20.013398   1.000000
    2      -11.726738   1.000000
    3       -8.498737   1.000000
    4       -7.722627   1.000000
    5        2.839237   0.000000
    6        3.660387   0.000000
    7        4.522660   0.000000
    8        4.916671   0.000000
    9        5.391121   0.000000
   10        5.797767   0.000000
   11        6.272527   0.000000
   12        7.871513   0.000000
 
  0.3571429E+00  0.4761905E-01  0.1262379E-14  0.6802721E-02
    1      -19.661936   1.000000
    2      -12.351437   1.000000
    3       -8.688215   1.000000
    4       -7.331626   1.000000
    5        2.185212   0.000000
    6        4.146673   0.000000
    7        5.012473   0.000000
    8        5.296008   0.000000
    9        5.440112   0.000000
   10        6.295011   0.000000
   11        6.767984   0.000000
   12        8.357601   0.000000
 
  0.3809524E+00  0.4761905E-01  0.1262379E-14  0.6802721E-02
    1      -19.287287   1.000000
    2      -12.968569   1.000000
    3       -8.855407   1.000000
    4       -6.925295   1.000000
    5        1.539001   0.000000
    6        4.659076   0.000000
    7        5.243155   0.000000
    8        5.540859   0.000000
    9        5.972005   0.000000
   10        6.828506   0.000000
   11        7.302494   0.000000
   12        8.876039   0.000000
 
  0.4047619E+00  0.4761905E-01  0.1262379E-14  0.6802721E-02
    1      -18.890721   1.000000
    2      -13.574220   1.000000
    3       -8.998933   1.000000
    4       -6.510825   1.000000
    5        0.914152   0.000000
    6        5.067543   0.000000
    7        5.326955   0.000000
    8        6.105023   0.000000
    9        6.551452   0.000000
   10        7.397547   0.000000
   11        7.874229   0.000000
   12        9.424312   0.000000
 
  0.4285714E+00  0.4761905E-01  0.1262379E-14  0.6802721E-02
    1      -18.474364   1.000000
    2      -14.164231   1.000000
    3       -9.117696   1.000000
    4       -6.099649   1.000000
    5        0.326080   0.000000
    6        5.071352   0.000000
    7        5.859146   0.000000
    8        6.703453   0.000000
    9        7.168929   0.000000
   10        8.001275   0.000000
   11        8.482396   0.000000
   12        9.996918   0.000000
 
  0.4523810E+00  0.4761905E-01  0.1262379E-14  0.6802721E-02
    1      -18.042405   1.000000
    2      -14.732797   1.000000
    3       -9.210874   1.000000
    4       -5.710443   1.000000
    5       -0.203589   0.000000
    6        5.032861   0.000000
    7        6.478489   0.000000
    8        7.334497   0.000000
    9        7.823855   0.000000
   10        8.638230   0.000000
   11        9.126238   0.000000
   12       10.573179   0.000000
 
  0.4761905E+00  0.4761905E-01  0.1262379E-14  0.6802721E-02
    1      -17.605282   1.000000
    2      -15.268313   1.000000
    3       -9.277848   1.000000
    4       -5.373760   1.000000
    5       -0.642123   0.000000
    6        5.001522   0.000000
    7        7.135300   0.000000
    8        7.995531   0.000000
    9        8.515969   0.000000
   10        9.304583   0.000000
   11        9.801181   0.000000
   12       10.055320   0.000000
 
  0.5000000E+00  0.4761905E-01  0.1262379E-14  0.6802721E-02
    1      -17.199258   1.000000
    2      -15.733683   1.000000
    3       -9.318192   1.000000
    4       -5.135502   1.000000
    5       -0.942089   0.000000
    6        4.981934   0.000000
    7        7.822942   0.000000
    8        8.680222   0.000000
    9        9.239154   0.000000
   10        9.298182   0.000000
   11        9.941950   0.000000
   12       10.220116   0.000000
 
 -0.4761905E+00  0.4761905E-01  0.1262379E-14  0.3401361E-02
    1      -16.986382   1.000000
    2      -15.966403   1.000000
    3       -9.331667   1.000000
    4       -5.047668   1.000000
    5       -1.050589   0.000000
    6        4.975286   0.000000
    7        8.467382   0.000000
    8        8.623353   0.000000
    9        9.272901   0.000000
   10        9.529186   0.000000
   11       10.007339   0.000000
   12       10.016365   0.000000
 
  0.1428571E+00  0.7142857E-01  0.1262379E-14  0.3401361E-02
    1      -21.934232   1.000000
    2       -9.956986   1.000000
    3       -7.050414   1.000000
    4       -6.516494   1.000000
    5        1.020093   0.000000
    6        1.827954   0.000000
    7        2.202759   0.000000
    8        3.105598   0.000000
    9        3.567687   0.000000
   10        5.223550   0.000000
   11        5.776617   0.000000
   12        5.986059   0.000000
 
  0.1666667E+00  0.7142857E-01  0.1262379E-14  0.6802721E-02
    1      -21.800235   1.000000
    2       -9.797602   1.000000
    3       -7.457716   1.000000
    4       -6.772427   1.000000
    5        1.202892   0.000000
    6        2.012723   0.000000
    7        2.390150   0.000000
    8        3.291055   0.000000
    9        3.752946   0.000000
   10        5.406740   0.000000
   11        5.904142   0.000000
   12        6.128343   0.000000
 
  0.1904762E+00  0.7142857E-01  0.1262379E-14  0.6802721E-02
    1      -21.639712   1.000000
    2       -9.607159   1.000000
    3       -7.922470   1.000000
    4       -7.046182   1.000000
    5        1.422203   0.000000
    6        2.234228   0.000000
    7        2.615018   0.000000
    8        3.513422   0.000000
    9        3.975203   0.000000
   10        5.625922   0.000000
   11        5.995658   0.000000
   12        6.309879   0.000000
 
  0.2142857E+00  0.7142857E-01  0.1262379E-14  0.6802721E-02
    1      -21.452820   1.000000
    2       -9.386146   1.000000
    3       -8.435690   1.000000
    4       -7.326345   1.000000
    5        1.677963   0.000000
    6        2.492268   0.000000
    7        2.877356   0.000000
    8        3.772489   0.000000
    9        4.234334   0.000000
   10        5.877129   0.000000
   11        6.029259   0.000000