 vasp.5.4.4.18Apr17-6-g9f103f2a35 (build May 31 2018 21:15:54) complex          
  
 executed on          c7_intel_O1 date 2020.08.11  21:52:42
 running on   36 total cores
 distrk:  each k-point on   36 cores,    1 groups
 distr:  one band on NCORES_PER_BAND=   6 cores,    6 groups


--------------------------------------------------------------------------------------------------------


 INCAR:
 POTCAR:   PAW_PBE C 08Apr2002                    
 POTCAR:   PAW_PBE C 08Apr2002                    
   VRHFIN =C: s2p2                                                              
   LEXCH  = PE                                                                  
   EATOM  =   147.1560 eV,   10.8157 Ry                                         
                                                                                
   TITEL  = PAW_PBE C 08Apr2002                                                 
   LULTRA =        F    use ultrasoft PP ?                                      
   IUNSCR =        0    unscreen: 0-lin 1-nonlin 2-no                           
   RPACOR =     .000    partial core radius                                     
   POMASS =   12.011; ZVAL   =    4.000    mass and valenz                      
   RCORE  =    1.500    outmost cutoff radius                                   
   RWIGS  =    1.630; RWIGS  =     .863    wigner-seitz radius (au A)           
   ENMAX  =  400.000; ENMIN  =  300.000 eV                                      
   ICORE  =        2    local potential                                         
   LCOR   =        T    correct aug charges                                     
   LPAW   =        T    paw PP                                                  
   EAUG   =  644.873                                                            
   DEXC   =     .000                                                            
   RMAX   =    2.266    core radius for proj-oper                               
   RAUG   =    1.300    factor for augmentation sphere                          
   RDEP   =    1.501    radius for radial grids                                 
   RDEPT  =    1.300    core radius for aug-charge                              
   QCUT   =   -5.516; QGAM   =   11.032    optimization parameters              
                                                                                
   Description                                                                  
     l     E      TYP  RCUT    TYP  RCUT                                        
     0   .000     23  1.200                                                     
     0   .000     23  1.200                                                     
     1   .000     23  1.500                                                     
     1  2.500     23  1.500                                                     
     2   .000      7  1.500                                                     
  local pseudopotential read in
  atomic valenz-charges read in
  non local Contribution for L=           0  read in
    real space projection operators read in
  non local Contribution for L=           0  read in
    real space projection operators read in
  non local Contribution for L=           1  read in
    real space projection operators read in
  non local Contribution for L=           1  read in
    real space projection operators read in
    PAW grid and wavefunctions read in
 
   number of l-projection  operators is LMAX  =           4
   number of lm-projection operators is LMMAX =           8
 
 PAW_PBE C 08Apr2002                    :
 energy of atom  1       EATOM= -147.1560
 kinetic energy error for atom=    0.0016 (will be added to EATOM!!)
 
 
 POSCAR: C2                                      
  positions in direct lattice
  velocities in cartesian coordinates
 exchange correlation table for  LEXCH =        8
   RHO(1)=    0.500       N(1)  =     2000
   RHO(2)=  100.500       N(2)  =     4000
 


--------------------------------------------------------------------------------------------------------


 ion  position               nearest neighbor table
   1  0.000  0.000  0.000-   2 1.42   2 1.42   2 1.42
   2  0.333  0.333  0.000-   1 1.42   1 1.42   1 1.42
 
  LATTYP: Found a hexagonal cell.
 ALAT       =     2.4595120000
 C/A-ratio  =     8.1316944174
  
  Lattice vectors:
  
 A1 = (   0.0000000000,  -2.4595120000,   0.0000000000)
 A2 = (  -2.1300000000,   1.2297560000,   0.0000000000)
 A3 = (   0.0000000000,   0.0000000000, -20.0000000000)


Analysis of symmetry for initial positions (statically):
=====================================================================
 Subroutine PRICEL returns:
 Original cell was already a primitive cell.
 

 Routine SETGRP: Setting up the symmetry group for a 
 hexagonal supercell.


 Subroutine GETGRP returns: Found 24 space group operations
 (whereof 12 operations were pure point group operations)
 out of a pool of 24 trial point group operations.


The static configuration has the point symmetry D_3h.
 The point group associated with its full space group is D_6h.


Analysis of symmetry for dynamics (positions and initial velocities):
=====================================================================
 Subroutine PRICEL returns:
 Original cell was already a primitive cell.
 

 Routine SETGRP: Setting up the symmetry group for a 
 hexagonal supercell.


 Subroutine GETGRP returns: Found 24 space group operations
 (whereof 12 operations were pure point group operations)
 out of a pool of 24 trial point group operations.


The dynamic configuration has the point symmetry D_3h.
 The point group associated with its full space group is D_6h.


 Subroutine INISYM returns: Found 24 space group operations
 (whereof 12 operations are pure point group operations),
 and found     1 'primitive' translations

 
 
 KPOINTS: C-2                                     

Automatic generation of k-mesh.
Space group operators:
 irot       det(A)        alpha          n_x          n_y          n_z        tau_x        tau_y        tau_z
    1     1.000000     0.000000     1.000000     0.000000     0.000000     0.000000     0.000000     0.000000
    2    -1.000000    60.000000     0.000000     0.000000     1.000000     0.000000     0.000000     0.000000
    3     1.000000   120.000000     0.000000     0.000000     1.000000     0.000000     0.000000     0.000000
    4    -1.000000   180.000000     0.000000     0.000000     1.000000     0.000000     0.000000     0.000000
    5     1.000000   120.000000     0.000000     0.000000    -1.000000     0.000000     0.000000     0.000000
    6    -1.000000    60.000000     0.000000     0.000000    -1.000000     0.000000     0.000000     0.000000
    7    -1.000000   180.000000    -0.000000     1.000000     0.000000     0.000000     0.000000     0.000000
    8     1.000000   180.000000     0.500000    -0.866025     0.000000     0.000000     0.000000     0.000000
    9    -1.000000   180.000000     0.866025    -0.500000     0.000000     0.000000     0.000000     0.000000
   10     1.000000   180.000000     1.000000     0.000000     0.000000     0.000000     0.000000     0.000000
   11    -1.000000   180.000000     0.866025     0.500000     0.000000     0.000000     0.000000     0.000000
   12     1.000000   180.000000    -0.500000    -0.866025     0.000000     0.000000     0.000000     0.000000
   13    -1.000000     0.000000     1.000000     0.000000     0.000000     0.333333    -0.666667     0.000000
   14     1.000000    60.000000     0.000000     0.000000     1.000000     0.333333    -0.666667     0.000000
   15    -1.000000   120.000000     0.000000     0.000000     1.000000     0.333333    -0.666667     0.000000
   16     1.000000   180.000000     0.000000     0.000000     1.000000     0.333333    -0.666667     0.000000
   17    -1.000000   120.000000     0.000000     0.000000    -1.000000     0.333333    -0.666667     0.000000
   18     1.000000    60.000000     0.000000     0.000000    -1.000000     0.333333    -0.666667     0.000000
   19     1.000000   180.000000    -0.000000     1.000000     0.000000     0.333333    -0.666667     0.000000
   20    -1.000000   180.000000     0.500000    -0.866025     0.000000     0.333333    -0.666667     0.000000
   21     1.000000   180.000000     0.866025    -0.500000     0.000000     0.333333    -0.666667     0.000000
   22    -1.000000   180.000000     1.000000     0.000000     0.000000     0.333333    -0.666667     0.000000
   23     1.000000   180.000000     0.866025     0.500000     0.000000     0.333333    -0.666667     0.000000
   24    -1.000000   180.000000    -0.500000    -0.866025     0.000000     0.333333    -0.666667     0.000000
 
 Subroutine IBZKPT returns following result:
 ===========================================
 
 Found    169 irreducible k-points:
 
 Following reciprocal coordinates:
            Coordinates               Weight
  0.000000  0.000000  0.000000      1.000000
  0.023810  0.000000  0.000000      6.000000
  0.047619  0.000000  0.000000      6.000000
  0.071429  0.000000  0.000000      6.000000
  0.095238  0.000000  0.000000      6.000000
  0.119048  0.000000  0.000000      6.000000
  0.142857  0.000000  0.000000      6.000000
  0.166667  0.000000  0.000000      6.000000
  0.190476  0.000000  0.000000      6.000000
  0.214286  0.000000  0.000000      6.000000
  0.238095  0.000000  0.000000      6.000000
  0.261905  0.000000  0.000000      6.000000
  0.285714  0.000000  0.000000      6.000000
  0.309524  0.000000  0.000000      6.000000
  0.333333  0.000000  0.000000      6.000000
  0.357143  0.000000  0.000000      6.000000
  0.380952  0.000000  0.000000      6.000000
  0.404762  0.000000  0.000000      6.000000
  0.428571  0.000000  0.000000      6.000000
  0.452381  0.000000  0.000000      6.000000
  0.476190  0.000000  0.000000      6.000000
  0.500000  0.000000  0.000000      3.000000
  0.047619  0.023810  0.000000      6.000000
  0.071429  0.023810  0.000000     12.000000
  0.095238  0.023810  0.000000     12.000000
  0.119048  0.023810  0.000000     12.000000
  0.142857  0.023810  0.000000     12.000000
  0.166667  0.023810  0.000000     12.000000
  0.190476  0.023810  0.000000     12.000000
  0.214286  0.023810  0.000000     12.000000
  0.238095  0.023810  0.000000     12.000000
  0.261905  0.023810  0.000000     12.000000
  0.285714  0.023810  0.000000     12.000000
  0.309524  0.023810  0.000000     12.000000
  0.333333  0.023810  0.000000     12.000000
  0.357143  0.023810  0.000000     12.000000
  0.380952  0.023810  0.000000     12.000000
  0.404762  0.023810  0.000000     12.000000
  0.428571  0.023810  0.000000     12.000000
  0.452381  0.023810  0.000000     12.000000
  0.476190  0.023810  0.000000     12.000000
  0.500000  0.023810  0.000000     12.000000
  0.095238  0.047619  0.000000      6.000000
  0.119048  0.047619  0.000000     12.000000
  0.142857  0.047619  0.000000     12.000000
  0.166667  0.047619  0.000000     12.000000
  0.190476  0.047619  0.000000     12.000000
  0.214286  0.047619  0.000000     12.000000
  0.238095  0.047619  0.000000     12.000000
  0.261905  0.047619  0.000000     12.000000
  0.285714  0.047619  0.000000     12.000000
  0.309524  0.047619  0.000000     12.000000
  0.333333  0.047619  0.000000     12.000000
  0.357143  0.047619  0.000000     12.000000
  0.380952  0.047619  0.000000     12.000000
  0.404762  0.047619  0.000000     12.000000
  0.428571  0.047619  0.000000     12.000000
  0.452381  0.047619  0.000000     12.000000
  0.476190  0.047619  0.000000     12.000000
  0.500000  0.047619  0.000000     12.000000
 -0.476190  0.047619  0.000000      6.000000
  0.142857  0.071429  0.000000      6.000000
  0.166667  0.071429  0.000000     12.000000
  0.190476  0.071429  0.000000     12.000000
  0.214286  0.071429  0.000000     12.000000
  0.238095  0.071429  0.000000     12.000000
  0.261905  0.071429  0.000000     12.000000
  0.285714  0.071429  0.000000     12.000000
  0.309524  0.071429  0.000000     12.000000
  0.333333  0.071429  0.000000     12.000000
  0.357143  0.071429  0.000000     12.000000
  0.380952  0.071429  0.000000     12.000000
  0.404762  0.071429  0.000000     12.000000
  0.428571  0.071429  0.000000     12.000000
  0.452381  0.071429  0.000000     12.000000
  0.476190  0.071429  0.000000     12.000000
  0.500000  0.071429  0.000000     12.000000
 -0.476190  0.071429  0.000000     12.000000
  0.190476  0.095238  0.000000      6.000000
  0.214286  0.095238  0.000000     12.000000
  0.238095  0.095238  0.000000     12.000000
  0.261905  0.095238  0.000000     12.000000
  0.285714  0.095238  0.000000     12.000000
  0.309524  0.095238  0.000000     12.000000
  0.333333  0.095238  0.000000     12.000000
  0.357143  0.095238  0.000000     12.000000
  0.380952  0.095238  0.000000     12.000000
  0.404762  0.095238  0.000000     12.000000
  0.428571  0.095238  0.000000     12.000000
  0.452381  0.095238  0.000000     12.000000
  0.476190  0.095238  0.000000     12.000000
  0.500000  0.095238  0.000000     12.000000
 -0.476190  0.095238  0.000000     12.000000
 -0.452381  0.095238  0.000000      6.000000
  0.238095  0.119048  0.000000      6.000000
  0.261905  0.119048  0.000000     12.000000
  0.285714  0.119048  0.000000     12.000000
  0.309524  0.119048  0.000000     12.000000
  0.333333  0.119048  0.000000     12.000000
  0.357143  0.119048  0.000000     12.000000
  0.380952  0.119048  0.000000     12.000000
  0.404762  0.119048  0.000000     12.000000
  0.428571  0.119048  0.000000     12.000000
  0.452381  0.119048  0.000000     12.000000
  0.476190  0.119048  0.000000     12.000000
  0.500000  0.119048  0.000000     12.000000
 -0.476190  0.119048  0.000000     12.000000
 -0.452381  0.119048  0.000000     12.000000
  0.285714  0.142857  0.000000      6.000000
  0.309524  0.142857  0.000000     12.000000
  0.333333  0.142857  0.000000     12.000000
  0.357143  0.142857  0.000000     12.000000
  0.380952  0.142857  0.000000     12.000000
  0.404762  0.142857  0.000000     12.000000
  0.428571  0.142857  0.000000     12.000000
  0.452381  0.142857  0.000000     12.000000
  0.476190  0.142857  0.000000     12.000000
  0.500000  0.142857  0.000000     12.000000
 -0.476190  0.142857  0.000000     12.000000
 -0.452381  0.142857  0.000000     12.000000
 -0.428571  0.142857  0.000000      6.000000
  0.333333  0.166667  0.000000      6.000000
  0.357143  0.166667  0.000000     12.000000
  0.380952  0.166667  0.000000     12.000000
  0.404762  0.166667  0.000000     12.000000
  0.428571  0.166667  0.000000     12.000000
  0.452381  0.166667  0.000000     12.000000
  0.476190  0.166667  0.000000     12.000000
  0.500000  0.166667  0.000000     12.000000
 -0.476190  0.166667  0.000000     12.000000
 -0.452381  0.166667  0.000000     12.000000
 -0.428571  0.166667  0.000000     12.000000
  0.380952  0.190476  0.000000      6.000000
  0.404762  0.190476  0.000000     12.000000
  0.428571  0.190476  0.000000     12.000000
  0.452381  0.190476  0.000000     12.000000
  0.476190  0.190476  0.000000     12.000000
  0.500000  0.190476  0.000000     12.000000
 -0.476190  0.190476  0.000000     12.000000
 -0.452381  0.190476  0.000000     12.000000
 -0.428571  0.190476  0.000000     12.000000
 -0.404762  0.190476  0.000000      6.000000
  0.428571  0.214286  0.000000      6.000000
  0.452381  0.214286  0.000000     12.000000
  0.476190  0.214286  0.000000     12.000000
  0.500000  0.214286  0.000000     12.000000
 -0.476190  0.214286  0.000000     12.000000
 -0.452381  0.214286  0.000000     12.000000
 -0.428571  0.214286  0.000000     12.000000
 -0.404762  0.214286  0.000000     12.000000
  0.476190  0.238095  0.000000      6.000000
  0.500000  0.238095  0.000000     12.000000
 -0.476190  0.238095  0.000000     12.000000
 -0.452381  0.238095  0.000000     12.000000
 -0.428571  0.238095  0.000000     12.000000
 -0.404762  0.238095  0.000000     12.000000
 -0.380952  0.238095  0.000000      6.000000
 -0.476190  0.261905  0.000000      6.000000
 -0.452381  0.261905  0.000000     12.000000
 -0.428571  0.261905  0.000000     12.000000
 -0.404762  0.261905  0.000000     12.000000
 -0.380952  0.261905  0.000000     12.000000
 -0.428571  0.285714  0.000000      6.000000
 -0.404762  0.285714  0.000000     12.000000
 -0.380952  0.285714  0.000000     12.000000
 -0.357143  0.285714  0.000000      6.000000
 -0.380952  0.309524  0.000000      6.000000
 -0.357143  0.309524  0.000000     12.000000
 -0.333333  0.333333  0.000000      2.000000
 
 Following cartesian coordinates:
            Coordinates               Weight
  0.000000  0.000000  0.000000      1.000000
  0.005589 -0.009681  0.000000      6.000000
  0.011178 -0.019361  0.000000      6.000000
  0.016767 -0.029042  0.000000      6.000000
  0.022356 -0.038722  0.000000      6.000000
  0.027945 -0.048403  0.000000      6.000000
  0.033535 -0.058084  0.000000      6.000000
  0.039124 -0.067764  0.000000      6.000000
  0.044713 -0.077445  0.000000      6.000000
  0.050302 -0.087125  0.000000      6.000000
  0.055891 -0.096806  0.000000      6.000000
  0.061480 -0.106486  0.000000      6.000000
  0.067069 -0.116167  0.000000      6.000000
  0.072658 -0.125848  0.000000      6.000000
  0.078247 -0.135528  0.000000      6.000000
  0.083836 -0.145209  0.000000      6.000000
  0.089425 -0.154889  0.000000      6.000000
  0.095015 -0.164570  0.000000      6.000000
  0.100604 -0.174251  0.000000      6.000000
  0.106193 -0.183931  0.000000      6.000000
  0.111782 -0.193612  0.000000      6.000000
  0.117371 -0.203292  0.000000      3.000000
  0.016767 -0.009681  0.000000      6.000000
  0.022356 -0.019361  0.000000     12.000000
  0.027945 -0.029042  0.000000     12.000000
  0.033535 -0.038722  0.000000     12.000000
  0.039124 -0.048403  0.000000     12.000000
  0.044713 -0.058084  0.000000     12.000000
  0.050302 -0.067764  0.000000     12.000000
  0.055891 -0.077445  0.000000     12.000000
  0.061480 -0.087125  0.000000     12.000000
  0.067069 -0.096806  0.000000     12.000000
  0.072658 -0.106486  0.000000     12.000000
  0.078247 -0.116167  0.000000     12.000000
  0.083836 -0.125848  0.000000     12.000000
  0.089425 -0.135528  0.000000     12.000000
  0.095015 -0.145209  0.000000     12.000000
  0.100604 -0.154889  0.000000     12.000000
  0.106193 -0.164570  0.000000     12.000000
  0.111782 -0.174251  0.000000     12.000000
  0.117371 -0.183931  0.000000     12.000000
  0.122960 -0.193612  0.000000     12.000000
  0.033535 -0.019361  0.000000      6.000000
  0.039124 -0.029042  0.000000     12.000000
  0.044713 -0.038722  0.000000     12.000000
  0.050302 -0.048403  0.000000     12.000000
  0.055891 -0.058084  0.000000     12.000000
  0.061480 -0.067764  0.000000     12.000000
  0.067069 -0.077445  0.000000     12.000000
  0.072658 -0.087125  0.000000     12.000000
  0.078247 -0.096806  0.000000     12.000000
  0.083836 -0.106486  0.000000     12.000000
  0.089425 -0.116167  0.000000     12.000000
  0.095015 -0.125848  0.000000     12.000000
  0.100604 -0.135528  0.000000     12.000000
  0.106193 -0.145209  0.000000     12.000000
  0.111782 -0.154889  0.000000     12.000000
  0.117371 -0.164570  0.000000     12.000000
  0.122960 -0.174251  0.000000     12.000000
  0.128549 -0.183931  0.000000     12.000000
 -0.100604  0.212973  0.000000      6.000000
  0.050302 -0.029042  0.000000      6.000000
  0.055891 -0.038722  0.000000     12.000000
  0.061480 -0.048403  0.000000     12.000000
  0.067069 -0.058084  0.000000     12.000000
  0.072658 -0.067764  0.000000     12.000000
  0.078247 -0.077445  0.000000     12.000000
  0.083836 -0.087125  0.000000     12.000000
  0.089425 -0.096806  0.000000     12.000000
  0.095015 -0.106486  0.000000     12.000000
  0.100604 -0.116167  0.000000     12.000000
  0.106193 -0.125848  0.000000     12.000000
  0.111782 -0.135528  0.000000     12.000000
  0.117371 -0.145209  0.000000     12.000000
  0.122960 -0.154889  0.000000     12.000000
  0.128549 -0.164570  0.000000     12.000000
  0.134138 -0.174251  0.000000     12.000000
 -0.095015  0.222654  0.000000     12.000000
  0.067069 -0.038722  0.000000      6.000000
  0.072658 -0.048403  0.000000     12.000000
  0.078247 -0.058084  0.000000     12.000000
  0.083836 -0.067764  0.000000     12.000000
  0.089425 -0.077445  0.000000     12.000000
  0.095015 -0.087125  0.000000     12.000000
  0.100604 -0.096806  0.000000     12.000000
  0.106193 -0.106486  0.000000     12.000000
  0.111782 -0.116167  0.000000     12.000000
  0.117371 -0.125848  0.000000     12.000000
  0.122960 -0.135528  0.000000     12.000000
  0.128549 -0.145209  0.000000     12.000000
  0.134138 -0.154889  0.000000     12.000000
  0.139727 -0.164570  0.000000     12.000000
 -0.089425  0.232334  0.000000     12.000000
 -0.083836  0.222654  0.000000      6.000000
  0.083836 -0.048403  0.000000      6.000000
  0.089425 -0.058084  0.000000     12.000000
  0.095015 -0.067764  0.000000     12.000000
  0.100604 -0.077445  0.000000     12.000000
  0.106193 -0.087125  0.000000     12.000000
  0.111782 -0.096806  0.000000     12.000000
  0.117371 -0.106486  0.000000     12.000000
  0.122960 -0.116167  0.000000     12.000000
  0.128549 -0.125848  0.000000     12.000000
  0.134138 -0.135528  0.000000     12.000000
  0.139727 -0.145209  0.000000     12.000000
  0.145316 -0.154889  0.000000     12.000000
 -0.083836  0.242015  0.000000     12.000000
 -0.078247  0.232334  0.000000     12.000000
  0.100604 -0.058084  0.000000      6.000000
  0.106193 -0.067764  0.000000     12.000000
  0.111782 -0.077445  0.000000     12.000000
  0.117371 -0.087125  0.000000     12.000000
  0.122960 -0.096806  0.000000     12.000000
  0.128549 -0.106486  0.000000     12.000000
  0.134138 -0.116167  0.000000     12.000000
  0.139727 -0.125848  0.000000     12.000000
  0.145316 -0.135528  0.000000     12.000000
  0.150905 -0.145209  0.000000     12.000000
 -0.078247  0.251695  0.000000     12.000000
 -0.072658  0.242015  0.000000     12.000000
 -0.067069  0.232334  0.000000      6.000000
  0.117371 -0.067764  0.000000      6.000000
  0.122960 -0.077445  0.000000     12.000000
  0.128549 -0.087125  0.000000     12.000000
  0.134138 -0.096806  0.000000     12.000000
  0.139727 -0.106486  0.000000     12.000000
  0.145316 -0.116167  0.000000     12.000000
  0.150905 -0.125848  0.000000     12.000000
  0.156495 -0.135528  0.000000     12.000000
 -0.072658  0.261376  0.000000     12.000000
 -0.067069  0.251695  0.000000     12.000000
 -0.061480  0.242015  0.000000     12.000000
  0.134138 -0.077445  0.000000      6.000000
  0.139727 -0.087125  0.000000     12.000000
  0.145316 -0.096806  0.000000     12.000000
  0.150905 -0.106486  0.000000     12.000000
  0.156495 -0.116167  0.000000     12.000000
  0.162084 -0.125848  0.000000     12.000000
 -0.067069  0.271056  0.000000     12.000000
 -0.061480  0.261376  0.000000     12.000000
 -0.055891  0.251695  0.000000     12.000000
 -0.050302  0.242015  0.000000      6.000000
  0.150905 -0.087125  0.000000      6.000000
  0.156495 -0.096806  0.000000     12.000000
  0.162084 -0.106486  0.000000     12.000000
  0.167673 -0.116167  0.000000     12.000000
 -0.061480  0.280737  0.000000     12.000000
 -0.055891  0.271056  0.000000     12.000000
 -0.050302  0.261376  0.000000     12.000000
 -0.044713  0.251695  0.000000     12.000000
  0.167673 -0.096806  0.000000      6.000000
  0.173262 -0.106486  0.000000     12.000000
 -0.055891  0.290418  0.000000     12.000000
 -0.050302  0.280737  0.000000     12.000000
 -0.044713  0.271056  0.000000     12.000000
 -0.039124  0.261376  0.000000     12.000000
 -0.033535  0.251695  0.000000      6.000000
 -0.050302  0.300098  0.000000      6.000000
 -0.044713  0.290418  0.000000     12.000000
 -0.039124  0.280737  0.000000     12.000000
 -0.033535  0.271056  0.000000     12.000000
 -0.027945  0.261376  0.000000     12.000000
 -0.033535  0.290418  0.000000      6.000000
 -0.027945  0.280737  0.000000     12.000000
 -0.022356  0.271056  0.000000     12.000000
 -0.016767  0.261376  0.000000      6.000000
 -0.016767  0.280737  0.000000      6.000000
 -0.011178  0.271056  0.000000     12.000000
  0.000000  0.271056  0.000000      2.000000
 


--------------------------------------------------------------------------------------------------------




 Dimension of arrays:
   k-points           NKPTS =    169   k-points in BZ     NKDIM =    169   number of bands    NBANDS=     12
   number of dos      NEDOS =   6001   number of ions     NIONS =      2
   non local maximal  LDIM  =      4   non local SUM 2l+1 LMDIM =      8
   total plane-waves  NPLWV = 110592
   max r-space proj   IRMAX =      1   max aug-charges    IRDMAX=  99836
   dimension x,y,z NGX =    24 NGY =   24 NGZ =  192
   dimension x,y,z NGXF=    48 NGYF=   48 NGZF=  384
   support grid    NGXF=    96 NGYF=   96 NGZF=  768
   ions per type =               2
   NGX,Y,Z   is equivalent  to a cutoff of  16.22, 16.22, 15.96 a.u.
   NGXF,Y,Z  is equivalent  to a cutoff of  32.44, 32.44, 31.92 a.u.

 SYSTEM =  C-2                                     
 POSCAR =  C2                                      

 Startparameter for this run:
   NWRITE =      2    write-flag & timer
   PREC   = accura    normal or accurate (medium, high low for compatibility)
   ISTART =      0    job   : 0-new  1-cont  2-samecut
   ICHARG =      1    charge: 1-file 2-atom 10-const
   ISPIN  =      1    spin polarized calculation?
   LNONCOLLINEAR =      F non collinear calculations
   LSORBIT =      F    spin-orbit coupling
   INIWAV =      1    electr: 0-lowe 1-rand  2-diag
   LASPH  =      F    aspherical Exc in radial PAW
   METAGGA=      F    non-selfconsistent MetaGGA calc.

 Electronic Relaxation 1
   ENCUT  =  800.0 eV  58.80 Ry    7.67 a.u.   5.67  5.67 46.12*2*pi/ulx,y,z
   ENINI  =  800.0     initial cutoff
   ENAUG  =  644.9 eV  augmentation charge cutoff
   NELM   =     60;   NELMIN=  5; NELMDL= -5     # of ELM steps 
   EDIFF  = 0.1E-07   stopping-criterion for ELM
   LREAL  =      F    real-space projection
   NLSPLINE    = F    spline interpolate recip. space projectors
   LCOMPAT=      F    compatible to vasp.4.4
   GGA_COMPAT  = T    GGA compatible to vasp.4.4-vasp.4.6
   LMAXPAW     = -100 max onsite density
   LMAXMIX     =    2 max onsite mixed and CHGCAR
   VOSKOWN=      0    Vosko Wilk Nusair interpolation
   ROPT   =    0.00000
 Ionic relaxation
   EDIFFG = -.1E-07   stopping-criterion for IOM
   NSW    =      0    number of steps for IOM
   NBLOCK =      1;   KBLOCK =      1    inner block; outer block 
   IBRION =     -1    ionic relax: 0-MD 1-quasi-New 2-CG
   NFREE  =      0    steps in history (QN), initial steepest desc. (CG)
   ISIF   =      2    stress and relaxation
   IWAVPR =     10    prediction:  0-non 1-charg 2-wave 3-comb
   ISYM   =      2    0-nonsym 1-usesym 2-fastsym
   LCORR  =      T    Harris-Foulkes like correction to forces

   POTIM  = 0.5000    time-step for ionic-motion
   TEIN   =    0.0    initial temperature
   TEBEG  =    0.0;   TEEND  =   0.0 temperature during run
   SMASS  =  -3.00    Nose mass-parameter (am)
   estimated Nose-frequenzy (Omega)   =  0.10E-29 period in steps =****** mass=  -0.138E-27a.u.
   SCALEE = 1.0000    scale energy and forces
   NPACO  =    256;   APACO  = 16.0  distance and # of slots for P.C.
   PSTRESS=    0.0 pullay stress

  Mass of Ions in am
   POMASS =  12.01
  Ionic Valenz
   ZVAL   =   4.00
  Atomic Wigner-Seitz radii
   RWIGS  =  -1.00
  virtual crystal weights 
   VCA    =   1.00
   NELECT =       8.0000    total number of electrons
   NUPDOWN=      -1.0000    fix difference up-down

 DOS related values:
   EMIN   =  10.00;   EMAX   =-10.00  energy-range for DOS
   EFERMI =   0.00
   ISMEAR =     0;   SIGMA  =   0.10  broadening in eV -4-tet -1-fermi 0-gaus

 Electronic relaxation 2 (details)
   IALGO  =     38    algorithm
   LDIAG  =      T    sub-space diagonalisation (order eigenvalues)
   LSUBROT=      F    optimize rotation matrix (better conditioning)
   TURBO    =      0    0=normal 1=particle mesh
   IRESTART =      0    0=no restart 2=restart with 2 vectors
   NREBOOT  =      0    no. of reboots
   NMIN     =      0    reboot dimension
   EREF     =   0.00    reference energy to select bands
   IMIX   =      4    mixing-type and parameters
     AMIX     =   0.40;   BMIX     =  1.00
     AMIX_MAG =   1.60;   BMIX_MAG =  1.00
     AMIN     =   0.01
     WC   =   100.;   INIMIX=   1;  MIXPRE=   1;  MAXMIX= -45

 Intra band minimization:
   WEIMIN = 0.0000     energy-eigenvalue tresh-hold
   EBREAK =  0.21E-10  absolut break condition
   DEPER  =   0.30     relativ break condition  

   TIME   =   0.40     timestep for ELM

  volume/ion in A,a.u.               =      52.39       353.53
  Fermi-wavevector in a.u.,A,eV,Ry     =   0.694521  1.312454  6.562896  0.482359
  Thomas-Fermi vector in A             =   1.777037
 
 Write flags
   LWAVE        =      F    write WAVECAR
   LDOWNSAMPLE  =      F    k-point downsampling of WAVECAR
   LCHARG       =      T    write CHGCAR
   LVTOT        =      F    write LOCPOT, total local potential
   LVHAR        =      F    write LOCPOT, Hartree potential only
   LELF         =      F    write electronic localiz. function (ELF)
   LORBIT       =      0    0 simple, 1 ext, 2 COOP (PROOUT), +10 PAW based schemes


 Dipole corrections
   LMONO  =      F    monopole corrections only (constant potential shift)
   LDIPOL =      F    correct potential (dipole corrections)
   IDIPOL =      0    1-x, 2-y, 3-z, 4-all directions 
   EPSILON=  1.0000000 bulk dielectric constant

 Exchange correlation treatment:
   GGA     =    --    GGA type
   LEXCH   =     8    internal setting for exchange type
   VOSKOWN=      0    Vosko Wilk Nusair interpolation
   LHFCALC =     F    Hartree Fock is set to
   LHFONE  =     F    Hartree Fock one center treatment
   AEXX    =    0.0000 exact exchange contribution

 Linear response parameters
   LEPSILON=     F    determine dielectric tensor
   LRPA    =     F    only Hartree local field effects (RPA)
   LNABLA  =     F    use nabla operator in PAW spheres
   LVEL    =     F    velocity operator in full k-point grid
   LINTERFAST=   F  fast interpolation
   KINTER  =     0    interpolate to denser k-point grid
   CSHIFT  =0.1000    complex shift for real part using Kramers Kronig
   OMEGAMAX=  -1.0    maximum frequency
   DEG_THRESHOLD= 0.2000000E-02 threshold for treating states as degnerate
   RTIME   =   -0.100 relaxation time in fs
  (WPLASMAI=    0.000 imaginary part of plasma frequency in eV, 0.658/RTIME)
   DFIELD  = 0.0000000 0.0000000 0.0000000 field for delta impulse in time
 
 Orbital magnetization related:
   ORBITALMAG=     F  switch on orbital magnetization
   LCHIMAG   =     F  perturbation theory with respect to B field
   DQ        =  0.001000  dq finite difference perturbation B field
   LLRAUG    =     F  two centre corrections for induced B field



--------------------------------------------------------------------------------------------------------


 Static calculation
 charge density and potential will be updated during run
 non-spin polarized calculation
 Variant of blocked Davidson
 Davidson routine will perform the subspace rotation
 perform sub-space diagonalisation
    after iterative eigenvector-optimisation
 modified Broyden-mixing scheme, WC =      100.0
 initial mixing is a Kerker type mixing with AMIX =  0.4000 and BMIX =      1.0000
 Hartree-type preconditioning will be used
 using additional bands            8
 reciprocal scheme for non local part
 calculate Harris-corrections to forces 
   (improved forces if not selfconsistent)
 use gradient corrections 
 use of overlap-Matrix (Vanderbilt PP)
 Gauss-broadening in eV      SIGMA  =   0.10


--------------------------------------------------------------------------------------------------------


  energy-cutoff  :      800.00
  volume of cell :      104.78
      direct lattice vectors                 reciprocal lattice vectors
     2.130000000 -1.229756000  0.000000000     0.234741784 -0.406584721  0.000000000
     2.130000000  1.229756000  0.000000000     0.234741784  0.406584721  0.000000000
     0.000000000  0.000000000 20.000000000     0.000000000  0.000000000  0.050000000

  length of vectors
     2.459512110  2.459512110 20.000000000     0.469483589  0.469483589  0.050000000


 
 k-points in units of 2pi/SCALE and weight: C-2                                     
   0.00000000  0.00000000  0.00000000       0.001
   0.00558909 -0.00968059  0.00000000       0.003
   0.01117818 -0.01936118  0.00000000       0.003
   0.01676727 -0.02904177  0.00000000       0.003
   0.02235636 -0.03872235  0.00000000       0.003
   0.02794545 -0.04840294  0.00000000       0.003
   0.03353454 -0.05808353  0.00000000       0.003
   0.03912363 -0.06776412  0.00000000       0.003
   0.04471272 -0.07744471  0.00000000       0.003
   0.05030181 -0.08712530  0.00000000       0.003
   0.05589090 -0.09680589  0.00000000       0.003
   0.06147999 -0.10648647  0.00000000       0.003
   0.06706908 -0.11616706  0.00000000       0.003
   0.07265817 -0.12584765  0.00000000       0.003
   0.07824726 -0.13552824  0.00000000       0.003
   0.08383635 -0.14520883  0.00000000       0.003
   0.08942544 -0.15488942  0.00000000       0.003
   0.09501453 -0.16457001  0.00000000       0.003
   0.10060362 -0.17425059  0.00000000       0.003
   0.10619271 -0.18393118  0.00000000       0.003
   0.11178180 -0.19361177  0.00000000       0.003
   0.11737089 -0.20329236  0.00000000       0.002
   0.01676727 -0.00968059  0.00000000       0.003
   0.02235636 -0.01936118  0.00000000       0.007
   0.02794545 -0.02904177  0.00000000       0.007
   0.03353454 -0.03872235  0.00000000       0.007
   0.03912363 -0.04840294  0.00000000       0.007
   0.04471272 -0.05808353  0.00000000       0.007
   0.05030181 -0.06776412  0.00000000       0.007
   0.05589090 -0.07744471  0.00000000       0.007
   0.06147999 -0.08712530  0.00000000       0.007
   0.06706908 -0.09680589  0.00000000       0.007
   0.07265817 -0.10648647  0.00000000       0.007
   0.07824726 -0.11616706  0.00000000       0.007
   0.08383635 -0.12584765  0.00000000       0.007
   0.08942544 -0.13552824  0.00000000       0.007
   0.09501453 -0.14520883  0.00000000       0.007
   0.10060362 -0.15488942  0.00000000       0.007
   0.10619271 -0.16457001  0.00000000       0.007
   0.11178180 -0.17425059  0.00000000       0.007
   0.11737089 -0.18393118  0.00000000       0.007
   0.12295998 -0.19361177  0.00000000       0.007
   0.03353454 -0.01936118  0.00000000       0.003
   0.03912363 -0.02904177  0.00000000       0.007
   0.04471272 -0.03872235  0.00000000       0.007
   0.05030181 -0.04840294  0.00000000       0.007
   0.05589090 -0.05808353  0.00000000       0.007
   0.06147999 -0.06776412  0.00000000       0.007
   0.06706908 -0.07744471  0.00000000       0.007
   0.07265817 -0.08712530  0.00000000       0.007
   0.07824726 -0.09680589  0.00000000       0.007
   0.08383635 -0.10648647  0.00000000       0.007
   0.08942544 -0.11616706  0.00000000       0.007
   0.09501453 -0.12584765  0.00000000       0.007
   0.10060362 -0.13552824  0.00000000       0.007
   0.10619271 -0.14520883  0.00000000       0.007
   0.11178180 -0.15488942  0.00000000       0.007
   0.11737089 -0.16457001  0.00000000       0.007
   0.12295998 -0.17425059  0.00000000       0.007
   0.12854907 -0.18393118  0.00000000       0.007
  -0.10060362  0.21297295  0.00000000       0.003
   0.05030181 -0.02904177  0.00000000       0.003
   0.05589090 -0.03872235  0.00000000       0.007
   0.06147999 -0.04840294  0.00000000       0.007
   0.06706908 -0.05808353  0.00000000       0.007
   0.07265817 -0.06776412  0.00000000       0.007
   0.07824726 -0.07744471  0.00000000       0.007
   0.08383635 -0.08712530  0.00000000       0.007
   0.08942544 -0.09680589  0.00000000       0.007
   0.09501453 -0.10648647  0.00000000       0.007
   0.10060362 -0.11616706  0.00000000       0.007
   0.10619271 -0.12584765  0.00000000       0.007
   0.11178180 -0.13552824  0.00000000       0.007
   0.11737089 -0.14520883  0.00000000       0.007
   0.12295998 -0.15488942  0.00000000       0.007
   0.12854907 -0.16457001  0.00000000       0.007
   0.13413816 -0.17425059  0.00000000       0.007
  -0.09501453  0.22265354  0.00000000       0.007
   0.06706908 -0.03872235  0.00000000       0.003
   0.07265817 -0.04840294  0.00000000       0.007
   0.07824726 -0.05808353  0.00000000       0.007
   0.08383635 -0.06776412  0.00000000       0.007
   0.08942544 -0.07744471  0.00000000       0.007
   0.09501453 -0.08712530  0.00000000       0.007
   0.10060362 -0.09680589  0.00000000       0.007
   0.10619271 -0.10648647  0.00000000       0.007
   0.11178180 -0.11616706  0.00000000       0.007
   0.11737089 -0.12584765  0.00000000       0.007
   0.12295998 -0.13552824  0.00000000       0.007
   0.12854907 -0.14520883  0.00000000       0.007
   0.13413816 -0.15488942  0.00000000       0.007
   0.13972725 -0.16457001  0.00000000       0.007
  -0.08942544  0.23233413  0.00000000       0.007
  -0.08383635  0.22265354  0.00000000       0.003
   0.08383635 -0.04840294  0.00000000       0.003
   0.08942544 -0.05808353  0.00000000       0.007
   0.09501453 -0.06776412  0.00000000       0.007
   0.10060362 -0.07744471  0.00000000       0.007
   0.10619271 -0.08712530  0.00000000       0.007
   0.11178180 -0.09680589  0.00000000       0.007
   0.11737089 -0.10648647  0.00000000       0.007
   0.12295998 -0.11616706  0.00000000       0.007
   0.12854907 -0.12584765  0.00000000       0.007
   0.13413816 -0.13552824  0.00000000       0.007
   0.13972725 -0.14520883  0.00000000       0.007
   0.14531634 -0.15488942  0.00000000       0.007
  -0.08383635  0.24201471  0.00000000       0.007
  -0.07824726  0.23233413  0.00000000       0.007
   0.10060362 -0.05808353  0.00000000       0.003
   0.10619271 -0.06776412  0.00000000       0.007
   0.11178180 -0.07744471  0.00000000       0.007
   0.11737089 -0.08712530  0.00000000       0.007
   0.12295998 -0.09680589  0.00000000       0.007
   0.12854907 -0.10648647  0.00000000       0.007
   0.13413816 -0.11616706  0.00000000       0.007
   0.13972725 -0.12584765  0.00000000       0.007
   0.14531634 -0.13552824  0.00000000       0.007
   0.15090543 -0.14520883  0.00000000       0.007
  -0.07824726  0.25169530  0.00000000       0.007
  -0.07265817  0.24201471  0.00000000       0.007
  -0.06706908  0.23233413  0.00000000       0.003
   0.11737089 -0.06776412  0.00000000       0.003
   0.12295998 -0.07744471  0.00000000       0.007
   0.12854907 -0.08712530  0.00000000       0.007
   0.13413816 -0.09680589  0.00000000       0.007
   0.13972725 -0.10648647  0.00000000       0.007
   0.14531634 -0.11616706  0.00000000       0.007
   0.15090543 -0.12584765  0.00000000       0.007
   0.15649452 -0.13552824  0.00000000       0.007
  -0.07265817  0.26137589  0.00000000       0.007
  -0.06706908  0.25169530  0.00000000       0.007
  -0.06147999  0.24201471  0.00000000       0.007
   0.13413816 -0.07744471  0.00000000       0.003
   0.13972725 -0.08712530  0.00000000       0.007
   0.14531634 -0.09680589  0.00000000       0.007
   0.15090543 -0.10648647  0.00000000       0.007
   0.15649452 -0.11616706  0.00000000       0.007
   0.16208361 -0.12584765  0.00000000       0.007
  -0.06706908  0.27105648  0.00000000       0.007
  -0.06147999  0.26137589  0.00000000       0.007
  -0.05589090  0.25169530  0.00000000       0.007
  -0.05030181  0.24201471  0.00000000       0.003
   0.15090543 -0.08712530  0.00000000       0.003
   0.15649452 -0.09680589  0.00000000       0.007
   0.16208361 -0.10648647  0.00000000       0.007
   0.16767270 -0.11616706  0.00000000       0.007
  -0.06147999  0.28073707  0.00000000       0.007
  -0.05589090  0.27105648  0.00000000       0.007
  -0.05030181  0.26137589  0.00000000       0.007
  -0.04471272  0.25169530  0.00000000       0.007
   0.16767270 -0.09680589  0.00000000       0.003
   0.17326179 -0.10648647  0.00000000       0.007
  -0.05589090  0.29041766  0.00000000       0.007
  -0.05030181  0.28073707  0.00000000       0.007
  -0.04471272  0.27105648  0.00000000       0.007
  -0.03912363  0.26137589  0.00000000       0.007
  -0.03353454  0.25169530  0.00000000       0.003
  -0.05030181  0.30009825  0.00000000       0.003
  -0.04471272  0.29041766  0.00000000       0.007
  -0.03912363  0.28073707  0.00000000       0.007
  -0.03353454  0.27105648  0.00000000       0.007
  -0.02794545  0.26137589  0.00000000       0.007
  -0.03353454  0.29041766  0.00000000       0.003
  -0.02794545  0.28073707  0.00000000       0.007
  -0.02235636  0.27105648  0.00000000       0.007
  -0.01676727  0.26137589  0.00000000       0.003
  -0.01676727  0.28073707  0.00000000       0.003
  -0.01117818  0.27105648  0.00000000       0.007
   0.00000000  0.27105648  0.00000000       0.001
 
 k-points in reciprocal lattice and weights: C-2                                     
   0.00000000  0.00000000  0.00000000       0.001
   0.02380952  0.00000000  0.00000000       0.003
   0.04761905  0.00000000  0.00000000       0.003
   0.07142857  0.00000000  0.00000000       0.003
   0.09523810  0.00000000  0.00000000       0.003
   0.11904762  0.00000000  0.00000000       0.003
   0.14285714  0.00000000  0.00000000       0.003
   0.16666667  0.00000000  0.00000000       0.003
   0.19047619  0.00000000  0.00000000       0.003
   0.21428571  0.00000000  0.00000000       0.003
   0.23809524  0.00000000  0.00000000       0.003
   0.26190476  0.00000000  0.00000000       0.003
   0.28571429  0.00000000  0.00000000       0.003
   0.30952381  0.00000000  0.00000000       0.003
   0.33333333  0.00000000  0.00000000       0.003
   0.35714286  0.00000000  0.00000000       0.003
   0.38095238  0.00000000  0.00000000       0.003
   0.40476190  0.00000000  0.00000000       0.003
   0.42857143  0.00000000  0.00000000       0.003
   0.45238095  0.00000000  0.00000000       0.003
   0.47619048  0.00000000  0.00000000       0.003
   0.50000000  0.00000000  0.00000000       0.002
   0.04761905  0.02380952  0.00000000       0.003
   0.07142857  0.02380952  0.00000000       0.007
   0.09523810  0.02380952  0.00000000       0.007
   0.11904762  0.02380952  0.00000000       0.007
   0.14285714  0.02380952  0.00000000       0.007
   0.16666667  0.02380952  0.00000000       0.007
   0.19047619  0.02380952  0.00000000       0.007
   0.21428571  0.02380952  0.00000000       0.007
   0.23809524  0.02380952  0.00000000       0.007
   0.26190476  0.02380952  0.00000000       0.007
   0.28571429  0.02380952  0.00000000       0.007
   0.30952381  0.02380952  0.00000000       0.007
   0.33333333  0.02380952  0.00000000       0.007
   0.35714286  0.02380952  0.00000000       0.007
   0.38095238  0.02380952  0.00000000       0.007
   0.40476190  0.02380952  0.00000000       0.007
   0.42857143  0.02380952  0.00000000       0.007
   0.45238095  0.02380952  0.00000000       0.007
   0.47619048  0.02380952  0.00000000       0.007
   0.50000000  0.02380952  0.00000000       0.007
   0.09523810  0.04761905  0.00000000       0.003
   0.11904762  0.04761905  0.00000000       0.007
   0.14285714  0.04761905  0.00000000       0.007
   0.16666667  0.04761905  0.00000000       0.007
   0.19047619  0.04761905  0.00000000       0.007
   0.21428571  0.04761905  0.00000000       0.007
   0.23809524  0.04761905  0.00000000       0.007
   0.26190476  0.04761905  0.00000000       0.007
   0.28571429  0.04761905  0.00000000       0.007
   0.30952381  0.04761905  0.00000000       0.007
   0.33333333  0.04761905  0.00000000       0.007
   0.35714286  0.04761905  0.00000000       0.007
   0.38095238  0.04761905  0.00000000       0.007
   0.40476190  0.04761905  0.00000000       0.007
   0.42857143  0.04761905  0.00000000       0.007
   0.45238095  0.04761905  0.00000000       0.007
   0.47619048  0.04761905  0.00000000       0.007
   0.50000000  0.04761905  0.00000000       0.007
  -0.47619048  0.04761905  0.00000000       0.003
   0.14285714  0.07142857  0.00000000       0.003
   0.16666667  0.07142857  0.00000000       0.007
   0.19047619  0.07142857  0.00000000       0.007
   0.21428571  0.07142857  0.00000000       0.007
   0.23809524  0.07142857  0.00000000       0.007
   0.26190476  0.07142857  0.00000000       0.007
   0.28571429  0.07142857  0.00000000       0.007
   0.30952381  0.07142857  0.00000000       0.007
   0.33333333  0.07142857  0.00000000       0.007
   0.35714286  0.07142857  0.00000000       0.007
   0.38095238  0.07142857  0.00000000       0.007
   0.40476190  0.07142857  0.00000000       0.007
   0.42857143  0.07142857  0.00000000       0.007
   0.45238095  0.07142857  0.00000000       0.007
   0.47619048  0.07142857  0.00000000       0.007
   0.50000000  0.07142857  0.00000000       0.007
  -0.47619048  0.07142857  0.00000000       0.007
   0.19047619  0.09523810  0.00000000       0.003
   0.21428571  0.09523810  0.00000000       0.007
   0.23809524  0.09523810  0.00000000       0.007
   0.26190476  0.09523810  0.00000000       0.007
   0.28571429  0.09523810  0.00000000       0.007
   0.30952381  0.09523810  0.00000000       0.007
   0.33333333  0.09523810  0.00000000       0.007
   0.35714286  0.09523810  0.00000000       0.007
   0.38095238  0.09523810  0.00000000       0.007
   0.40476190  0.09523810  0.00000000       0.007
   0.42857143  0.09523810  0.00000000       0.007
   0.45238095  0.09523810  0.00000000       0.007
   0.47619048  0.09523810  0.00000000       0.007
   0.50000000  0.09523810  0.00000000       0.007
  -0.47619048  0.09523810  0.00000000       0.007
  -0.45238095  0.09523810  0.00000000       0.003
   0.23809524  0.11904762  0.00000000       0.003
   0.26190476  0.11904762  0.00000000       0.007
   0.28571429  0.11904762  0.00000000       0.007
   0.30952381  0.11904762  0.00000000       0.007
   0.33333333  0.11904762  0.00000000       0.007
   0.35714286  0.11904762  0.00000000       0.007
   0.38095238  0.11904762  0.00000000       0.007
   0.40476190  0.11904762  0.00000000       0.007
   0.42857143  0.11904762  0.00000000       0.007
   0.45238095  0.11904762  0.00000000       0.007
   0.47619048  0.11904762  0.00000000       0.007
   0.50000000  0.11904762  0.00000000       0.007
  -0.47619048  0.11904762  0.00000000       0.007
  -0.45238095  0.11904762  0.00000000       0.007
   0.28571429  0.14285714  0.00000000       0.003
   0.30952381  0.14285714  0.00000000       0.007
   0.33333333  0.14285714  0.00000000       0.007
   0.35714286  0.14285714  0.00000000       0.007
   0.38095238  0.14285714  0.00000000       0.007
   0.40476190  0.14285714  0.00000000       0.007
   0.42857143  0.14285714  0.00000000       0.007
   0.45238095  0.14285714  0.00000000       0.007
   0.47619048  0.14285714  0.00000000       0.007
   0.50000000  0.14285714  0.00000000       0.007
  -0.47619048  0.14285714  0.00000000       0.007
  -0.45238095  0.14285714  0.00000000       0.007
  -0.42857143  0.14285714  0.00000000       0.003
   0.33333333  0.16666667  0.00000000       0.003
   0.35714286  0.16666667  0.00000000       0.007
   0.38095238  0.16666667  0.00000000       0.007
   0.40476190  0.16666667  0.00000000       0.007
   0.42857143  0.16666667  0.00000000       0.007
   0.45238095  0.16666667  0.00000000       0.007
   0.47619048  0.16666667  0.00000000       0.007
   0.50000000  0.16666667  0.00000000       0.007
  -0.47619048  0.16666667  0.00000000       0.007
  -0.45238095  0.16666667  0.00000000       0.007
  -0.42857143  0.16666667  0.00000000       0.007
   0.38095238  0.19047619  0.00000000       0.003
   0.40476190  0.19047619  0.00000000       0.007
   0.42857143  0.19047619  0.00000000       0.007
   0.45238095  0.19047619  0.00000000       0.007
   0.47619048  0.19047619  0.00000000       0.007
   0.50000000  0.19047619  0.00000000       0.007
  -0.47619048  0.19047619  0.00000000       0.007
  -0.45238095  0.19047619  0.00000000       0.007
  -0.42857143  0.19047619  0.00000000       0.007
  -0.40476190  0.19047619  0.00000000       0.003
   0.42857143  0.21428571  0.00000000       0.003
   0.45238095  0.21428571  0.00000000       0.007
   0.47619048  0.21428571  0.00000000       0.007
   0.50000000  0.21428571  0.00000000       0.007
  -0.47619048  0.21428571  0.00000000       0.007
  -0.45238095  0.21428571  0.00000000       0.007
  -0.42857143  0.21428571  0.00000000       0.007
  -0.40476190  0.21428571  0.00000000       0.007
   0.47619048  0.23809524  0.00000000       0.003
   0.50000000  0.23809524  0.00000000       0.007
  -0.47619048  0.23809524  0.00000000       0.007
  -0.45238095  0.23809524  0.00000000       0.007
  -0.42857143  0.23809524  0.00000000       0.007
  -0.40476190  0.23809524  0.00000000       0.007
  -0.38095238  0.23809524  0.00000000       0.003
  -0.47619048  0.26190476  0.00000000       0.003
  -0.45238095  0.26190476  0.00000000       0.007
  -0.42857143  0.26190476  0.00000000       0.007
  -0.40476190  0.26190476  0.00000000       0.007
  -0.38095238  0.26190476  0.00000000       0.007
  -0.42857143  0.28571429  0.00000000       0.003
  -0.40476190  0.28571429  0.00000000       0.007
  -0.38095238  0.28571429  0.00000000       0.007
  -0.35714286  0.28571429  0.00000000       0.003
  -0.38095238  0.30952381  0.00000000       0.003
  -0.35714286  0.30952381  0.00000000       0.007
  -0.33333333  0.33333333  0.00000000       0.001
 
 position of ions in fractional coordinates (direct lattice) 
   0.00000000  0.00000000  0.00000000
   0.33333300  0.33333300  0.00000000
 
 position of ions in cartesian coordinates  (Angst):
   0.00000000  0.00000000  0.00000000
   1.41999858  0.00000000  0.00000000
 


--------------------------------------------------------------------------------------------------------


 k-point  1 :   0.0000 0.0000 0.0000  plane waves:    5409
 k-point  2 :   0.0238 0.0000 0.0000  plane waves:    5407
 k-point  3 :   0.0476 0.0000 0.0000  plane waves:    5413
 k-point  4 :   0.0714 0.0000 0.0000  plane waves:    5415
 k-point  5 :   0.0952 0.0000 0.0000  plane waves:    5402
 k-point  6 :   0.1190 0.0000 0.0000  plane waves:    5406
 k-point  7 :   0.1429 0.0000 0.0000  plane waves:    5398
 k-point  8 :   0.1667 0.0000 0.0000  plane waves:    5394
 k-point  9 :   0.1905 0.0000 0.0000  plane waves:    5404
 k-point 10 :   0.2143 0.0000 0.0000  plane waves:    5410
 k-point 11 :   0.2381 0.0000 0.0000  plane waves:    5408
 k-point 12 :   0.2619 0.0000 0.0000  plane waves:    5402
 k-point 13 :   0.2857 0.0000 0.0000  plane waves:    5404
 k-point 14 :   0.3095 0.0000 0.0000  plane waves:    5394
 k-point 15 :   0.3333 0.0000 0.0000  plane waves:    5394
 k-point 16 :   0.3571 0.0000 0.0000  plane waves:    5390
 k-point 17 :   0.3810 0.0000 0.0000  plane waves:    5382
 k-point 18 :   0.4048 0.0000 0.0000  plane waves:    5382
 k-point 19 :   0.4286 0.0000 0.0000  plane waves:    5396
 k-point 20 :   0.4524 0.0000 0.0000  plane waves:    5390
 k-point 21 :   0.4762 0.0000 0.0000  plane waves:    5380
 k-point 22 :   0.5000 0.0000 0.0000  plane waves:    5384
 k-point 23 :   0.0476 0.0238 0.0000  plane waves:    5403
 k-point 24 :   0.0714 0.0238 0.0000  plane waves:    5411
 k-point 25 :   0.0952 0.0238 0.0000  plane waves:    5401
 k-point 26 :   0.1190 0.0238 0.0000  plane waves:    5406
 k-point 27 :   0.1429 0.0238 0.0000  plane waves:    5404
 k-point 28 :   0.1667 0.0238 0.0000  plane waves:    5403
 k-point 29 :   0.1905 0.0238 0.0000  plane waves:    5397
 k-point 30 :   0.2143 0.0238 0.0000  plane waves:    5399
 k-point 31 :   0.2381 0.0238 0.0000  plane waves:    5400
 k-point 32 :   0.2619 0.0238 0.0000  plane waves:    5404
 k-point 33 :   0.2857 0.0238 0.0000  plane waves:    5404
 k-point 34 :   0.3095 0.0238 0.0000  plane waves:    5402
 k-point 35 :   0.3333 0.0238 0.0000  plane waves:    5383
 k-point 36 :   0.3571 0.0238 0.0000  plane waves:    5372
 k-point 37 :   0.3810 0.0238 0.0000  plane waves:    5386
 k-point 38 :   0.4048 0.0238 0.0000  plane waves:    5380
 k-point 39 :   0.4286 0.0238 0.0000  plane waves:    5394
 k-point 40 :   0.4524 0.0238 0.0000  plane waves:    5396
 k-point 41 :   0.4762 0.0238 0.0000  plane waves:    5391
 k-point 42 :   0.5000 0.0238 0.0000  plane waves:    5385
 k-point 43 :   0.0952 0.0476 0.0000  plane waves:    5411
 k-point 44 :   0.1190 0.0476 0.0000  plane waves:    5406
 k-point 45 :   0.1429 0.0476 0.0000  plane waves:    5415
 k-point 46 :   0.1667 0.0476 0.0000  plane waves:    5407
 k-point 47 :   0.1905 0.0476 0.0000  plane waves:    5413
 k-point 48 :   0.2143 0.0476 0.0000  plane waves:    5409
 k-point 49 :   0.2381 0.0476 0.0000  plane waves:    5399
 k-point 50 :   0.2619 0.0476 0.0000  plane waves:    5403
 k-point 51 :   0.2857 0.0476 0.0000  plane waves:    5396
 k-point 52 :   0.3095 0.0476 0.0000  plane waves:    5394
 k-point 53 :   0.3333 0.0476 0.0000  plane waves:    5389
 k-point 54 :   0.3571 0.0476 0.0000  plane waves:    5372
 k-point 55 :   0.3810 0.0476 0.0000  plane waves:    5378
 k-point 56 :   0.4048 0.0476 0.0000  plane waves:    5374
 k-point 57 :   0.4286 0.0476 0.0000  plane waves:    5381
 k-point 58 :   0.4524 0.0476 0.0000  plane waves:    5386
 k-point 59 :   0.4762 0.0476 0.0000  plane waves:    5391
 k-point 60 :   0.5000 0.0476 0.0000  plane waves:    5387
 k-point 61 :  -0.4762 0.0476 0.0000  plane waves:    5394
 k-point 62 :   0.1429 0.0714 0.0000  plane waves:    5425
 k-point 63 :   0.1667 0.0714 0.0000  plane waves:    5409
 k-point 64 :   0.1905 0.0714 0.0000  plane waves:    5409
 k-point 65 :   0.2143 0.0714 0.0000  plane waves:    5411
 k-point 66 :   0.2381 0.0714 0.0000  plane waves:    5413
 k-point 67 :   0.2619 0.0714 0.0000  plane waves:    5411
 k-point 68 :   0.2857 0.0714 0.0000  plane waves:    5395
 k-point 69 :   0.3095 0.0714 0.0000  plane waves:    5395
 k-point 70 :   0.3333 0.0714 0.0000  plane waves:    5380
 k-point 71 :   0.3571 0.0714 0.0000  plane waves:    5373
 k-point 72 :   0.3810 0.0714 0.0000  plane waves:    5372
 k-point 73 :   0.4048 0.0714 0.0000  plane waves:    5367
 k-point 74 :   0.4286 0.0714 0.0000  plane waves:    5375
 k-point 75 :   0.4524 0.0714 0.0000  plane waves:    5381
 k-point 76 :   0.4762 0.0714 0.0000  plane waves:    5389
 k-point 77 :   0.5000 0.0714 0.0000  plane waves:    5392
 k-point 78 :  -0.4762 0.0714 0.0000  plane waves:    5388
 k-point 79 :   0.1905 0.0952 0.0000  plane waves:    5403
 k-point 80 :   0.2143 0.0952 0.0000  plane waves:    5409
 k-point 81 :   0.2381 0.0952 0.0000  plane waves:    5409
 k-point 82 :   0.2619 0.0952 0.0000  plane waves:    5409
 k-point 83 :   0.2857 0.0952 0.0000  plane waves:    5419
 k-point 84 :   0.3095 0.0952 0.0000  plane waves:    5385
 k-point 85 :   0.3333 0.0952 0.0000  plane waves:    5384
 k-point 86 :   0.3571 0.0952 0.0000  plane waves:    5380
 k-point 87 :   0.3810 0.0952 0.0000  plane waves:    5369
 k-point 88 :   0.4048 0.0952 0.0000  plane waves:    5361
 k-point 89 :   0.4286 0.0952 0.0000  plane waves:    5364
 k-point 90 :   0.4524 0.0952 0.0000  plane waves:    5378
 k-point 91 :   0.4762 0.0952 0.0000  plane waves:    5382
 k-point 92 :   0.5000 0.0952 0.0000  plane waves:    5394
 k-point 93 :  -0.4762 0.0952 0.0000  plane waves:    5404
 k-point 94 :  -0.4524 0.0952 0.0000  plane waves:    5398
 k-point 95 :   0.2381 0.1190 0.0000  plane waves:    5405
 k-point 96 :   0.2619 0.1190 0.0000  plane waves:    5403
 k-point 97 :   0.2857 0.1190 0.0000  plane waves:    5401
 k-point 98 :   0.3095 0.1190 0.0000  plane waves:    5403
 k-point 99 :   0.3333 0.1190 0.0000  plane waves:    5388
 k-point ** :   0.3571 0.1190 0.0000  plane waves:    5390
 k-point ** :   0.3810 0.1190 0.0000  plane waves:    5379
 k-point ** :   0.4048 0.1190 0.0000  plane waves:    5359
 k-point ** :   0.4286 0.1190 0.0000  plane waves:    5351
 k-point ** :   0.4524 0.1190 0.0000  plane waves:    5363
 k-point ** :   0.4762 0.1190 0.0000  plane waves:    5382
 k-point ** :   0.5000 0.1190 0.0000  plane waves:    5375
 k-point ** :  -0.4762 0.1190 0.0000  plane waves:    5386
 k-point ** :  -0.4524 0.1190 0.0000  plane waves:    5396
 k-point ** :   0.2857 0.1429 0.0000  plane waves:    5405
 k-point ** :   0.3095 0.1429 0.0000  plane waves:    5401
 k-point ** :   0.3333 0.1429 0.0000  plane waves:    5404
 k-point ** :   0.3571 0.1429 0.0000  plane waves:    5390
 k-point ** :   0.3810 0.1429 0.0000  plane waves:    5382
 k-point ** :   0.4048 0.1429 0.0000  plane waves:    5367
 k-point ** :   0.4286 0.1429 0.0000  plane waves:    5347
 k-point ** :   0.4524 0.1429 0.0000  plane waves:    5358
 k-point ** :   0.4762 0.1429 0.0000  plane waves:    5367
 k-point ** :   0.5000 0.1429 0.0000  plane waves:    5379
 k-point ** :  -0.4762 0.1429 0.0000  plane waves:    5376
 k-point ** :  -0.4524 0.1429 0.0000  plane waves:    5384
 k-point ** :  -0.4286 0.1429 0.0000  plane waves:    5400
 k-point ** :   0.3333 0.1667 0.0000  plane waves:    5400
 k-point ** :   0.3571 0.1667 0.0000  plane waves:    5402
 k-point ** :   0.3810 0.1667 0.0000  plane waves:    5386
 k-point ** :   0.4048 0.1667 0.0000  plane waves:    5369
 k-point ** :   0.4286 0.1667 0.0000  plane waves:    5354
 k-point ** :   0.4524 0.1667 0.0000  plane waves:    5360
 k-point ** :   0.4762 0.1667 0.0000  plane waves:    5361
 k-point ** :   0.5000 0.1667 0.0000  plane waves:    5371
 k-point ** :  -0.4762 0.1667 0.0000  plane waves:    5374
 k-point ** :  -0.4524 0.1667 0.0000  plane waves:    5379
 k-point ** :  -0.4286 0.1667 0.0000  plane waves:    5384
 k-point ** :   0.3810 0.1905 0.0000  plane waves:    5390
 k-point ** :   0.4048 0.1905 0.0000  plane waves:    5379
 k-point ** :   0.4286 0.1905 0.0000  plane waves:    5358
 k-point ** :   0.4524 0.1905 0.0000  plane waves:    5357
 k-point ** :   0.4762 0.1905 0.0000  plane waves:    5365
 k-point ** :   0.5000 0.1905 0.0000  plane waves:    5371
 k-point ** :  -0.4762 0.1905 0.0000  plane waves:    5363
 k-point ** :  -0.4524 0.1905 0.0000  plane waves:    5368
 k-point ** :  -0.4286 0.1905 0.0000  plane waves:    5377
 k-point ** :  -0.4048 0.1905 0.0000  plane waves:    5364
 k-point ** :   0.4286 0.2143 0.0000  plane waves:    5360
 k-point ** :   0.4524 0.2143 0.0000  plane waves:    5360
 k-point ** :   0.4762 0.2143 0.0000  plane waves:    5371
 k-point ** :   0.5000 0.2143 0.0000  plane waves:    5367
 k-point ** :  -0.4762 0.2143 0.0000  plane waves:    5369
 k-point ** :  -0.4524 0.2143 0.0000  plane waves:    5358
 k-point ** :  -0.4286 0.2143 0.0000  plane waves:    5359
 k-point ** :  -0.4048 0.2143 0.0000  plane waves:    5376
 k-point ** :   0.4762 0.2381 0.0000  plane waves:    5364
 k-point ** :   0.5000 0.2381 0.0000  plane waves:    5367
 k-point ** :  -0.4762 0.2381 0.0000  plane waves:    5368
 k-point ** :  -0.4524 0.2381 0.0000  plane waves:    5356
 k-point ** :  -0.4286 0.2381 0.0000  plane waves:    5360
 k-point ** :  -0.4048 0.2381 0.0000  plane waves:    5363
 k-point ** :  -0.3810 0.2381 0.0000  plane waves:    5366
 k-point ** :  -0.4762 0.2619 0.0000  plane waves:    5368
 k-point ** :  -0.4524 0.2619 0.0000  plane waves:    5364
 k-point ** :  -0.4286 0.2619 0.0000  plane waves:    5358
 k-point ** :  -0.4048 0.2619 0.0000  plane waves:    5350
 k-point ** :  -0.3810 0.2619 0.0000  plane waves:    5349
 k-point ** :  -0.4286 0.2857 0.0000  plane waves:    5362
 k-point ** :  -0.4048 0.2857 0.0000  plane waves:    5344
 k-point ** :  -0.3810 0.2857 0.0000  plane waves:    5326
 k-point ** :  -0.3571 0.2857 0.0000  plane waves:    5328
 k-point ** :  -0.3810 0.3095 0.0000  plane waves:    5342
 k-point ** :  -0.3571 0.3095 0.0000  plane waves:    5333
 k-point ** :  -0.3333 0.3333 0.0000  plane waves:    5334

 maximum and minimum number of plane-waves per node :       928      873

 maximum number of plane-waves:      5425
 maximum index in each direction: 
   IXMAX=    6   IYMAX=    5   IZMAX=   46
   IXMIN=   -6   IYMIN=   -5   IZMIN=  -46


 parallel 3D FFT for wavefunctions:
    minimum data exchange during FFTs selected (reduces bandwidth)
 parallel 3D FFT for charge:
    minimum data exchange during FFTs selected (reduces bandwidth)


 total amount of memory used by VASP MPI-rank0    51801. kBytes
=======================================================================

   base      :      30000. kBytes
   nonl-proj :       9763. kBytes
   fftplans  :       4589. kBytes
   grid      :       2514. kBytes
   one-center:          3. kBytes
   wavefun   :       4932. kBytes
 
     INWAV:  cpu time    0.0000: real time    0.0000
 Broyden mixing: mesh for mixing (old mesh)
   NGX = 11   NGY = 11   NGZ = 93
  (NGX  = 48   NGY  = 48   NGZ  =384)
  gives a total of  11253 points

 initial charge density was supplied:
 number of electron       8.0000000 magnetization 
 keeping initial charge density in first step


--------------------------------------------------------------------------------------------------------


 Maximum index for augmentation-charges         3260 (set IRDMAX)


--------------------------------------------------------------------------------------------------------


 First call to EWALD:  gamma=   0.376
 Maximum number of real-space cells 5x 5x 1
 Maximum number of reciprocal cells 2x 2x10

    FEWALD:  cpu time    0.0012: real time    0.0012


--------------------------------------- Iteration      1(   1)  ---------------------------------------


    POTLOK:  cpu time    0.0237: real time    0.0415
    SETDIJ:  cpu time    0.0120: real time    0.0121
     EDDAV:  cpu time    0.7027: real time    0.7044
       DOS:  cpu time    0.0053: real time    0.0053
    --------------------------------------------
      LOOP:  cpu time    0.7437: real time    0.7634

 eigenvalue-minimisations  :  4056
 total energy-change (2. order) : 0.3697983E+02  (-0.3713957E+03)
 number of electron       8.0000000 magnetization 
 augmentation part        8.0000000 magnetization 

 Free energy of the ion-electron system (eV)
  ---------------------------------------------------
  alpha Z        PSCENC =         3.11066570
  Ewald energy   TEWEN  =      1303.03316907
  -Hartree energ DENC   =     -1550.04196571
  -exchange      EXHF   =         0.00000000
  -V(xc)+E(xc)   XCENC  =        28.81789780
  PAW double counting   =       139.92185291     -142.50237342
  entropy T*S    EENTRO =        -0.00568099
  eigenvalues    EBANDS =       -39.66258111
  atomic energy  EATOM  =       294.30884690
  Solvation  Ediel_sol  =         0.00000000
  ---------------------------------------------------
  free energy    TOTEN  =        36.97983115 eV

  energy without entropy =       36.98551215  energy(sigma->0) =       36.98267165


--------------------------------------------------------------------------------------------------------




--------------------------------------- Iteration      1(   2)  ---------------------------------------


     EDDAV:  cpu time    0.9261: real time    0.9308
       DOS:  cpu time    0.0063: real time    0.0063
    --------------------------------------------
      LOOP:  cpu time    0.9324: real time    0.9371

 eigenvalue-minimisations  :  5772
 total energy-change (2. order) :-0.5290789E+02  (-0.4210026E+02)
 number of electron       8.0000000 magnetization 
 augmentation part        8.0000000 magnetization 

 Free energy of the ion-electron system (eV)
  ---------------------------------------------------
  alpha Z        PSCENC =         3.11066570
  Ewald energy   TEWEN  =      1303.03316907
  -Hartree energ DENC   =     -1550.04196571
  -exchange      EXHF   =         0.00000000
  -V(xc)+E(xc)   XCENC  =        28.81789780
  PAW double counting   =       139.92185291     -142.50237342
  entropy T*S    EENTRO =        -0.00024038
  eigenvalues    EBANDS =       -92.57591613
  atomic energy  EATOM  =       294.30884690
  Solvation  Ediel_sol  =         0.00000000
  ---------------------------------------------------
  free energy    TOTEN  =       -15.92806326 eV

  energy without entropy =      -15.92782288  energy(sigma->0) =      -15.92794307


--------------------------------------------------------------------------------------------------------




--------------------------------------- Iteration      1(   3)  ---------------------------------------


     EDDAV:  cpu time    0.8675: real time    0.8697
       DOS:  cpu time    0.0070: real time    0.0070
    --------------------------------------------
      LOOP:  cpu time    0.8745: real time    0.8767

 eigenvalue-minimisations  :  5172
 total energy-change (2. order) :-0.2518166E+01  (-0.2517403E+01)
 number of electron       8.0000000 magnetization 
 augmentation part        8.0000000 magnetization 

 Free energy of the ion-electron system (eV)
  ---------------------------------------------------
  alpha Z        PSCENC =         3.11066570
  Ewald energy   TEWEN  =      1303.03316907
  -Hartree energ DENC   =     -1550.04196571
  -exchange      EXHF   =         0.00000000
  -V(xc)+E(xc)   XCENC  =        28.81789780
  PAW double counting   =       139.92185291     -142.50237342
  entropy T*S    EENTRO =        -0.00012793
  eigenvalues    EBANDS =       -95.09419451
  atomic energy  EATOM  =       294.30884690
  Solvation  Ediel_sol  =         0.00000000
  ---------------------------------------------------
  free energy    TOTEN  =       -18.44622919 eV

  energy without entropy =      -18.44610126  energy(sigma->0) =      -18.44616522


--------------------------------------------------------------------------------------------------------




--------------------------------------- Iteration      1(   4)  ---------------------------------------


     EDDAV:  cpu time    1.0493: real time    1.0601
       DOS:  cpu time    0.0070: real time    0.0070
    --------------------------------------------
      LOOP:  cpu time    1.0563: real time    1.0670

 eigenvalue-minimisations  :  6456
 total energy-change (2. order) :-0.1276045E-01  (-0.1276045E-01)
 number of electron       8.0000000 magnetization 
 augmentation part        8.0000000 magnetization 

 Free energy of the ion-electron system (eV)
  ---------------------------------------------------
  alpha Z        PSCENC =         3.11066570
  Ewald energy   TEWEN  =      1303.03316907
  -Hartree energ DENC   =     -1550.04196571
  -exchange      EXHF   =         0.00000000
  -V(xc)+E(xc)   XCENC  =        28.81789780
  PAW double counting   =       139.92185291     -142.50237342
  entropy T*S    EENTRO =        -0.00012793
  eigenvalues    EBANDS =       -95.10695496
  atomic energy  EATOM  =       294.30884690
  Solvation  Ediel_sol  =         0.00000000
  ---------------------------------------------------
  free energy    TOTEN  =       -18.45898964 eV

  energy without entropy =      -18.45886170  energy(sigma->0) =      -18.45892567


--------------------------------------------------------------------------------------------------------




--------------------------------------- Iteration      1(   5)  ---------------------------------------


     EDDAV:  cpu time    0.8664: real time    0.8685
       DOS:  cpu time    0.0070: real time    0.0070
    CHARGE:  cpu time    0.0499: real time    0.0501
    MIXING:  cpu time    0.0009: real time    0.0009
    --------------------------------------------
      LOOP:  cpu time    0.9241: real time    0.9265

 eigenvalue-minimisations  :  5292
 total energy-change (2. order) :-0.3099733E-04  (-0.3099764E-04)
 number of electron       8.0000000 magnetization 
 augmentation part        0.1924566 magnetization 

 Broyden mixing:
  rms(total) = 0.17658E-04    rms(broyden)= 0.17636E-04
  rms(prec ) = 0.18458E-04
  weight for this iteration     100.00

 Free energy of the ion-electron system (eV)
  ---------------------------------------------------
  alpha Z        PSCENC =         3.11066570
  Ewald energy   TEWEN  =      1303.03316907
  -Hartree energ DENC   =     -1550.04196571
  -exchange      EXHF   =         0.00000000
  -V(xc)+E(xc)   XCENC  =        28.81789780
  PAW double counting   =       139.92185291     -142.50237342
  entropy T*S    EENTRO =        -0.00012793
  eigenvalues    EBANDS =       -95.10698595
  atomic energy  EATOM  =       294.30884690
  Solvation  Ediel_sol  =         0.00000000
  ---------------------------------------------------
  free energy    TOTEN  =       -18.45902064 eV

  energy without entropy =      -18.45889270  energy(sigma->0) =      -18.45895667


--------------------------------------------------------------------------------------------------------




--------------------------------------- Iteration      1(   6)  ---------------------------------------


    POTLOK:  cpu time    0.0123: real time    0.0185
    SETDIJ:  cpu time    0.0082: real time    0.0082
     EDDAV:  cpu time    1.0650: real time    1.0676
       DOS:  cpu time    0.0070: real time    0.0070
    CHARGE:  cpu time    0.0495: real time    0.0496
    MIXING:  cpu time    0.0008: real time    0.0008
    --------------------------------------------
      LOOP:  cpu time    1.1427: real time    1.1516

 eigenvalue-minimisations  :  6480
 total energy-change (2. order) :-0.3415674E-06  (-0.3347602E-06)
 number of electron       8.0000000 magnetization 
 augmentation part        0.1924590 magnetization 

 Broyden mixing:
  rms(total) = 0.66722E-05    rms(broyden)= 0.66677E-05
  rms(prec ) = 0.68853E-05
  weight for this iteration     100.00

 eigenvalues of (default mixing * dielectric matrix)
  average eigenvalue GAMMA=   1.2300
  1.2300

 Free energy of the ion-electron system (eV)
  ---------------------------------------------------
  alpha Z        PSCENC =         3.11066570
  Ewald energy   TEWEN  =      1303.03316907
  -Hartree energ DENC   =     -1550.04176931
  -exchange      EXHF   =         0.00000000
  -V(xc)+E(xc)   XCENC  =        28.81788830
  PAW double counting   =       139.92178225     -142.50229113
  entropy T*S    EENTRO =        -0.00012793
  eigenvalues    EBANDS =       -95.10718483
  atomic energy  EATOM  =       294.30884690
  Solvation  Ediel_sol  =         0.00000000
  ---------------------------------------------------
  free energy    TOTEN  =       -18.45902098 eV

  energy without entropy =      -18.45889304  energy(sigma->0) =      -18.45895701


--------------------------------------------------------------------------------------------------------




--------------------------------------- Iteration      1(   7)  ---------------------------------------


    POTLOK:  cpu time    0.0124: real time    0.0144
    SETDIJ:  cpu time    0.0082: real time    0.0082
     EDDAV:  cpu time    0.9185: real time    0.9206
       DOS:  cpu time    0.0070: real time    0.0070
    --------------------------------------------
      LOOP:  cpu time    0.9461: real time    0.9502

 eigenvalue-minimisations  :  5640
 total energy-change (2. order) :-0.7962058E-09  (-0.2630869E-09)
 number of electron       8.0000000 magnetization 
 augmentation part        0.1924590 magnetization 

 Free energy of the ion-electron system (eV)
  ---------------------------------------------------
  alpha Z        PSCENC =         3.11066570
  Ewald energy   TEWEN  =      1303.03316907
  -Hartree energ DENC   =     -1550.04169781
  -exchange      EXHF   =         0.00000000
  -V(xc)+E(xc)   XCENC  =        28.81788536
  PAW double counting   =       139.92165029     -142.50215806
  entropy T*S    EENTRO =        -0.00012793
  eigenvalues    EBANDS =       -95.10725450
  atomic energy  EATOM  =       294.30884690
  Solvation  Ediel_sol  =         0.00000000
  ---------------------------------------------------
  free energy    TOTEN  =       -18.45902098 eV

  energy without entropy =      -18.45889304  energy(sigma->0) =      -18.45895701


--------------------------------------------------------------------------------------------------------




 average (electrostatic) potential at core
  the test charge radii are     0.6991
  (the norm of the test charge is              1.0000)
       1 -58.1430       2 -58.1430
 
 
 
 E-fermi :  -2.7218     XC(G=0):  -2.1518     alpha+bet : -1.9163


 k-point     1 :       0.0000    0.0000    0.0000
  band No.  band energies     occupation 
      1     -22.2970      2.00000
      2     -10.3902      2.00000
      3      -5.7500      2.00000
      4      -5.7500      2.00000
      5       0.5266      0.00000
      6       1.3284      0.00000
      7       1.6968      0.00000
      8       2.6044      0.00000
      9       3.0677      0.00000
     10       4.7277      0.00000
     11       5.3494      0.00000
     12       5.6502      0.00000

 k-point     2 :       0.0238    0.0000    0.0000
  band No.  band energies     occupation 
      1     -22.2836      2.00000
      2     -10.3740      2.00000
      3      -5.8059      2.00000
      4      -5.7798      2.00000
      5       0.5449      0.00000
      6       1.3469      0.00000
      7       1.7156      0.00000
      8       2.6229      0.00000
      9       3.0862      0.00000
     10       4.7461      0.00000
     11       5.3662      0.00000
     12       5.6603      0.00000

 k-point     3 :       0.0476    0.0000    0.0000
  band No.  band energies     occupation 
      1     -22.2432      2.00000
      2     -10.3257      2.00000
      3      -5.9709      2.00000
      4      -5.8669      2.00000
      5       0.5997      0.00000
      6       1.4025      0.00000
      7       1.7718      0.00000
      8       2.6787      0.00000
      9       3.1417      0.00000
     10       4.8013      0.00000
     11       5.4164      0.00000
     12       5.6876      0.00000

 k-point     4 :       0.0714    0.0000    0.0000
  band No.  band energies     occupation 
      1     -22.1759      2.00000
      2     -10.2453      2.00000
      3      -6.2365      2.00000
      4      -6.0054      2.00000
      5       0.6911      0.00000
      6       1.4950      0.00000
      7       1.8655      0.00000
      8       2.7715      0.00000
      9       3.2343      0.00000
     10       4.8932      0.00000
     11       5.4972      0.00000
     12       5.7261      0.00000

 k-point     5 :       0.0952    0.0000    0.0000
  band No.  band energies     occupation 
      1     -22.0819      2.00000
      2     -10.1330      2.00000
      3      -6.5908      2.00000
      4      -6.1867      2.00000
      5       0.8190      0.00000
      6       1.6245      0.00000
      7       1.9966      0.00000
      8       2.9015      0.00000
      9       3.3639      0.00000
     10       5.0217      0.00000
     11       5.5962      0.00000
     12       5.7769      0.00000

 k-point     6 :       0.1190    0.0000    0.0000
  band No.  band energies     occupation 
      1     -21.9611      2.00000
      2      -9.9889      2.00000
      3      -7.0200      2.00000
      4      -6.4009      2.00000
      5       0.9835      0.00000
      6       1.7910      0.00000
      7       2.1653      0.00000
      8       3.0685      0.00000
      9       3.5305      0.00000
     10       5.1868      0.00000
     11       5.6685      0.00000
     12       5.8755      0.00000

 k-point     7 :       0.1429    0.0000    0.0000
  band No.  band energies     occupation 
      1     -21.8136      2.00000
      2      -9.8136      2.00000
      3      -7.5101      2.00000
      4      -6.6383      2.00000
      5       1.1845      0.00000
      6       1.9942      0.00000
      7       2.3714      0.00000
      8       3.2724      0.00000
      9       3.7341      0.00000
     10       5.3880      0.00000
     11       5.6805      0.00000
     12       6.0497      0.00000

 k-point     8 :       0.1667    0.0000    0.0000
  band No.  band energies     occupation 
      1     -21.6397      2.00000
      2      -9.6073      2.00000
      3      -8.0483      2.00000
      4      -6.8897      2.00000
      5       1.4219      0.00000
      6       2.2340      0.00000
      7       2.6150      0.00000
      8       3.5132      0.00000
      9       3.9744      0.00000
     10       5.6241      0.00000
     11       5.6530      0.00000
     12       6.2777      0.00000

 k-point     9 :       0.1905    0.0000    0.0000
  band No.  band energies     occupation 
      1     -21.4394      2.00000
      2      -9.3707      2.00000
      3      -8.6228      2.00000
      4      -7.1470      2.00000
      5       1.6958      0.00000
      6       2.5102      0.00000
      7       2.8960      0.00000
      8       3.7903      0.00000
      9       4.2513      0.00000
     10       5.6001      0.00000
     11       5.8792      0.00000
     12       6.1621      0.00000

 k-point    10 :       0.2143    0.0000    0.0000
  band No.  band energies     occupation 
      1     -21.2131      2.00000
      2      -9.2236      2.00000
      3      -9.1045      2.00000
      4      -7.4037      2.00000
      5       2.0059      0.00000
      6       2.8221      0.00000
      7       3.2145      0.00000
      8       4.1025      0.00000
      9       4.5637      0.00000
     10       5.5304      0.00000
     11       5.5308      0.00000
     12       6.2271      0.00000

 k-point    11 :       0.2381    0.0000    0.0000
  band No.  band energies     occupation 
      1     -20.9609      2.00000
      2      -9.8424      2.00000
      3      -8.8097      2.00000
      4      -7.6540      2.00000
      5       2.3522      0.00000
      6       3.1672      0.00000
      7       3.5703      0.00000
      8       4.4375      0.00000
      9       4.9078      0.00000
     10       4.9288      0.00000
     11       5.4542      0.00000
     12       6.5690      0.00000

 k-point    12 :       0.2619    0.0000    0.0000
  band No.  band energies     occupation 
      1     -20.6831      2.00000
      2     -10.4720      2.00000
      3      -8.4875      2.00000
      4      -7.8935      2.00000
      5       2.7344      0.00000
      6       3.5309      0.00000
      7       3.9635      0.00000
      8       4.2556      0.00000
      9       4.8725      0.00000
     10       5.2294      0.00000
     11       5.4310      0.00000
     12       6.9508      0.00000

 k-point    13 :       0.2857    0.0000    0.0000
  band No.  band energies     occupation 
      1     -20.3801      2.00000
      2     -11.1063      2.00000
      3      -8.1396      2.00000
      4      -8.1184      2.00000
      5       3.1520      0.00000
      6       3.5047      0.00000
      7       4.0526      0.00000
      8       4.3937      0.00000
      9       5.2326      0.00000
     10       5.2858      0.00000
     11       5.7621      0.00000
     12       7.3689      0.00000

 k-point    14 :       0.3095    0.0000    0.0000
  band No.  band energies     occupation 
      1     -20.0524      2.00000
      2     -11.7404      2.00000
      3      -8.3258      2.00000
      4      -7.7685      2.00000
      5       2.8753      0.00000
      6       3.6044      0.00000
      7       4.4737      0.00000
      8       4.8579      0.00000
      9       5.1568      0.00000
     10       5.7453      0.00000
     11       6.2153      0.00000
     12       7.8223      0.00000

 k-point    15 :       0.3333    0.0000    0.0000
  band No.  band energies     occupation 
      1     -19.7007      2.00000
      2     -12.3699      2.00000
      3      -8.5133      2.00000
      4      -7.3772      2.00000
      5       2.2156      0.00000
      6       4.0891      0.00000
      7       4.9624      0.00000
      8       5.0658      0.00000
      9       5.3763      0.00000
     10       6.2428      0.00000
     11       6.7120      0.00000
     12       8.3101      0.00000

 k-point    16 :       0.3571    0.0000    0.0000
  band No.  band energies     occupation 
      1     -19.3257      2.00000
      2     -12.9910      2.00000
      3      -8.6791      2.00000
      4      -6.9707      2.00000
[...]
      7       5.7541      0.00000
      8       6.2496      0.00000
      9       7.0604      0.00000
     10       7.5625      0.00000
     11       8.5696      0.00000
     12       9.0165      0.00000

 k-point   144 :       0.4524    0.2143    0.0000
  band No.  band energies     occupation 
      1     -18.7403      2.00000
      2     -12.5623      2.00000
      3     -10.9869      2.00000
      4      -6.2852      2.00000
      5       1.0734      0.00000
      6       5.4549      0.00000
      7       6.2394      0.00000
      8       6.7737      0.00000
      9       7.5532      0.00000
     10       8.0741      0.00000
     11       8.7780      0.00000
     12       9.4159      0.00000

 k-point   145 :       0.4762    0.2143    0.0000
  band No.  band energies     occupation 
      1     -18.3626      2.00000
      2     -13.0151      2.00000
      3     -11.2576      2.00000
      4      -5.8778      2.00000
      5       0.5588      0.00000
      6       5.9921      0.00000
      7       6.7438      0.00000
      8       7.3349      0.00000
      9       8.0668      0.00000
     10       8.5919      0.00000
     11       8.8316      0.00000
     12       9.7574      0.00000

 k-point   146 :       0.5000    0.2143    0.0000
  band No.  band energies     occupation 
      1     -17.9655      2.00000
      2     -13.4964      2.00000
      3     -11.4682      2.00000
      4      -5.4623      2.00000
      5       0.0512      0.00000
      6       6.5610      0.00000
      7       7.2526      0.00000
      8       7.9328      0.00000
      9       8.5863      0.00000
     10       8.7276      0.00000
     11       9.2431      0.00000
     12      10.0031      0.00000

 k-point   147 :      -0.4762    0.2143    0.0000
  band No.  band energies     occupation 
      1     -17.5520      2.00000
      2     -13.9912      2.00000
      3     -11.6268      2.00000
      4      -5.0499      2.00000
      5      -0.4370      0.00000
      6       7.1594      0.00000
      7       7.7348      0.00000
      8       8.5601      0.00000
      9       8.6970      0.00000
     10       9.0837      0.00000
     11       9.8513      0.00000
     12      10.2206      0.00000

 k-point   148 :      -0.4524    0.2143    0.0000
  band No.  band energies     occupation 
      1     -17.1289      2.00000
      2     -14.4830      2.00000
      3     -11.7404      2.00000
      4      -4.6607      2.00000
      5      -0.8844      0.00000
      6       7.7817      0.00000
      7       8.1329      0.00000
      8       8.6478      0.00000
      9       9.2439      0.00000
     10       9.5398      0.00000
     11      10.4863      0.00000
     12      10.5520      0.00000

 k-point   149 :      -0.4286    0.2143    0.0000
  band No.  band energies     occupation 
      1     -16.7141      2.00000
      2     -14.9468      2.00000
      3     -11.8139      2.00000
      4      -4.3329      2.00000
      5      -1.2516      0.00000
      6       8.3860      0.00000
      7       8.3970      0.00000
      8       8.6490      0.00000
      9       9.9494      0.00000
     10      10.0049      0.00000
     11      10.3712      0.00000
     12      11.0210      0.00000

 k-point   150 :      -0.4048    0.2143    0.0000
  band No.  band energies     occupation 
      1     -16.3815      2.00000
      2     -15.3049      2.00000
      3     -11.8500      2.00000
      4      -4.1332      2.00000
      5      -1.4713      0.00000
      6       8.4944      0.00000
      7       8.5717      0.00000
      8       9.1034      0.00000
      9       9.7911      0.00000
     10      10.4834      0.00000
     11      10.6959      0.00000
     12      11.2960      0.00000

 k-point   151 :       0.4762    0.2381    0.0000
  band No.  band energies     occupation 
      1     -18.3752      2.00000
      2     -12.9063      2.00000
      3     -11.3671      2.00000
      4      -5.8874      2.00000
      5       0.5895      0.00000
      6       5.9743      0.00000
      7       6.7213      0.00000
      8       7.3163      0.00000
      9       8.0452      0.00000
     10       8.6038      0.00000
     11       9.2595      0.00000
     12       9.7285      0.00000

 k-point   152 :       0.5000    0.2381    0.0000
  band No.  band energies     occupation 
      1     -17.9899      2.00000
      2     -13.2934      2.00000
      3     -11.6778      2.00000
      4      -5.4768      2.00000
      5       0.1051      0.00000
      6       6.5257      0.00000
      7       7.2035      0.00000
      8       7.8959      0.00000
      9       8.5399      0.00000
     10       9.1457      0.00000
     11       9.4393      0.00000
     12       9.9416      0.00000

 k-point   153 :      -0.4762    0.2381    0.0000
  band No.  band energies     occupation 
      1     -17.5871      2.00000
      2     -13.7205      2.00000
      3     -11.9149      2.00000
      4      -5.0610      2.00000
      5      -0.3722      0.00000
      6       7.1069      0.00000
      7       7.6500      0.00000
      8       8.5120      0.00000
      9       9.0084      0.00000
     10       9.3493      0.00000
     11       9.8078      0.00000
     12      10.1427      0.00000

 k-point   154 :      -0.4524    0.2381    0.0000
  band No.  band energies     occupation 
      1     -17.1711      2.00000
      2     -14.1724      2.00000
      3     -12.0856      2.00000
      4      -4.6530      2.00000
      5      -0.8286      0.00000
      6       7.7144      0.00000
      7       7.9988      0.00000
      8       9.1584      0.00000
      9       9.3202      0.00000
     10       9.4443      0.00000
     11      10.4147      0.00000
     12      10.4818      0.00000

 k-point   155 :      -0.4286    0.2381    0.0000
  band No.  band energies     occupation 
      1     -16.7522      2.00000
      2     -14.6263      2.00000
      3     -12.2000      2.00000
      4      -4.2786      2.00000
      5      -1.2381      0.00000
      6       8.2015      0.00000
      7       8.3403      0.00000
      8       9.2726      0.00000
      9       9.8579      0.00000
     10       9.9171      0.00000
     11      10.6572      0.00000
     12      10.9800      0.00000

 k-point   156 :      -0.4048    0.2381    0.0000
  band No.  band energies     occupation 
      1     -16.3639      2.00000
      2     -15.0392      2.00000
      3     -12.2658      2.00000
      4      -3.9901      2.00000
      5      -1.5479      0.00000
      6       8.2853      0.00000
      7       8.9555      0.00000
      8       9.2659      0.00000
      9      10.2469      0.00000
     10      10.4608      0.00000
     11      10.5874      0.00000
     12      11.5022      0.00000

 k-point   157 :      -0.3810    0.2381    0.0000
  band No.  band energies     occupation 
      1     -16.1589      2.00000
      2     -15.2529      2.00000
      3     -12.2873      2.00000
      4      -3.8751      2.00000
      5      -1.6701      0.00000
      6       8.3058      0.00000
      7       9.1925      0.00000
      8       9.5161      0.00000
      9       9.8087      0.00000
     10      10.8633      0.00000
     11      11.3299      0.00000
     12      11.3520      0.00000

 k-point   158 :      -0.4762    0.2619    0.0000
  band No.  band energies     occupation 
      1     -17.5989      2.00000
      2     -13.6069      2.00000
      3     -12.0345      2.00000
      4      -5.0649      2.00000
      5      -0.3495      0.00000
      6       7.0893      0.00000
      7       7.6208      0.00000
      8       8.4937      0.00000
      9       8.9830      0.00000
     10       9.7000      0.00000
     11       9.9878      0.00000
     12      10.1161      0.00000

 k-point   159 :      -0.4524    0.2619    0.0000
  band No.  band energies     occupation 
      1     -17.1927      2.00000
      2     -13.9650      2.00000
      3     -12.3108      2.00000
      4      -4.6500      2.00000
      5      -0.7976      0.00000
      6       7.6797      0.00000
      7       7.9284      0.00000
      8       9.1275      0.00000
      9       9.3956      0.00000
     10       9.9272      0.00000
     11      10.3464      0.00000
     12      10.4437      0.00000

 k-point   160 :      -0.4286    0.2619    0.0000
  band No.  band energies     occupation 
      1     -16.7778      2.00000
      2     -14.3600      2.00000
      3     -12.5045      2.00000
      4      -4.2475      2.00000
      5      -1.2247      0.00000
      6       8.0833      0.00000
      7       8.2905      0.00000
      8       9.7855      0.00000
      9       9.8595      0.00000
     10       9.8943      0.00000
     11      10.6692      0.00000
     12      10.9423      0.00000

 k-point   161 :      -0.4048    0.2619    0.0000
  band No.  band energies     occupation 
      1     -16.3708      2.00000
      2     -14.7637      2.00000
      3     -12.6249      2.00000
      4      -3.8905      2.00000
      5      -1.5980      0.00000
      6       8.1300      0.00000
      7       8.9083      0.00000
      8       9.8356      0.00000
      9      10.4144      0.00000
     10      10.4862      0.00000
     11      10.6033      0.00000
     12      11.5280      0.00000

 k-point   162 :      -0.3810    0.2619    0.0000
  band No.  band energies     occupation 
      1     -16.0392      2.00000
      2     -15.0969      2.00000
      3     -12.6823      2.00000
      4      -3.6552      2.00000
      5      -1.8414      0.00000
      6       8.1360      0.00000
      7       9.4909      0.00000
      8       9.7930      0.00000
      9      10.2221      0.00000
     10      10.9966      0.00000
     11      11.2491      0.00000
     12      11.8146      0.00000

 k-point   163 :      -0.4286    0.2857    0.0000
  band No.  band energies     occupation 
      1     -16.7868      2.00000
      2     -14.2470      2.00000
      3     -12.6300      2.00000
      4      -4.2374      2.00000
      5      -1.2193      0.00000
      6       8.0426      0.00000
      7       8.2734      0.00000
      8       9.7778      0.00000
      9       9.8396      0.00000
     10      10.3250      0.00000
     11      10.4423      0.00000
     12      10.9282      0.00000

 k-point   164 :      -0.4048    0.2857    0.0000
  band No.  band energies     occupation 
      1     -16.3785      2.00000
      2     -14.5718      2.00000
      3     -12.8551      2.00000
      4      -3.8394      2.00000
      5      -1.6227      0.00000
      6       8.0479      0.00000
      7       8.8764      0.00000
      8      10.2813      0.00000
      9      10.3859      0.00000
     10      10.4571      0.00000
     11      10.6809      0.00000
     12      11.5179      0.00000

 k-point   165 :      -0.3810    0.2857    0.0000
  band No.  band energies     occupation 
      1     -15.9953      2.00000
      2     -14.9109      2.00000
      3     -12.9848      2.00000
      4      -3.4995      2.00000
      5      -1.9652      0.00000
      6       8.0229      0.00000
      7       9.4613      0.00000
      8      10.2082      0.00000
      9      10.6042      0.00000
     10      10.9989      0.00000
     11      11.1981      0.00000
     12      12.1097      0.00000

 k-point   166 :      -0.3571    0.2857    0.0000
  band No.  band energies     occupation 
      1     -15.7810      2.00000
      2     -15.1120      2.00000
      3     -13.0267      2.00000
      4      -3.3439      2.00000
      5      -2.1217      0.00000
      6       8.0105      0.00000
      7       9.9006      0.00000
      8      10.0251      0.00000
      9      10.4852      0.00000
     10      11.4735      0.00000
     11      11.9274      0.00000
     12      11.9573      0.00000

 k-point   167 :      -0.3810    0.3095    0.0000
  band No.  band energies     occupation 
      1     -15.9855      2.00000
      2     -14.8239      2.00000
      3     -13.1061      2.00000
      4      -3.4416      2.00000
      5      -2.0120      0.00000
      6       7.9836      0.00000
      7       9.4475      0.00000
      8      10.3732      0.00000
      9      10.7551      0.00000
     10      10.9929      0.00000
     11      11.1847      0.00000
     12      12.1485      0.00000

 k-point   168 :      -0.3571    0.3095    0.0000
  band No.  band energies     occupation 
      1     -15.6426      2.00000
      2     -15.0932      2.00000
      3     -13.2352      2.00000
      4      -3.1090      2.00000
      5      -2.3400      0.00000
      6       7.9414      0.00000
      7       9.9405      0.00000
      8      10.2822      0.00000
      9      10.7612      0.00000
     10      11.6243      0.00000
     11      11.9029      0.00000
     12      12.4068      0.00000

 k-point   169 :      -0.3333    0.3333    0.0000
  band No.  band energies     occupation 
      1     -15.3357      2.00000
      2     -15.3357      2.00000
      3     -13.3265      2.00000
      4      -2.7218      1.00015
      5      -2.7217      0.99985
      6       7.9118      0.00000
      7      10.2206      0.00000
      8      10.2206      0.00000
      9      10.8102      0.00000
     10      12.1933      0.00000
     11      12.1933      0.00000
     12      12.5590      0.00000


--------------------------------------------------------------------------------------------------------


 soft charge-density along one line, spin component           1
         0         1         2         3         4         5         6         7         8         9
 total charge-density along one line
 
 pseudopotential strength for first ion, spin component:           1
 10.225   0.019  -0.000   0.000   0.000   0.000  -0.000  -0.000
  0.019  -0.002   0.000  -0.000  -0.000   0.000  -0.000  -0.000
 -0.000   0.000  -4.341  -0.000  -0.000  -0.018  -0.000  -0.000
  0.000  -0.000  -0.000  -4.335  -0.000  -0.000  -0.015  -0.000
  0.000  -0.000  -0.000  -0.000  -4.341  -0.000  -0.000  -0.018
  0.000   0.000  -0.018  -0.000  -0.000  -0.772  -0.000  -0.000
 -0.000  -0.000  -0.000  -0.015  -0.000  -0.000  -0.772  -0.000
 -0.000  -0.000  -0.000  -0.000  -0.018  -0.000  -0.000  -0.772
 total augmentation occupancy for first ion, spin component:           1
  1.469  -1.133  -0.000   0.000   0.000   0.000   0.000   0.000
 -1.133   1.076   0.000   0.000   0.000   0.000   0.000   0.000
 -0.000   0.000   1.227   0.000   0.000   0.230   0.000   0.000
  0.000   0.000   0.000   0.932  -0.000  -0.000   0.106  -0.000
  0.000  -0.000   0.000   0.000   1.227   0.000   0.000   0.230
 -0.000   0.000   0.230  -0.000   0.000   0.049   0.000   0.000
  0.000   0.000  -0.000   0.106  -0.000  -0.000   0.014   0.000
  0.000   0.000   0.000   0.000   0.230   0.000  -0.000   0.049


------------------------ aborting loop because EDIFF is reached ----------------------------------------


    CHARGE:  cpu time    0.0499: real time    0.0501
    FORLOC:  cpu time    0.0006: real time    0.0006
    FORNL :  cpu time    0.0755: real time    0.0757
    STRESS:  cpu time    0.4136: real time    0.4146
    FORHAR:  cpu time    0.0037: real time    0.0037
    MIXING:  cpu time    0.0005: real time    0.0005
    OFIELD:  cpu time    0.0000: real time    0.0000

  FORCE on cell =-STRESS in cart. coord.  units (eV):
  Direction    XX          YY          ZZ          XY          YZ          ZX
  --------------------------------------------------------------------------------------
  Alpha Z     3.11067     3.11067     3.11067
  Ewald    1572.61546  1572.61484 -1842.19716     0.00000     0.00000    -0.00000
  Hartree  1538.77885  1538.77884 -1527.51620    -0.00000    -0.00000    -0.00000
  E(xc)     -29.22519   -29.22519   -30.39745    -0.00000     0.00000    -0.00000
  Local   -3197.50090 -3197.50060  3266.46268    -0.00000     0.00000     0.00000
  n-local    -7.33951    -6.79260    -6.42511     0.35932     0.00000     0.00000
  augment    -0.78078    -0.78079    -0.71373    -0.00000    -0.00000    -0.00000
  Kinetic   122.57383   118.39659   137.65362    -3.34861    -0.00000    -0.00000
  Fock        0.00000     0.00000     0.00000     0.00000     0.00000     0.00000
  -------------------------------------------------------------------------------------
  Total       0.41708     0.41708    -0.02269     0.00000     0.00000     0.00000
  in kB       6.37785     6.37785    -0.34701     0.00000     0.00000     0.00000
  external pressure =        4.14 kB  Pullay stress =        0.00 kB


 VOLUME and BASIS-vectors are now :
 -----------------------------------------------------------------------------
  energy-cutoff  :      800.00
  volume of cell :      104.78
      direct lattice vectors                 reciprocal lattice vectors
     2.130000000 -1.229756000  0.000000000     0.234741784 -0.406584721  0.000000000
     2.130000000  1.229756000  0.000000000     0.234741784  0.406584721  0.000000000
     0.000000000  0.000000000 20.000000000     0.000000000  0.000000000  0.050000000

  length of vectors
     2.459512110  2.459512110 20.000000000     0.469483589  0.469483589  0.050000000


 FORCES acting on ions
    electron-ion (+dipol)            ewald-force                    non-local-force                 convergence-correction
 -----------------------------------------------------------------------------------------------
   0.197E-06 0.156E-13 -.144E-08   -.241E-03 0.675E-14 -.161E-22   -.352E-16 -.574E-17 -.310E-24   0.439E-09 -.235E-14 -.216E-11
   0.271E-03 0.242E-13 0.144E-08   0.241E-03 -.447E-14 0.161E-22   -.133E-16 -.337E-17 -.207E-24   -.420E-09 0.517E-14 -.220E-11
 -----------------------------------------------------------------------------------------------
   0.271E-03 0.398E-13 0.189E-11   0.429E-14 0.228E-14 0.000E+00   -.485E-16 -.911E-17 -.517E-24   0.186E-10 0.282E-14 -.436E-11
 
 
 POSITION                                       TOTAL-FORCE (eV/Angst)
 -----------------------------------------------------------------------------------
      0.00000      0.00000      0.00000        -0.000000      0.000000      0.000000
      1.42000      0.00000      0.00000         0.000000     -0.000000     -0.000000
 -----------------------------------------------------------------------------------
    total drift:                                0.000271      0.000000     -0.000000


--------------------------------------------------------------------------------------------------------



  FREE ENERGIE OF THE ION-ELECTRON SYSTEM (eV)
  ---------------------------------------------------
  free  energy   TOTEN  =       -18.45902098 eV

  energy  without entropy=      -18.45889304  energy(sigma->0) =      -18.45895701
 


--------------------------------------------------------------------------------------------------------


    POTLOK:  cpu time    0.0203: real time    0.0204


--------------------------------------------------------------------------------------------------------


     LOOP+:  cpu time    7.7348: real time    7.9449
    4ORBIT:  cpu time    0.0000: real time    0.0000

 total amount of memory used by VASP MPI-rank0    51801. kBytes
=======================================================================

   base      :      30000. kBytes
   nonl-proj :       9763. kBytes
   fftplans  :       4589. kBytes
   grid      :       2514. kBytes
   one-center:          3. kBytes
   wavefun   :       4932. kBytes
 
  
  
 General timing and accounting informations for this job:
 ========================================================
  
                  Total CPU time used (sec):       10.007
                            User time (sec):        9.703
                          System time (sec):        0.304
                         Elapsed time (sec):       10.900
  
                   Maximum memory used (kb):       88724.
                   Average memory used (kb):           0.
  
                          Minor page faults:        26544
                          Major page faults:            0
                 Voluntary context switches:         1242
