<?xml version="1.0" encoding="ISO-8859-1"?>
<modeling>
 <generator>
  <i name="program" type="string">vasp </i>
  <i name="version" type="string">5.4.4.18Apr17-6-g9f103f2a35  </i>
  <i name="subversion" type="string">(build May 31 2018 21:15:54) complex            parallel </i>
  <i name="platform" type="string">c7_intel_O1 </i>
  <i name="date" type="string">2020 08 11 </i>
  <i name="time" type="string">21:52:42 </i>
 </generator>
 <incar>
  <i type="string" name="SYSTEM"> C-2</i>
  <i type="int" name="ISTART">     0</i>
  <i type="string" name="PREC">accurate</i>
  <i type="string" name="ALGO"> N</i>
  <i type="logical" name="ADDGRID"> T  </i>
  <i name="AMIN">      0.01000000</i>
  <i type="int" name="ICHARG">     1</i>
  <i type="int" name="NELMIN">     5</i>
  <i type="int" name="IBRION">    -1</i>
  <i name="EDIFF">      0.00000001</i>
  <i name="EDIFFG">     -0.00000001</i>
  <i type="int" name="NSW">     0</i>
  <i name="SYMPREC">      0.00010000</i>
  <i name="ENCUT">    800.00000000</i>
  <i type="int" name="NEDOS">  6001</i>
  <i type="logical" name="LREAL"> F  </i>
  <i type="int" name="ISMEAR">     0</i>
  <i name="SIGMA">      0.10000000</i>
  <i type="logical" name="LWAVE"> F  </i>
  <i type="logical" name="LCHARG"> T  </i>
  <v type="int" name="KPOINT_BSE">    -1     0     0     0</v>
 </incar>
 <structure name="primitive_cell" >
  <crystal>
   <varray name="basis" >
    <v>       2.13000000      -1.22975600       0.00000000 </v>
    <v>       2.13000000       1.22975600       0.00000000 </v>
    <v>       0.00000000       0.00000000      20.00000000 </v>
   </varray>
   <i name="volume">    104.77521120 </i>
   <varray name="rec_basis" >
    <v>       0.23474178      -0.40658472       0.00000000 </v>
    <v>       0.23474178       0.40658472       0.00000000 </v>
    <v>       0.00000000       0.00000000       0.05000000 </v>
   </varray>
  </crystal>
  <varray name="positions" >
   <v>       0.00000000       0.00000000       0.00000000 </v>
   <v>       0.33333300       0.33333300       0.00000000 </v>
  </varray>
 </structure>
 <varray name="primitive_index" >
  <v type="int" >        1 </v>
  <v type="int" >        2 </v>
 </varray>
 <kpoints>
  <generation param="Gamma">
   <v type="int" name="divisions">      42       42        1 </v>
   <v name="usershift">      0.00000000       0.00000000       0.00000000 </v>
   <v name="genvec1">      0.02380952       0.00000000       0.00000000 </v>
   <v name="genvec2">      0.00000000       0.02380952       0.00000000 </v>
   <v name="genvec3">      0.00000000       0.00000000       1.00000000 </v>
   <v name="shift">      0.00000000       0.00000000       0.00000000 </v>
  </generation>
  <varray name="kpointlist" >
   <v>       0.00000000       0.00000000       0.00000000 </v>
   <v>       0.02380952       0.00000000       0.00000000 </v>
   <v>       0.04761905       0.00000000       0.00000000 </v>
   <v>       0.07142857       0.00000000       0.00000000 </v>
   <v>       0.09523810       0.00000000       0.00000000 </v>
   <v>       0.11904762       0.00000000       0.00000000 </v>
   <v>       0.14285714       0.00000000       0.00000000 </v>
   <v>       0.16666667       0.00000000       0.00000000 </v>
   <v>       0.19047619       0.00000000       0.00000000 </v>
   <v>       0.21428571       0.00000000       0.00000000 </v>
   <v>       0.23809524       0.00000000       0.00000000 </v>
   <v>       0.26190476       0.00000000       0.00000000 </v>
   <v>       0.28571429       0.00000000       0.00000000 </v>
   <v>       0.30952381       0.00000000       0.00000000 </v>
   <v>       0.33333333       0.00000000       0.00000000 </v>
   <v>       0.35714286       0.00000000       0.00000000 </v>
   <v>       0.38095238       0.00000000       0.00000000 </v>
   <v>       0.40476190       0.00000000       0.00000000 </v>
   <v>       0.42857143       0.00000000       0.00000000 </v>
   <v>       0.45238095       0.00000000       0.00000000 </v>
   <v>       0.47619048       0.00000000       0.00000000 </v>
   <v>       0.50000000       0.00000000       0.00000000 </v>
   <v>       0.04761905       0.02380952       0.00000000 </v>
   <v>       0.07142857       0.02380952       0.00000000 </v>
   <v>       0.09523810       0.02380952       0.00000000 </v>
   <v>       0.11904762       0.02380952       0.00000000 </v>
   <v>       0.14285714       0.02380952       0.00000000 </v>
   <v>       0.16666667       0.02380952       0.00000000 </v>
   <v>       0.19047619       0.02380952       0.00000000 </v>
   <v>       0.21428571       0.02380952       0.00000000 </v>
   <v>       0.23809524       0.02380952       0.00000000 </v>
   <v>       0.26190476       0.02380952       0.00000000 </v>
   <v>       0.28571429       0.02380952       0.00000000 </v>
   <v>       0.30952381       0.02380952       0.00000000 </v>
   <v>       0.33333333       0.02380952       0.00000000 </v>
   <v>       0.35714286       0.02380952       0.00000000 </v>
   <v>       0.38095238       0.02380952       0.00000000 </v>
   <v>       0.40476190       0.02380952       0.00000000 </v>
   <v>       0.42857143       0.02380952       0.00000000 </v>
   <v>       0.45238095       0.02380952       0.00000000 </v>
   <v>       0.47619048       0.02380952       0.00000000 </v>
   <v>       0.50000000       0.02380952       0.00000000 </v>
   <v>       0.09523810       0.04761905       0.00000000 </v>
   <v>       0.11904762       0.04761905       0.00000000 </v>
   <v>       0.14285714       0.04761905       0.00000000 </v>
   <v>       0.16666667       0.04761905       0.00000000 </v>
   <v>       0.19047619       0.04761905       0.00000000 </v>
   <v>       0.21428571       0.04761905       0.00000000 </v>
   <v>       0.23809524       0.04761905       0.00000000 </v>
   <v>       0.26190476       0.04761905       0.00000000 </v>
   <v>       0.28571429       0.04761905       0.00000000 </v>
   <v>       0.30952381       0.04761905       0.00000000 </v>
   <v>       0.33333333       0.04761905       0.00000000 </v>
   <v>       0.35714286       0.04761905       0.00000000 </v>
   <v>       0.38095238       0.04761905       0.00000000 </v>
   <v>       0.40476190       0.04761905       0.00000000 </v>
   <v>       0.42857143       0.04761905       0.00000000 </v>
   <v>       0.45238095       0.04761905       0.00000000 </v>
   <v>       0.47619048       0.04761905       0.00000000 </v>
   <v>       0.50000000       0.04761905       0.00000000 </v>
   <v>      -0.47619048       0.04761905       0.00000000 </v>
   <v>       0.14285714       0.07142857       0.00000000 </v>
   <v>       0.16666667       0.07142857       0.00000000 </v>
   <v>       0.19047619       0.07142857       0.00000000 </v>
   <v>       0.21428571       0.07142857       0.00000000 </v>
   <v>       0.23809524       0.07142857       0.00000000 </v>
   <v>       0.26190476       0.07142857       0.00000000 </v>
   <v>       0.28571429       0.07142857       0.00000000 </v>
   <v>       0.30952381       0.07142857       0.00000000 </v>
   <v>       0.33333333       0.07142857       0.00000000 </v>
   <v>       0.35714286       0.07142857       0.00000000 </v>
   <v>       0.38095238       0.07142857       0.00000000 </v>
   <v>       0.40476190       0.07142857       0.00000000 </v>
   <v>       0.42857143       0.07142857       0.00000000 </v>
   <v>       0.45238095       0.07142857       0.00000000 </v>
   <v>       0.47619048       0.07142857       0.00000000 </v>
   <v>       0.50000000       0.07142857       0.00000000 </v>
   <v>      -0.47619048       0.07142857       0.00000000 </v>
   <v>       0.19047619       0.09523810       0.00000000 </v>
   <v>       0.21428571       0.09523810       0.00000000 </v>
   <v>       0.23809524       0.09523810       0.00000000 </v>
   <v>       0.26190476       0.09523810       0.00000000 </v>
   <v>       0.28571429       0.09523810       0.00000000 </v>
   <v>       0.30952381       0.09523810       0.00000000 </v>
   <v>       0.33333333       0.09523810       0.00000000 </v>
   <v>       0.35714286       0.09523810       0.00000000 </v>
   <v>       0.38095238       0.09523810       0.00000000 </v>
   <v>       0.40476190       0.09523810       0.00000000 </v>
   <v>       0.42857143       0.09523810       0.00000000 </v>
   <v>       0.45238095       0.09523810       0.00000000 </v>
   <v>       0.47619048       0.09523810       0.00000000 </v>
   <v>       0.50000000       0.09523810       0.00000000 </v>
   <v>      -0.47619048       0.09523810       0.00000000 </v>
   <v>      -0.45238095       0.09523810       0.00000000 </v>
   <v>       0.23809524       0.11904762       0.00000000 </v>
   <v>       0.26190476       0.11904762       0.00000000 </v>
   <v>       0.28571429       0.11904762       0.00000000 </v>
   <v>       0.30952381       0.11904762       0.00000000 </v>
   <v>       0.33333333       0.11904762       0.00000000 </v>
   <v>       0.35714286       0.11904762       0.00000000 </v>
   <v>       0.38095238       0.11904762       0.00000000 </v>
   <v>       0.40476190       0.11904762       0.00000000 </v>
   <v>       0.42857143       0.11904762       0.00000000 </v>
   <v>       0.45238095       0.11904762       0.00000000 </v>
   <v>       0.47619048       0.11904762       0.00000000 </v>
   <v>       0.50000000       0.11904762       0.00000000 </v>
   <v>      -0.47619048       0.11904762       0.00000000 </v>
   <v>      -0.45238095       0.11904762       0.00000000 </v>
   <v>       0.28571429       0.14285714       0.00000000 </v>
   <v>       0.30952381       0.14285714       0.00000000 </v>
   <v>       0.33333333       0.14285714       0.00000000 </v>
   <v>       0.35714286       0.14285714       0.00000000 </v>
   <v>       0.38095238       0.14285714       0.00000000 </v>
   <v>       0.40476190       0.14285714       0.00000000 </v>
   <v>       0.42857143       0.14285714       0.00000000 </v>
   <v>       0.45238095       0.14285714       0.00000000 </v>
   <v>       0.47619048       0.14285714       0.00000000 </v>
   <v>       0.50000000       0.14285714       0.00000000 </v>
   <v>      -0.47619048       0.14285714       0.00000000 </v>
   <v>      -0.45238095       0.14285714       0.00000000 </v>
   <v>      -0.42857143       0.14285714       0.00000000 </v>
   <v>       0.33333333       0.16666667       0.00000000 </v>
   <v>       0.35714286       0.16666667       0.00000000 </v>
   <v>       0.38095238       0.16666667       0.00000000 </v>
   <v>       0.40476190       0.16666667       0.00000000 </v>
   <v>       0.42857143       0.16666667       0.00000000 </v>
   <v>       0.45238095       0.16666667       0.00000000 </v>
   <v>       0.47619048       0.16666667       0.00000000 </v>
   <v>       0.50000000       0.16666667       0.00000000 </v>
   <v>      -0.47619048       0.16666667       0.00000000 </v>
   <v>      -0.45238095       0.16666667       0.00000000 </v>
   <v>      -0.42857143       0.16666667       0.00000000 </v>
   <v>       0.38095238       0.19047619       0.00000000 </v>
   <v>       0.40476190       0.19047619       0.00000000 </v>
   <v>       0.42857143       0.19047619       0.00000000 </v>
   <v>       0.45238095       0.19047619       0.00000000 </v>
   <v>       0.47619048       0.19047619       0.00000000 </v>
   <v>       0.50000000       0.19047619       0.00000000 </v>
   <v>      -0.47619048       0.19047619       0.00000000 </v>
   <v>      -0.45238095       0.19047619       0.00000000 </v>
   <v>      -0.42857143       0.19047619       0.00000000 </v>
   <v>      -0.40476190       0.19047619       0.00000000 </v>
   <v>       0.42857143       0.21428571       0.00000000 </v>
   <v>       0.45238095       0.21428571       0.00000000 </v>
   <v>       0.47619048       0.21428571       0.00000000 </v>
   <v>       0.50000000       0.21428571       0.00000000 </v>
   <v>      -0.47619048       0.21428571       0.00000000 </v>
   <v>      -0.45238095       0.21428571       0.00000000 </v>
   <v>      -0.42857143       0.21428571       0.00000000 </v>
   <v>      -0.40476190       0.21428571       0.00000000 </v>
   <v>       0.47619048       0.23809524       0.00000000 </v>
   <v>       0.50000000       0.23809524       0.00000000 </v>
   <v>      -0.47619048       0.23809524       0.00000000 </v>
   <v>      -0.45238095       0.23809524       0.00000000 </v>
   <v>      -0.42857143       0.23809524       0.00000000 </v>
   <v>      -0.40476190       0.23809524       0.00000000 </v>
   <v>      -0.38095238       0.23809524       0.00000000 </v>
   <v>      -0.47619048       0.26190476       0.00000000 </v>
   <v>      -0.45238095       0.26190476       0.00000000 </v>
   <v>      -0.42857143       0.26190476       0.00000000 </v>
   <v>      -0.40476190       0.26190476       0.00000000 </v>
   <v>      -0.38095238       0.26190476       0.00000000 </v>
   <v>      -0.42857143       0.28571429       0.00000000 </v>
   <v>      -0.40476190       0.28571429       0.00000000 </v>
   <v>      -0.38095238       0.28571429       0.00000000 </v>
   <v>      -0.35714286       0.28571429       0.00000000 </v>
   <v>      -0.38095238       0.30952381       0.00000000 </v>
   <v>      -0.35714286       0.30952381       0.00000000 </v>
   <v>      -0.33333333       0.33333333       0.00000000 </v>
  </varray>
  <varray name="weights" >
   <v>       0.00056689 </v>
   <v>       0.00340136 </v>
   <v>       0.00340136 </v>
   <v>       0.00340136 </v>
   <v>       0.00340136 </v>
   <v>       0.00340136 </v>
   <v>       0.00340136 </v>
   <v>       0.00340136 </v>
   <v>       0.00340136 </v>
   <v>       0.00340136 </v>
   <v>       0.00340136 </v>
   <v>       0.00340136 </v>
   <v>       0.00340136 </v>
   <v>       0.00340136 </v>
   <v>       0.00340136 </v>
   <v>       0.00340136 </v>
   <v>       0.00340136 </v>
   <v>       0.00340136 </v>
   <v>       0.00340136 </v>
   <v>       0.00340136 </v>
   <v>       0.00340136 </v>
   <v>       0.00170068 </v>
   <v>       0.00340136 </v>
   <v>       0.00680272 </v>
   <v>       0.00680272 </v>
   <v>       0.00680272 </v>
   <v>       0.00680272 </v>
   <v>       0.00680272 </v>
   <v>       0.00680272 </v>
   <v>       0.00680272 </v>
   <v>       0.00680272 </v>
   <v>       0.00680272 </v>
   <v>       0.00680272 </v>
   <v>       0.00680272 </v>
   <v>       0.00680272 </v>
   <v>       0.00680272 </v>
   <v>       0.00680272 </v>
   <v>       0.00680272 </v>
   <v>       0.00680272 </v>
   <v>       0.00680272 </v>
   <v>       0.00680272 </v>
   <v>       0.00680272 </v>
   <v>       0.00340136 </v>
   <v>       0.00680272 </v>
   <v>       0.00680272 </v>
   <v>       0.00680272 </v>
   <v>       0.00680272 </v>
   <v>       0.00680272 </v>
   <v>       0.00680272 </v>
   <v>       0.00680272 </v>
   <v>       0.00680272 </v>
   <v>       0.00680272 </v>
   <v>       0.00680272 </v>
   <v>       0.00680272 </v>
   <v>       0.00680272 </v>
   <v>       0.00680272 </v>
   <v>       0.00680272 </v>
   <v>       0.00680272 </v>
   <v>       0.00680272 </v>
   <v>       0.00680272 </v>
   <v>       0.00340136 </v>
   <v>       0.00340136 </v>
   <v>       0.00680272 </v>
   <v>       0.00680272 </v>
   <v>       0.00680272 </v>
   <v>       0.00680272 </v>
   <v>       0.00680272 </v>
   <v>       0.00680272 </v>
   <v>       0.00680272 </v>
   <v>       0.00680272 </v>
   <v>       0.00680272 </v>
   <v>       0.00680272 </v>
   <v>       0.00680272 </v>
   <v>       0.00680272 </v>
   <v>       0.00680272 </v>
   <v>       0.00680272 </v>
   <v>       0.00680272 </v>
   <v>       0.00680272 </v>
   <v>       0.00340136 </v>
   <v>       0.00680272 </v>
   <v>       0.00680272 </v>
   <v>       0.00680272 </v>
   <v>       0.00680272 </v>
   <v>       0.00680272 </v>
   <v>       0.00680272 </v>
   <v>       0.00680272 </v>
   <v>       0.00680272 </v>
   <v>       0.00680272 </v>
   <v>       0.00680272 </v>
   <v>       0.00680272 </v>
   <v>       0.00680272 </v>
   <v>       0.00680272 </v>
   <v>       0.00680272 </v>
   <v>       0.00340136 </v>
   <v>       0.00340136 </v>
   <v>       0.00680272 </v>
   <v>       0.00680272 </v>
   <v>       0.00680272 </v>
   <v>       0.00680272 </v>
   <v>       0.00680272 </v>
   <v>       0.00680272 </v>
   <v>       0.00680272 </v>
   <v>       0.00680272 </v>
   <v>       0.00680272 </v>
   <v>       0.00680272 </v>
   <v>       0.00680272 </v>
   <v>       0.00680272 </v>
   <v>       0.00680272 </v>
   <v>       0.00340136 </v>
   <v>       0.00680272 </v>
   <v>       0.00680272 </v>
   <v>       0.00680272 </v>
   <v>       0.00680272 </v>
   <v>       0.00680272 </v>
   <v>       0.00680272 </v>
   <v>       0.00680272 </v>
   <v>       0.00680272 </v>
   <v>       0.00680272 </v>
   <v>       0.00680272 </v>
   <v>       0.00680272 </v>
   <v>       0.00340136 </v>
   <v>       0.00340136 </v>
   <v>       0.00680272 </v>
   <v>       0.00680272 </v>
   <v>       0.00680272 </v>
   <v>       0.00680272 </v>
   <v>       0.00680272 </v>
   <v>       0.00680272 </v>
   <v>       0.00680272 </v>
   <v>       0.00680272 </v>
   <v>       0.00680272 </v>
   <v>       0.00680272 </v>
   <v>       0.00340136 </v>
   <v>       0.00680272 </v>
   <v>       0.00680272 </v>
   <v>       0.00680272 </v>
   <v>       0.00680272 </v>
   <v>       0.00680272 </v>
   <v>       0.00680272 </v>
   <v>       0.00680272 </v>
   <v>       0.00680272 </v>
   <v>       0.00340136 </v>
   <v>       0.00340136 </v>
   <v>       0.00680272 </v>
   <v>       0.00680272 </v>
   <v>       0.00680272 </v>
   <v>       0.00680272 </v>
   <v>       0.00680272 </v>
   <v>       0.00680272 </v>
   <v>       0.00680272 </v>
   <v>       0.00340136 </v>
   <v>       0.00680272 </v>
   <v>       0.00680272 </v>
   <v>       0.00680272 </v>
   <v>       0.00680272 </v>
   <v>       0.00680272 </v>
   <v>       0.00340136 </v>
   <v>       0.00340136 </v>
   <v>       0.00680272 </v>
   <v>       0.00680272 </v>
   <v>       0.00680272 </v>
   <v>       0.00680272 </v>
   <v>       0.00340136 </v>
   <v>       0.00680272 </v>
   <v>       0.00680272 </v>
   <v>       0.00340136 </v>
   <v>       0.00340136 </v>
   <v>       0.00680272 </v>
   <v>       0.00113379 </v>
  </varray>
 </kpoints>
 <parameters>
  <separator name="general" >
   <i type="string" name="SYSTEM">C-2</i>
   <i type="logical" name="LCOMPAT"> F  </i>
  </separator>
  <separator name="electronic" >
   <i type="string" name="PREC">accura</i>
   <i name="ENMAX">    800.00000000</i>
   <i name="ENAUG">    644.87300000</i>
   <i name="EDIFF">      0.00000001</i>
   <i type="int" name="IALGO">    38</i>
   <i type="int" name="IWAVPR">    10</i>
   <i type="int" name="NBANDS">    12</i>
   <i name="NELECT">      8.00000000</i>
   <i type="int" name="TURBO">     0</i>
   <i type="int" name="IRESTART">     0</i>
   <i type="int" name="NREBOOT">     0</i>
   <i type="int" name="NMIN">     0</i>
   <i name="EREF">      0.00000000</i>
   <separator name="electronic smearing" >
    <i type="int" name="ISMEAR">     0</i>
    <i name="SIGMA">      0.10000000</i>
    <i name="KSPACING">      0.50000000</i>
    <i type="logical" name="KGAMMA"> T  </i>
   </separator>
   <separator name="electronic projectors" >
    <i type="logical" name="LREAL"> F  </i>
    <v name="ROPT">      0.00000000</v>
    <i type="int" name="LMAXPAW">  -100</i>
    <i type="int" name="LMAXMIX">     2</i>
    <i type="logical" name="NLSPLINE"> F  </i>
   </separator>
   <separator name="electronic startup" >
    <i type="int" name="ISTART">     0</i>
    <i type="int" name="ICHARG">     1</i>
    <i type="int" name="INIWAV">     1</i>
   </separator>
   <separator name="electronic spin" >
    <i type="int" name="ISPIN">     1</i>
    <i type="logical" name="LNONCOLLINEAR"> F  </i>
    <v name="MAGMOM">      1.00000000      1.00000000</v>
    <i name="NUPDOWN">     -1.00000000</i>
    <i type="logical" name="LSORBIT"> F  </i>
    <v name="SAXIS">      0.00000000      0.00000000      1.00000000</v>
    <i type="logical" name="LSPIRAL"> F  </i>
    <v name="QSPIRAL">      0.00000000      0.00000000      0.00000000</v>
    <i type="logical" name="LZEROZ"> F  </i>
   </separator>
   <separator name="electronic exchange-correlation" >
    <i type="logical" name="LASPH"> F  </i>
    <i type="logical" name="LMETAGGA"> F  </i>
   </separator>
   <separator name="electronic convergence" >
    <i type="int" name="NELM">    60</i>
    <i type="int" name="NELMDL">    -5</i>
    <i type="int" name="NELMIN">     5</i>
    <i name="ENINI">    800.00000000</i>
    <separator name="electronic convergence detail" >
     <i type="logical" name="LDIAG"> T  </i>
     <i type="logical" name="LSUBROT"> F  </i>
     <i name="WEIMIN">      0.00000000</i>
     <i name="EBREAK">      0.00000000</i>
     <i name="DEPER">      0.30000000</i>
     <i type="int" name="NRMM">     4</i>
     <i name="TIME">      0.40000000</i>
    </separator>
   </separator>
   <separator name="electronic mixer" >
    <i name="AMIX">      0.40000000</i>
    <i name="BMIX">      1.00000000</i>
    <i name="AMIN">      0.01000000</i>
    <i name="AMIX_MAG">      1.60000000</i>
    <i name="BMIX_MAG">      1.00000000</i>
    <separator name="electronic mixer details" >
     <i type="int" name="IMIX">     4</i>
     <i type="logical" name="MIXFIRST"> F  </i>
     <i type="int" name="MAXMIX">   -45</i>
     <i name="WC">    100.00000000</i>
     <i type="int" name="INIMIX">     1</i>
     <i type="int" name="MIXPRE">     1</i>
     <i type="int" name="MREMOVE">     5</i>
    </separator>
   </separator>
   <separator name="electronic dipolcorrection" >
    <i type="logical" name="LDIPOL"> F  </i>
    <i type="logical" name="LMONO"> F  </i>
    <i type="int" name="IDIPOL">     0</i>
    <i name="EPSILON">      1.00000000</i>
    <v name="DIPOL">   -100.00000000   -100.00000000   -100.00000000</v>
    <i name="EFIELD">      0.00000000</i>
   </separator>
  </separator>
  <separator name="grids" >
   <i type="int" name="NGX">    24</i>
   <i type="int" name="NGY">    24</i>
   <i type="int" name="NGZ">   192</i>
   <i type="int" name="NGXF">    48</i>
   <i type="int" name="NGYF">    48</i>
   <i type="int" name="NGZF">   384</i>
   <i type="logical" name="ADDGRID"> T  </i>
  </separator>
  <separator name="ionic" >
   <i type="int" name="NSW">     0</i>
   <i type="int" name="IBRION">    -1</i>
   <i type="int" name="MDALGO">     0</i>
   <i type="int" name="ISIF">     2</i>
   <i name="PSTRESS">      0.00000000</i>
   <i name="EDIFFG">     -0.00000001</i>
   <i type="int" name="NFREE">     0</i>
   <i name="POTIM">      0.50000000</i>
   <i name="SMASS">     -3.00000000</i>
   <i name="SCALEE">      1.00000000</i>
  </separator>
  <separator name="ionic md" >
   <i name="TEBEG">      0.00010000</i>
   <i name="TEEND">      0.00010000</i>
   <i type="int" name="NBLOCK">     1</i>
   <i type="int" name="KBLOCK">     1</i>
   <i type="int" name="NPACO">   256</i>
   <i name="APACO">     16.00000000</i>
  </separator>
  <separator name="symmetry" >
   <i type="int" name="ISYM">     2</i>
   <i name="SYMPREC">      0.00010000</i>
  </separator>
  <separator name="dos" >
   <i type="int" name="LORBIT">     0</i>
   <v name="RWIGS">     -1.00000000</v>
   <i type="int" name="NEDOS">  6001</i>
   <i name="EMIN">     10.00000000</i>
   <i name="EMAX">    -10.00000000</i>
   <i name="EFERMI">      0.00000000</i>
  </separator>
  <separator name="writing" >
   <i type="int" name="NWRITE">     2</i>
   <i type="logical" name="LWAVE"> F  </i>
   <i type="logical" name="LDOWNSAMPLE"> F  </i>
   <i type="logical" name="LCHARG"> T  </i>
   <i type="logical" name="LPARD"> F  </i>
   <i type="logical" name="LVTOT"> F  </i>
   <i type="logical" name="LVHAR"> F  </i>
   <i type="logical" name="LELF"> F  </i>
   <i type="logical" name="LOPTICS"> F  </i>
   <v name="STM">      0.00000000      0.00000000      0.00000000      0.00000000      0.00000000      0.00000000      0.00000000</v>
  </separator>
  <separator name="performance" >
   <i type="int" name="NPAR">     6</i>
   <i type="int" name="NSIM">     4</i>
   <i type="int" name="NBLK">    -1</i>
   <i type="logical" name="LPLANE"> T  </i>
   <i type="logical" name="LSCALAPACK"> T  </i>
   <i type="logical" name="LSCAAWARE"> F  </i>
   <i type="logical" name="LSCALU"> F  </i>
   <i type="logical" name="LASYNC"> F  </i>
   <i type="logical" name="LORBITALREAL"> F  </i>
  </separator>
  <separator name="miscellaneous" >
   <i type="int" name="IDIOT">     3</i>
   <i type="int" name="ISPECIAL">     0</i>
   <i type="logical" name="LMUSIC"> F  </i>
   <v name="POMASS">     12.01100000</v>
   <v name="DARWINR">      0.00000000</v>
   <v name="DARWINV">      1.00000000</v>
   <i type="logical" name="LCORR"> T  </i>
  </separator>
  <i type="logical" name="GGA_COMPAT"> T  </i>
  <i type="logical" name="LBERRY"> F  </i>
  <i type="int" name="ICORELEVEL">     0</i>
  <i type="logical" name="LDAU"> F  </i>
  <i type="int" name="I_CONSTRAINED_M">     0</i>
  <separator name="electronic exchange-correlation" >
   <i type="string" name="GGA">--</i>
   <i type="int" name="VOSKOWN">     0</i>
   <i type="logical" name="LHFCALC"> F  </i>
   <i type="string" name="PRECFOCK"></i>
   <i type="logical" name="LSYMGRAD"> F  </i>
   <i type="logical" name="LHFONE"> F  </i>
   <i type="logical" name="LRHFCALC"> F  </i>
   <i type="logical" name="LTHOMAS"> F  </i>
   <i type="logical" name="LMODELHF"> F  </i>
   <i name="ENCUT4O">     -1.00000000</i>
   <i type="int" name="EXXOEP">     0</i>
   <i type="int" name="FOURORBIT">     0</i>
   <i name="AEXX">      0.00000000</i>
   <i name="HFALPHA">      0.00000000</i>
   <i name="MCALPHA">      0.00000000</i>
   <i name="ALDAX">      1.00000000</i>
   <i name="AGGAX">      1.00000000</i>
   <i name="ALDAC">      1.00000000</i>
   <i name="AGGAC">      1.00000000</i>
   <i type="int" name="NKREDX">     1</i>
   <i type="int" name="NKREDY">     1</i>
   <i type="int" name="NKREDZ">     1</i>
   <i type="logical" name="SHIFTRED"> F  </i>
   <i type="logical" name="ODDONLY"> F  </i>
   <i type="logical" name="EVENONLY"> F  </i>
   <i type="int" name="LMAXFOCK">     0</i>
   <i type="int" name="NMAXFOCKAE">     0</i>
   <i type="logical" name="LFOCKAEDFT"> F  </i>
   <i name="HFSCREEN">      0.00000000</i>
   <i name="HFSCREENC">      0.00000000</i>
   <i type="int" name="NBANDSGWLOW">     0</i>
  </separator>
  <separator name="vdW DFT" >
   <i type="logical" name="LUSE_VDW"> F  </i>
   <i name="Zab_VDW">     -0.84910000</i>
   <i name="PARAM1">      0.12340000</i>
   <i name="PARAM2">      1.00000000</i>
   <i name="PARAM3">      0.00000000</i>
  </separator>
  <separator name="model GW" >
   <i type="int" name="MODEL_GW">     0</i>
   <i name="MODEL_EPS0">     31.43256336</i>
   <i name="MODEL_ALPHA">      1.00000000</i>
  </separator>
  <separator name="linear response parameters" >
   <i type="logical" name="LEPSILON"> F  </i>
   <i type="logical" name="LRPA"> F  </i>
   <i type="logical" name="LNABLA"> F  </i>
   <i type="logical" name="LVEL"> F  </i>
   <i type="int" name="KINTER">     0</i>
   <i name="CSHIFT">      0.10000000</i>
   <i name="OMEGAMAX">     -1.00000000</i>
   <i name="DEG_THRESHOLD">      0.00200000</i>
   <i name="RTIME">     -0.10000000</i>
   <i name="WPLASMAI">      0.00000000</i>
   <v name="DFIELD">      0.00000000      0.00000000      0.00000000</v>
   <v name="WPLASMA">      0.00000000      0.00000000      0.00000000      0.00000000      0.00000000      0.00000000      0.00000000      0.00000000      0.00000000</v>
  </separator>
  <separator name="orbital magnetization" >
   <i type="logical" name="NUCIND"> F  </i>
   <v name="MAGPOS">      0.00000000      0.00000000      0.00000000</v>
   <i type="logical" name="LNICSALL"> T  </i>
   <i type="logical" name="ORBITALMAG"> F  </i>
   <i type="logical" name="LMAGBLOCH"> F  </i>
   <i type="logical" name="LCHIMAG"> F  </i>
   <i type="logical" name="LGAUGE"> T  </i>
   <i type="int" name="MAGATOM">     0</i>
   <v name="MAGDIPOL">      0.00000000      0.00000000      0.00000000</v>
   <v name="AVECCONST">      0.00000000      0.00000000      0.00000000</v>
  </separator>
  <separator name="response functions" >
   <i type="logical" name="LADDER"> F  </i>
   <i type="logical" name="LRPAFORCE"> F  </i>
   <i type="logical" name="LFXC"> F  </i>
   <i type="logical" name="LHARTREE"> T  </i>
   <i type="int" name="IBSE">     0</i>
   <v type="int" name="KPOINT">    -1     0     0     0</v>
   <i type="logical" name="LTCTE"> F  </i>
   <i type="logical" name="LTETE"> F  </i>
   <i type="logical" name="LTRIPLET"> F  </i>
   <i type="logical" name="LFXCEPS"> F  </i>
   <i type="logical" name="LFXHEG"> F  </i>
   <i type="int" name="NATURALO">     2</i>
   <i type="logical" name="L2ORDER"> F  </i>
   <i type="logical" name="LMP2LT"> F  </i>
   <i type="logical" name="LUSEW"> F  </i>
   <i name="ENCUTGW">     -2.00000000</i>
   <i name="ENCUTGWSOFT">     -2.00000000</i>
   <i name="ENCUTLF">     -1.00000000</i>
   <i type="int" name="LMAXMP2">    -1</i>
   <i name="SCISSOR">      0.00000000</i>
   <i type="int" name="NOMEGA">     0</i>
   <i type="int" name="NOMEGAR">     0</i>
   <i type="int" name="NBANDSGW">    -1</i>
   <i type="int" name="NBANDSO">    -1</i>
   <i type="int" name="NBANDSV">    -1</i>
   <i type="int" name="NELM">     1</i>
   <i type="int" name="NELMHF">     1</i>
   <i type="int" name="DIM">     3</i>
   <i type="int" name="ANTIRES">     0</i>
   <i name="OMEGAMAX">    -30.00000000</i>
   <i name="OMEGAMIN">    -30.00000000</i>
   <i name="OMEGATL">   -200.00000000</i>
   <i type="int" name="OMEGAGRID">   140</i>
   <i name="CSHIFT">     -0.10000000</i>
   <i type="logical" name="SELFENERGY"> F  </i>
   <i type="logical" name="LSPECTRAL"> F  </i>
   <i type="logical" name="LSPECTRALGW"> F  </i>
   <i type="logical" name="LSINGLES"> F  </i>
   <i type="logical" name="LFERMIGW"> F  </i>
   <i type="logical" name="ODDONLYGW"> F  </i>
   <i type="logical" name="EVENONLYGW"> F  </i>
   <i type="int" name="NKREDLFX">     1</i>
   <i type="int" name="NKREDLFY">     1</i>
   <i type="int" name="NKREDLFZ">     1</i>
   <i type="int" name="MAXMEM">  2800</i>
   <i type="int" name="TELESCOPE">     0</i>
   <i type="int" name="TAUPAR">     1</i>
   <i type="int" name="OMEGAPAR">    -1</i>
   <i name="LAMBDA">      1.00000000</i>
  </separator>
  <separator name="External order field" >
   <i name="OFIELD_KAPPA">      0.00000000</i>
   <v name="OFIELD_K">      0.00000000      0.00000000      0.00000000</v>
   <i name="OFIELD_Q6_NEAR">      0.00000000</i>
   <i name="OFIELD_Q6_FAR">      0.00000000</i>
   <i name="OFIELD_A">      0.00000000</i>
  </separator>
 </parameters>
 <atominfo>
  <atoms>       2 </atoms>
  <types>       1 </types>
  <array name="atoms" >
   <dimension dim="1">ion</dimension>
   <field type="string">element</field>
   <field type="int">atomtype</field>
   <set>
    <rc><c>C </c><c>   1</c></rc>
    <rc><c>C </c><c>   1</c></rc>
   </set>
  </array>
  <array name="atomtypes" >
   <dimension dim="1">type</dimension>
   <field type="int">atomspertype</field>
   <field type="string">element</field>
   <field>mass</field>
   <field>valence</field>
   <field type="string">pseudopotential</field>
   <set>
    <rc><c>   2</c><c>C </c><c>     12.01100000</c><c>      4.00000000</c><c> PAW_PBE C 08Apr2002                    </c></rc>
   </set>
  </array>
 </atominfo>
 <structure name="initialpos" >
  <crystal>
   <varray name="basis" >
    <v>       2.13000000      -1.22975600       0.00000000 </v>
    <v>       2.13000000       1.22975600       0.00000000 </v>
    <v>       0.00000000       0.00000000      20.00000000 </v>
   </varray>
   <i name="volume">    104.77521120 </i>
   <varray name="rec_basis" >
    <v>       0.23474178      -0.40658472       0.00000000 </v>
    <v>       0.23474178       0.40658472       0.00000000 </v>
    <v>       0.00000000       0.00000000       0.05000000 </v>
   </varray>
  </crystal>
  <varray name="positions" >
   <v>       0.00000000       0.00000000       0.00000000 </v>
   <v>       0.33333300       0.33333300       0.00000000 </v>
  </varray>
 </structure>
 <calculation>
  <scstep>
   <time name="dav">    0.70    0.70</time>
   <time name="total">    0.74    0.76</time>
   <energy>
    <i name="alphaZ">      3.11066570 </i>
    <i name="ewald">   1303.03316907 </i>
    <i name="hartreedc">  -1550.04196571 </i>
    <i name="XCdc">     28.81789780 </i>
    <i name="pawpsdc">    139.92185291 </i>
    <i name="pawaedc">   -142.50237342 </i>
    <i name="eentropy">     -0.00568099 </i>
    <i name="bandstr">    -39.66258111 </i>
    <i name="atom">    294.30884690 </i>
    <i name="e_fr_energy">     36.97983115 </i>
    <i name="e_wo_entrp">     36.98551215 </i>
    <i name="e_0_energy">     36.98267165 </i>
   </energy>
  </scstep>
  <scstep>
   <time name="dav">    0.93    0.93</time>
   <time name="total">    0.93    0.94</time>
   <energy>
    <i name="e_fr_energy">    -15.92806326 </i>
    <i name="e_wo_entrp">    -15.92782288 </i>
    <i name="e_0_energy">    -15.92794307 </i>
   </energy>
  </scstep>
  <scstep>
   <time name="dav">    0.87    0.87</time>
   <time name="total">    0.87    0.88</time>
   <energy>
    <i name="e_fr_energy">    -18.44622919 </i>
    <i name="e_wo_entrp">    -18.44610126 </i>
    <i name="e_0_energy">    -18.44616522 </i>
   </energy>
  </scstep>
  <scstep>
   <time name="dav">    1.05    1.06</time>
   <time name="total">    1.06    1.07</time>
   <energy>
    <i name="e_fr_energy">    -18.45898964 </i>
    <i name="e_wo_entrp">    -18.45886170 </i>
    <i name="e_0_energy">    -18.45892567 </i>
   </energy>
  </scstep>
  <scstep>
   <time name="dav">    0.87    0.87</time>
   <time name="total">    0.92    0.93</time>
   <energy>
    <i name="e_fr_energy">    -18.45902064 </i>
    <i name="e_wo_entrp">    -18.45889270 </i>
    <i name="e_0_energy">    -18.45895667 </i>
   </energy>
  </scstep>
  <scstep>
   <time name="dav">    1.07    1.07</time>
   <time name="total">    1.14    1.15</time>
   <energy>
    <i name="e_fr_energy">    -18.45902098 </i>
    <i name="e_wo_entrp">    -18.45889304 </i>
    <i name="e_0_energy">    -18.45895701 </i>
   </energy>
  </scstep>
  <scstep>
   <time name="dav">    0.92    0.92</time>
   <time name="total">    0.95    0.95</time>
   <energy>
    <i name="alphaZ">      3.11066570 </i>
    <i name="ewald">   1303.03316907 </i>
    <i name="hartreedc">  -1550.04169781 </i>
    <i name="XCdc">     28.81788536 </i>
    <i name="pawpsdc">    139.92165029 </i>
    <i name="pawaedc">   -142.50215806 </i>
    <i name="eentropy">     -0.00012793 </i>
    <i name="bandstr">    -95.10725450 </i>
    <i name="atom">    294.30884690 </i>
    <i name="e_fr_energy">    -18.45902098 </i>
    <i name="e_wo_entrp">    -18.45889304 </i>
    <i name="e_0_energy">    -18.45895701 </i>
   </energy>
  </scstep>
  <structure>
   <crystal>
    <varray name="basis" >
     <v>       2.13000000      -1.22975600       0.00000000 </v>
     <v>       2.13000000       1.22975600       0.00000000 </v>
     <v>       0.00000000       0.00000000      20.00000000 </v>
    </varray>
    <i name="volume">    104.77521120 </i>
    <varray name="rec_basis" >
     <v>       0.23474178      -0.40658472       0.00000000 </v>
     <v>       0.23474178       0.40658472       0.00000000 </v>
     <v>       0.00000000       0.00000000       0.05000000 </v>
    </varray>
   </crystal>
   <varray name="positions" >
    <v>       0.00000000       0.00000000       0.00000000 </v>
    <v>       0.33333300       0.33333300       0.00000000 </v>
   </varray>
  </structure>
  <varray name="forces" >
   <v>      -0.00000000       0.00000000       0.00000000 </v>
   <v>       0.00000000      -0.00000000      -0.00000000 </v>
  </varray>
  <varray name="stress" >
   <v>       6.37785492       0.00000000       0.00000000 </v>
   <v>       0.00000000       6.37785415       0.00000000 </v>
   <v>       0.00000000       0.00000000      -0.34700613 </v>
  </varray>
  <energy>
   <i name="e_fr_energy">    -18.45902098 </i>
   <i name="e_wo_entrp">    -18.45895701 </i>
   <i name="e_0_energy">     -0.00012793 </i>
  </energy>
  <time name="totalsc">    7.73    7.94</time>
  <eigenvalues>
   <array>
    <dimension dim="1">band</dimension>
    <dimension dim="2">kpoint</dimension>
    <dimension dim="3">spin</dimension>
    <field>eigene</field>
    <field>occ</field>
    <set>
     <set comment="spin 1">
      <set comment="kpoint 1">
       <r>  -22.2970    1.0000 </r>
       <r>  -10.3902    1.0000 </r>
       <r>   -5.7500    1.0000 </r>
       <r>   -5.7500    1.0000 </r>
       <r>    0.5266    0.0000 </r>
       <r>    1.3284    0.0000 </r>
       <r>    1.6968    0.0000 </r>
       <r>    2.6044    0.0000 </r>
       <r>    3.0677    0.0000 </r>
       <r>    4.7277    0.0000 </r>
       <r>    5.3494    0.0000 </r>
       <r>    5.6502    0.0000 </r>
      </set>
      <set comment="kpoint 2">
       <r>  -22.2836    1.0000 </r>
       <r>  -10.3740    1.0000 </r>
       <r>   -5.8059    1.0000 </r>
       <r>   -5.7798    1.0000 </r>
       <r>    0.5449    0.0000 </r>
       <r>    1.3469    0.0000 </r>
       <r>    1.7156    0.0000 </r>
       <r>    2.6229    0.0000 </r>
       <r>    3.0862    0.0000 </r>
       <r>    4.7461    0.0000 </r>
       <r>    5.3662    0.0000 </r>
       <r>    5.6603    0.0000 </r>
      </set>
      <set comment="kpoint 3">
       <r>  -22.2432    1.0000 </r>
       <r>  -10.3257    1.0000 </r>
       <r>   -5.9709    1.0000 </r>
       <r>   -5.8669    1.0000 </r>
       <r>    0.5997    0.0000 </r>
       <r>    1.4025    0.0000 </r>
       <r>    1.7718    0.0000 </r>
       <r>    2.6787    0.0000 </r>
       <r>    3.1417    0.0000 </r>
       <r>    4.8013    0.0000 </r>
       <r>    5.4164    0.0000 </r>
       <r>    5.6876    0.0000 </r>
      </set>
      <set comment="kpoint 4">
       <r>  -22.1759    1.0000 </r>
       <r>  -10.2453    1.0000 </r>
       <r>   -6.2365    1.0000 </r>
       <r>   -6.0054    1.0000 </r>
       <r>    0.6911    0.0000 </r>
       <r>    1.4950    0.0000 </r>
       <r>    1.8655    0.0000 </r>
       <r>    2.7715    0.0000 </r>
       <r>    3.2343    0.0000 </r>
       <r>    4.8932    0.0000 </r>
       <r>    5.4972    0.0000 </r>
       <r>    5.7261    0.0000 </r>
      </set>
      <set comment="kpoint 5">
       <r>  -22.0819    1.0000 </r>
       <r>  -10.1330    1.0000 </r>
       <r>   -6.5908    1.0000 </r>
       <r>   -6.1867    1.0000 </r>
       <r>    0.8190    0.0000 </r>
       <r>    1.6245    0.0000 </r>
       <r>    1.9966    0.0000 </r>
       <r>    2.9015    0.0000 </r>
       <r>    3.3639    0.0000 </r>
       <r>    5.0217    0.0000 </r>
       <r>    5.5962    0.0000 </r>
       <r>    5.7769    0.0000 </r>
      </set>
      <set comment="kpoint 6">
       <r>  -21.9611    1.0000 </r>
       <r>   -9.9889    1.0000 </r>
       <r>   -7.0200    1.0000 </r>
       <r>   -6.4009    1.0000 </r>
       <r>    0.9835    0.0000 </r>
       <r>    1.7910    0.0000 </r>
       <r>    2.1653    0.0000 </r>
       <r>    3.0685    0.0000 </r>
       <r>    3.5305    0.0000 </r>
       <r>    5.1868    0.0000 </r>
       <r>    5.6685    0.0000 </r>
       <r>    5.8755    0.0000 </r>
      </set>
      <set comment="kpoint 7">
       <r>  -21.8136    1.0000 </r>
       <r>   -9.8136    1.0000 </r>
       <r>   -7.5101    1.0000 </r>
       <r>   -6.6383    1.0000 </r>
       <r>    1.1845    0.0000 </r>
       <r>    1.9942    0.0000 </r>
       <r>    2.3714    0.0000 </r>
       <r>    3.2724    0.0000 </r>
       <r>    3.7341    0.0000 </r>
       <r>    5.3880    0.0000 </r>
       <r>    5.6805    0.0000 </r>
       <r>    6.0497    0.0000 </r>
      </set>
      <set comment="kpoint 8">
       <r>  -21.6397    1.0000 </r>
       <r>   -9.6073    1.0000 </r>
       <r>   -8.0483    1.0000 </r>
       <r>   -6.8897    1.0000 </r>
       <r>    1.4219    0.0000 </r>
       <r>    2.2340    0.0000 </r>
       <r>    2.6150    0.0000 </r>
       <r>    3.5132    0.0000 </r>
       <r>    3.9744    0.0000 </r>
       <r>    5.6241    0.0000 </r>
       <r>    5.6530    0.0000 </r>
       <r>    6.2777    0.0000 </r>
      </set>
      <set comment="kpoint 9">
       <r>  -21.4394    1.0000 </r>
       <r>   -9.3707    1.0000 </r>
       <r>   -8.6228    1.0000 </r>
       <r>   -7.1470    1.0000 </r>
       <r>    1.6958    0.0000 </r>
       <r>    2.5102    0.0000 </r>
       <r>    2.8960    0.0000 </r>
       <r>    3.7903    0.0000 </r>
       <r>    4.2513    0.0000 </r>
       <r>    5.6001    0.0000 </r>
       <r>    5.8792    0.0000 </r>
       <r>    6.1621    0.0000 </r>
      </set>
      <set comment="kpoint 10">
       <r>  -21.2131    1.0000 </r>
       <r>   -9.2236    1.0000 </r>
       <r>   -9.1045    1.0000 </r>
       <r>   -7.4037    1.0000 </r>
       <r>    2.0059    0.0000 </r>
       <r>    2.8221    0.0000 </r>
       <r>    3.2145    0.0000 </r>
       <r>    4.1025    0.0000 </r>
       <r>    4.5637    0.0000 </r>
       <r>    5.5304    0.0000 </r>
       <r>    5.5308    0.0000 </r>
       <r>    6.2271    0.0000 </r>
      </set>
      <set comment="kpoint 11">
       <r>  -20.9609    1.0000 </r>
       <r>   -9.8424    1.0000 </r>
       <r>   -8.8097    1.0000 </r>
       <r>   -7.6540    1.0000 </r>
       <r>    2.3522    0.0000 </r>
       <r>    3.1672    0.0000 </r>
       <r>    3.5703    0.0000 </r>
       <r>    4.4375    0.0000 </r>
       <r>    4.9078    0.0000 </r>
       <r>    4.9288    0.0000 </r>
       <r>    5.4542    0.0000 </r>
       <r>    6.5690    0.0000 </r>
      </set>
      <set comment="kpoint 12">
       <r>  -20.6831    1.0000 </r>
       <r>  -10.4720    1.0000 </r>
       <r>   -8.4875    1.0000 </r>
       <r>   -7.8935    1.0000 </r>
       <r>    2.7344    0.0000 </r>
       <r>    3.5309    0.0000 </r>
       <r>    3.9635    0.0000 </r>
       <r>    4.2556    0.0000 </r>
       <r>    4.8725    0.0000 </r>
       <r>    5.2294    0.0000 </r>
       <r>    5.4310    0.0000 </r>
       <r>    6.9508    0.0000 </r>
      </set>
      <set comment="kpoint 13">
       <r>  -20.3801    1.0000 </r>
       <r>  -11.1063    1.0000 </r>
       <r>   -8.1396    1.0000 </r>
       <r>   -8.1184    1.0000 </r>
       <r>    3.1520    0.0000 </r>
       <r>    3.5047    0.0000 </r>
       <r>    4.0526    0.0000 </r>
       <r>    4.3937    0.0000 </r>
       <r>    5.2326    0.0000 </r>
       <r>    5.2858    0.0000 </r>
       <r>    5.7621    0.0000 </r>
       <r>    7.3689    0.0000 </r>
      </set>
      <set comment="kpoint 14">
       <r>  -20.0524    1.0000 </r>
       <r>  -11.7404    1.0000 </r>
       <r>   -8.3258    1.0000 </r>
       <r>   -7.7685    1.0000 </r>
       <r>    2.8753    0.0000 </r>
       <r>    3.6044    0.0000 </r>
       <r>    4.4737    0.0000 </r>
       <r>    4.8579    0.0000 </r>
       <r>    5.1568    0.0000 </r>
       <r>    5.7453    0.0000 </r>
       <r>    6.2153    0.0000 </r>
       <r>    7.8223    0.0000 </r>
      </set>
      <set comment="kpoint 15">
       <r>  -19.7007    1.0000 </r>
       <r>  -12.3699    1.0000 </r>
       <r>   -8.5133    1.0000 </r>
       <r>   -7.3772    1.0000 </r>
       <r>    2.2156    0.0000 </r>
       <r>    4.0891    0.0000 </r>
       <r>    4.9624    0.0000 </r>
       <r>    5.0658    0.0000 </r>
       <r>    5.3763    0.0000 </r>
       <r>    6.2428    0.0000 </r>
       <r>    6.7120    0.0000 </r>
       <r>    8.3101    0.0000 </r>
      </set>
      <set comment="kpoint 16">
       <r>  -19.3257    1.0000 </r>
       <r>  -12.9910    1.0000 </r>
       <r>   -8.6791    1.0000 </r>
       <r>   -6.9707    1.0000 </r>
       <r>    1.5636    0.0000 </r>
       <r>    4.5911    0.0000 </r>
       <r>    5.0152    0.0000 </r>
       <r>    5.4911    0.0000 </r>
       <r>    5.9154    0.0000 </r>
       <r>    6.7769    0.0000 </r>
       <r>    7.2469    0.0000 </r>
       <r>    8.8311    0.0000 </r>
      </set>
      <set comment="kpoint 17">
       <r>  -18.9287    1.0000 </r>
       <r>  -13.5998    1.0000 </r>
       <r>   -8.8215    1.0000 </r>
       <r>   -6.5563    1.0000 </r>
       <r>    0.9337    0.0000 </r>
       <r>    4.8600    0.0000 </r>
       <r>    5.2379    0.0000 </r>
       <r>    6.0561    0.0000 </r>
       <r>    6.4952    0.0000 </r>
       <r>    7.3469    0.0000 </r>
       <r>    7.8190    0.0000 </r>
       <r>    9.3835    0.0000 </r>
      </set>
      <set comment="kpoint 18">
       <r>  -18.5118    1.0000 </r>
       <r>  -14.1924    1.0000 </r>
       <r>   -8.9395    1.0000 </r>
       <r>   -6.1454    1.0000 </r>
       <r>    0.3417    0.0000 </r>
       <r>    4.8311    0.0000 </r>
       <r>    5.8029    0.0000 </r>
       <r>    6.6561    0.0000 </r>
       <r>    7.1128    0.0000 </r>
       <r>    7.9520    0.0000 </r>
       <r>    8.4274    0.0000 </r>
       <r>    9.9632    0.0000 </r>
      </set>
      <set comment="kpoint 19">
       <r>  -18.0793    1.0000 </r>
       <r>  -14.7631    1.0000 </r>
       <r>   -9.0321    1.0000 </r>
       <r>   -5.7569    1.0000 </r>
       <r>   -0.1906    0.0000 </r>
       <r>    4.7904    0.0000 </r>
       <r>    6.4250    0.0000 </r>
       <r>    7.2896    0.0000 </r>
       <r>    7.7678    0.0000 </r>
       <r>    8.5913    0.0000 </r>
       <r>    9.0716    0.0000 </r>
       <r>   10.5559    0.0000 </r>
      </set>
      <set comment="kpoint 20">
       <r>  -17.6414    1.0000 </r>
       <r>  -15.3004    1.0000 </r>
       <r>   -9.0987    1.0000 </r>
       <r>   -5.4212    1.0000 </r>
       <r>   -0.6303    0.0000 </r>
       <r>    4.7586    0.0000 </r>
       <r>    7.0831    0.0000 </r>
       <r>    7.9545    0.0000 </r>
       <r>    8.4600    0.0000 </r>
       <r>    9.2619    0.0000 </r>
       <r>    9.7476    0.0000 </r>
       <r>   10.0143    0.0000 </r>
      </set>
      <set comment="kpoint 21">
       <r>  -17.2345    1.0000 </r>
       <r>  -15.7672    1.0000 </r>
       <r>   -9.1389    1.0000 </r>
       <r>   -5.1842    1.0000 </r>
       <r>   -0.9305    0.0000 </r>
       <r>    4.7389    0.0000 </r>
       <r>    7.7722    0.0000 </r>
       <r>    8.6464    0.0000 </r>
       <r>    9.1844    0.0000 </r>
       <r>    9.2510    0.0000 </r>
       <r>    9.9230    0.0000 </r>
       <r>   10.1750    0.0000 </r>
      </set>
      <set comment="kpoint 22">
       <r>  -17.0209    1.0000 </r>
       <r>  -16.0008    1.0000 </r>
       <r>   -9.1523    1.0000 </r>
       <r>   -5.0969    1.0000 </r>
       <r>   -1.0389    0.0000 </r>
       <r>    4.7322    0.0000 </r>
       <r>    8.4199    0.0000 </r>
       <r>    8.5728    0.0000 </r>
       <r>    9.2708    0.0000 </r>
       <r>    9.4735    0.0000 </r>
       <r>    9.9518    0.0000 </r>
       <r>    9.9605    0.0000 </r>
      </set>
      <set comment="kpoint 23">
       <r>  -22.2566    1.0000 </r>
       <r>  -10.3418    1.0000 </r>
       <r>   -5.9153    1.0000 </r>
       <r>   -5.8392    1.0000 </r>
       <r>    0.5815    0.0000 </r>
       <r>    1.3840    0.0000 </r>
       <r>    1.7531    0.0000 </r>
       <r>    2.6601    0.0000 </r>
       <r>    3.1232    0.0000 </r>
       <r>    4.7829    0.0000 </r>
       <r>    5.3998    0.0000 </r>
       <r>    5.6819    0.0000 </r>
      </set>
      <set comment="kpoint 24">
       <r>  -22.2028    1.0000 </r>
       <r>  -10.2775    1.0000 </r>
       <r>   -6.1278    1.0000 </r>
       <r>   -5.9549    1.0000 </r>
       <r>    0.6545    0.0000 </r>
       <r>    1.4580    0.0000 </r>
       <r>    1.8280    0.0000 </r>
       <r>    2.7344    0.0000 </r>
       <r>    3.1973    0.0000 </r>
       <r>    4.8564    0.0000 </r>
       <r>    5.4660    0.0000 </r>
       <r>    5.7218    0.0000 </r>
      </set>
      <set comment="kpoint 25">
       <r>  -22.1222    1.0000 </r>
       <r>  -10.1811    1.0000 </r>
       <r>   -6.4339    1.0000 </r>
       <r>   -6.1186    1.0000 </r>
       <r>    0.7642    0.0000 </r>
       <r>    1.5690    0.0000 </r>
       <r>    1.9404    0.0000 </r>
       <r>    2.8458    0.0000 </r>
       <r>    3.3084    0.0000 </r>
       <r>    4.9666    0.0000 </r>
       <r>    5.5600    0.0000 </r>
       <r>    5.7721    0.0000 </r>
      </set>
      <set comment="kpoint 26">
       <r>  -22.0147    1.0000 </r>
       <r>  -10.0529    1.0000 </r>
       <r>   -6.8217    1.0000 </r>
       <r>   -6.3205    1.0000 </r>
       <r>    0.9104    0.0000 </r>
       <r>    1.7170    0.0000 </r>
       <r>    2.0903    0.0000 </r>
       <r>    2.9943    0.0000 </r>
       <r>    3.4565    0.0000 </r>
       <r>    5.1135    0.0000 </r>
       <r>    5.6604    0.0000 </r>
       <r>    5.8416    0.0000 </r>
      </set>
      <set comment="kpoint 27">
       <r>  -21.8806    1.0000 </r>
       <r>   -9.8932    1.0000 </r>
       <r>   -7.2775    1.0000 </r>
       <r>   -6.5503    1.0000 </r>
       <r>    1.0931    0.0000 </r>
       <r>    1.9018    0.0000 </r>
       <r>    2.2777    0.0000 </r>
       <r>    3.1798    0.0000 </r>
       <r>    3.6416    0.0000 </r>
       <r>    5.2967    0.0000 </r>
       <r>    5.7151    0.0000 </r>
       <r>    5.9736    0.0000 </r>
      </set>
      <set comment="kpoint 28">
       <r>  -21.7199    1.0000 </r>
       <r>   -9.7023    1.0000 </r>
       <r>   -7.7881    1.0000 </r>
       <r>   -6.7982    1.0000 </r>
       <r>    1.3124    0.0000 </r>
       <r>    2.1234    0.0000 </r>
       <r>    2.5025    0.0000 </r>
       <r>    3.4021    0.0000 </r>
       <r>    3.8636    0.0000 </r>
       <r>    5.5157    0.0000 </r>
       <r>    5.7142    0.0000 </r>
       <r>    6.1741    0.0000 </r>
      </set>
      <set comment="kpoint 29">
       <r>  -21.5328    1.0000 </r>
       <r>   -9.4809    1.0000 </r>
       <r>   -8.3415    1.0000 </r>
       <r>   -7.0557    1.0000 </r>
       <r>    1.5680    0.0000 </r>
       <r>    2.3815    0.0000 </r>
       <r>    2.7649    0.0000 </r>
       <r>    3.6612    0.0000 </r>
       <r>    4.1224    0.0000 </r>
       <r>    5.6788    0.0000 </r>
       <r>    5.7671    0.0000 </r>
       <r>    6.4057    0.0000 </r>
      </set>
      <set comment="kpoint 30">
       <r>  -21.3195    1.0000 </r>
       <r>   -9.2294    1.0000 </r>
       <r>   -8.9267    1.0000 </r>
       <r>   -7.3153    1.0000 </r>
       <r>    1.8601    0.0000 </r>
       <r>    2.6756    0.0000 </r>
       <r>    3.0646    0.0000 </r>
       <r>    3.9562    0.0000 </r>
       <r>    4.4174    0.0000 </r>
       <r>    5.6204    0.0000 </r>
       <r>    5.7971    0.0000 </r>
       <r>    6.0929    0.0000 </r>
      </set>
      <set comment="kpoint 31">
       <r>  -21.0802    1.0000 </r>
       <r>   -9.5344    1.0000 </r>
       <r>   -8.9488    1.0000 </r>
       <r>   -7.5709    1.0000 </r>
       <r>    2.1883    0.0000 </r>
       <r>    3.0047    0.0000 </r>
       <r>    3.4018    0.0000 </r>
       <r>    4.2838    0.0000 </r>
       <r>    4.7470    0.0000 </r>
       <r>    5.2103    0.0000 </r>
       <r>    5.5480    0.0000 </r>
       <r>    6.4049    0.0000 </r>
      </set>
      <set comment="kpoint 32">
       <r>  -20.8152    1.0000 </r>
       <r>  -10.1570    1.0000 </r>
       <r>   -8.6402    1.0000 </r>
       <r>   -7.8175    1.0000 </r>
       <r>    2.5526    0.0000 </r>
       <r>    3.3635    0.0000 </r>
       <r>    3.7764    0.0000 </r>
       <r>    4.5016    0.0000 </r>
       <r>    4.7357    0.0000 </r>
       <r>    5.1020    0.0000 </r>
       <r>    5.4773    0.0000 </r>
       <r>    6.7680    0.0000 </r>
      </set>
      <set comment="kpoint 33">
       <r>  -20.5249    1.0000 </r>
       <r>  -10.7877    1.0000 </r>
       <r>   -8.3051    1.0000 </r>
       <r>   -8.0510    1.0000 </r>
       <r>    2.9526    0.0000 </r>
       <r>    3.6668    0.0000 </r>
       <r>    4.0055    0.0000 </r>
       <r>    4.1881    0.0000 </r>
       <r>    5.0844    0.0000 </r>
       <r>    5.3134    0.0000 </r>
       <r>    5.5827    0.0000 </r>
       <r>    7.1681    0.0000 </r>
      </set>
      <set comment="kpoint 34">
       <r>  -20.2095    1.0000 </r>
       <r>  -11.4209    1.0000 </r>
       <r>   -8.2682    1.0000 </r>
       <r>   -7.9453    1.0000 </r>
       <r>    3.1914    0.0000 </r>
       <r>    3.3879    0.0000 </r>
       <r>    4.2602    0.0000 </r>
       <r>    4.6364    0.0000 </r>
       <r>    5.2539    0.0000 </r>
       <r>    5.5237    0.0000 </r>
       <r>    5.9971    0.0000 </r>
       <r>    7.6037    0.0000 </r>
      </set>
      <set comment="kpoint 35">
       <r>  -19.8698    1.0000 </r>
       <r>  -12.0519    1.0000 </r>
       <r>   -8.4664    1.0000 </r>
       <r>   -7.5636    1.0000 </r>
       <r>    2.5374    0.0000 </r>
       <r>    3.8572    0.0000 </r>
       <r>    4.7250    0.0000 </r>
       <r>    5.1001    0.0000 </r>
       <r>    5.1967    0.0000 </r>
       <r>    6.0025    0.0000 </r>
       <r>    6.4728    0.0000 </r>
       <r>    8.0741    0.0000 </r>
      </set>
      <set comment="kpoint 36">
       <r>  -19.5064    1.0000 </r>
       <r>  -12.6765    1.0000 </r>
       <r>   -8.6436    1.0000 </r>
       <r>   -7.1641    1.0000 </r>
       <r>    1.8810    0.0000 </r>
       <r>    4.3561    0.0000 </r>
       <r>    5.0947    0.0000 </r>
       <r>    5.2346    0.0000 </r>
       <r>    5.6545    0.0000 </r>
       <r>    6.5183    0.0000 </r>
       <r>    6.9887    0.0000 </r>
       <r>    8.5782    0.0000 </r>
      </set>
      <set comment="kpoint 37">
       <r>  -19.1203    1.0000 </r>
       <r>  -13.2911    1.0000 </r>
       <r>   -8.7982    1.0000 </r>
       <r>   -6.7525    1.0000 </r>
       <r>    1.2396    0.0000 </r>
       <r>    4.8314    0.0000 </r>
       <r>    5.0900    0.0000 </r>
       <r>    5.7815    0.0000 </r>
       <r>    6.2146    0.0000 </r>
       <r>    7.0702    0.0000 </r>
       <r>    7.5422    0.0000 </r>
       <r>    9.1144    0.0000 </r>
      </set>
      <set comment="kpoint 38">
       <r>  -18.7131    1.0000 </r>
       <r>  -13.8916    1.0000 </r>
       <r>   -8.9288    1.0000 </r>
       <r>   -6.3380    1.0000 </r>
       <r>    0.6276    0.0000 </r>
       <r>    4.9110    0.0000 </r>
       <r>    5.5242    0.0000 </r>
       <r>    6.3639    0.0000 </r>
       <r>    6.8134    0.0000 </r>
       <r>    7.6576    0.0000 </r>
       <r>    8.1324    0.0000 </r>
       <r>    9.6800    0.0000 </r>
      </set>
      <set comment="kpoint 39">
       <r>  -18.2878    1.0000 </r>
       <r>  -14.4736    1.0000 </r>
       <r>   -9.0343    1.0000 </r>
       <r>   -5.9352    1.0000 </r>
       <r>    0.0629    0.0000 </r>
       <r>    4.8712    0.0000 </r>
       <r>    6.1226    0.0000 </r>
       <r>    6.9804    0.0000 </r>
       <r>    7.4497    0.0000 </r>
       <r>    8.2796    0.0000 </r>
       <r>    8.7588    0.0000 </r>
       <r>   10.2674    0.0000 </r>
      </set>
      <set comment="kpoint 40">
       <r>  -17.8507    1.0000 </r>
       <r>  -15.0293    1.0000 </r>
       <r>   -9.1141    1.0000 </r>
       <r>   -5.5682    1.0000 </r>
       <r>   -0.4276    0.0000 </r>
       <r>    4.8345    0.0000 </r>
       <r>    6.7631    0.0000 </r>
       <r>    7.6292    0.0000 </r>
       <r>    8.1233    0.0000 </r>
       <r>    8.9344    0.0000 </r>
       <r>    9.4203    0.0000 </r>
       <r>   10.4056    0.0000 </r>
      </set>
      <set comment="kpoint 41">
       <r>  -17.4203    1.0000 </r>
       <r>  -15.5393    1.0000 </r>
       <r>   -9.1676    1.0000 </r>
       <r>   -5.2750    1.0000 </r>
       <r>   -0.8041    0.0000 </r>
       <r>    4.8086    0.0000 </r>
       <r>    7.4370    0.0000 </r>
       <r>    8.3073    0.0000 </r>
       <r>    8.8339    0.0000 </r>
       <r>    9.6151    0.0000 </r>
       <r>    9.6349    0.0000 </r>
       <r>   10.1211    0.0000 </r>
      </set>
      <set comment="kpoint 42">
       <r>  -17.0739    1.0000 </r>
       <r>  -15.9256    1.0000 </r>
       <r>   -9.1945    1.0000 </r>
       <r>   -5.1069    1.0000 </r>
       <r>   -1.0141    0.0000 </r>
       <r>    4.7954    0.0000 </r>
       <r>    8.1374    0.0000 </r>
       <r>    8.8859    0.0000 </r>
       <r>    9.0037    0.0000 </r>
       <r>    9.5826    0.0000 </r>
       <r>    9.7526    0.0000 </r>
       <r>   10.3586    0.0000 </r>
      </set>
      <set comment="kpoint 43">
       <r>  -22.1356    1.0000 </r>
       <r>  -10.1971    1.0000 </r>
       <r>   -6.3759    1.0000 </r>
       <r>   -6.1007    1.0000 </r>
       <r>    0.7459    0.0000 </r>
       <r>    1.5505    0.0000 </r>
       <r>    1.9217    0.0000 </r>
       <r>    2.8272    0.0000 </r>
       <r>    3.2899    0.0000 </r>
       <r>    4.9483    0.0000 </r>
       <r>    5.5475    0.0000 </r>
       <r>    5.7852    0.0000 </r>
      </set>
      <set comment="kpoint 44">
       <r>  -22.0416    1.0000 </r>
       <r>  -10.0849    1.0000 </r>
       <r>   -6.7074    1.0000 </r>
       <r>   -6.2931    1.0000 </r>
       <r>    0.8739    0.0000 </r>
       <r>    1.6800    0.0000 </r>
       <r>    2.0528    0.0000 </r>
       <r>    2.9572    0.0000 </r>
       <r>    3.4195    0.0000 </r>
       <r>    5.0768    0.0000 </r>
       <r>    5.6549    0.0000 </r>
       <r>    5.8641    0.0000 </r>
      </set>
      <set comment="kpoint 45">
       <r>  -21.9208    1.0000 </r>
       <r>   -9.9410    1.0000 </r>
       <r>   -7.1127    1.0000 </r>
       <r>   -6.5197    1.0000 </r>
       <r>    1.0383    0.0000 </r>
       <r>    1.8464    0.0000 </r>
       <r>    2.2215    0.0000 </r>
       <r>    3.1241    0.0000 </r>
       <r>    3.5862    0.0000 </r>
       <r>    5.2418    0.0000 </r>
       <r>    5.7636    0.0000 </r>
       <r>    5.9638    0.0000 </r>
      </set>
      <set comment="kpoint 46">
       <r>  -21.7735    1.0000 </r>
       <r>   -9.7658    1.0000 </r>
       <r>   -7.5804    1.0000 </r>
       <r>   -6.7689    1.0000 </r>
       <r>    1.2394    0.0000 </r>
       <r>    2.0496    0.0000 </r>
       <r>    2.4276    0.0000 </r>
       <r>    3.3281    0.0000 </r>
       <r>    3.7898    0.0000 </r>
       <r>    5.4431    0.0000 </r>
       <r>    5.8255    0.0000 </r>
       <r>    6.1206    0.0000 </r>
      </set>
      <set comment="kpoint 47">
       <r>  -21.5996    1.0000 </r>
       <r>   -9.5598    1.0000 </r>
       <r>   -8.0988    1.0000 </r>
       <r>   -7.0307    1.0000 </r>
       <r>    1.4769    0.0000 </r>
       <r>    2.2895    0.0000 </r>
       <r>    2.6712    0.0000 </r>
       <r>    3.5688    0.0000 </r>
       <r>    4.0304    0.0000 </r>
       <r>    5.6794    0.0000 </r>
       <r>    5.8321    0.0000 </r>
       <r>    6.3399    0.0000 </r>
      </set>
      <set comment="kpoint 48">
       <r>  -21.3995    1.0000 </r>
       <r>   -9.3234    1.0000 </r>
       <r>   -8.6565    1.0000 </r>
       <r>   -7.2968    1.0000 </r>
       <r>    1.7508    0.0000 </r>
       <r>    2.5657    0.0000 </r>
       <r>    2.9523    0.0000 </r>
       <r>    3.8460    0.0000 </r>
       <r>    4.3076    0.0000 </r>
       <r>    5.8012    0.0000 </r>
       <r>    5.9217    0.0000 </r>
       <r>    6.0794    0.0000 </r>
      </set>
      <set comment="kpoint 49">
       <r>  -21.1732    1.0000 </r>
       <r>   -9.2436    1.0000 </r>
       <r>   -9.0574    1.0000 </r>
       <r>   -7.5605    1.0000 </r>
       <r>    2.0610    0.0000 </r>
       <r>    2.8775    0.0000 </r>
       <r>    3.2708    0.0000 </r>
       <r>    4.1583    0.0000 </r>
       <r>    4.6208    0.0000 </r>
       <r>    5.4518    0.0000 </r>
       <r>    5.7455    0.0000 </r>
       <r>    6.2759    0.0000 </r>
      </set>
      <set comment="kpoint 50">
       <r>  -20.9212    1.0000 </r>
       <r>   -9.8511    1.0000 </r>
       <r>   -8.7629    1.0000 </r>
       <r>   -7.8165    1.0000 </r>
       <r>    2.4073    0.0000 </r>
       <r>    3.2228    0.0000 </r>
       <r>    3.6267    0.0000 </r>
       <r>    4.4901    0.0000 </r>
       <r>    4.8603    0.0000 </r>
       <r>    4.9679    0.0000 </r>
       <r>    5.6759    0.0000 </r>
       <r>    6.6200    0.0000 </r>
      </set>
      <set comment="kpoint 51">
       <r>  -20.6436    1.0000 </r>
       <r>  -10.4715    1.0000 </r>
       <r>   -8.4410    1.0000 </r>
       <r>   -8.0604    1.0000 </r>
       <r>    2.7896    0.0000 </r>
       <r>    3.5847    0.0000 </r>
       <r>    4.0199    0.0000 </r>
       <r>    4.2030    0.0000 </r>
       <r>    4.9202    0.0000 </r>
       <r>    5.3315    0.0000 </r>
       <r>    5.6170    0.0000 </r>
       <r>    7.0017    0.0000 </r>
      </set>
      <set comment="kpoint 52">
       <r>  -20.3408    1.0000 </r>
       <r>  -11.0986    1.0000 </r>
       <r>   -8.2887    1.0000 </r>
       <r>   -8.0935    1.0000 </r>
       <r>    3.2075    0.0000 </r>
       <r>    3.4733    0.0000 </r>
       <r>    4.0895    0.0000 </r>
       <r>    4.4503    0.0000 </r>
       <r>    5.3378    0.0000 </r>
       <r>    5.4594    0.0000 </r>
       <r>    5.8270    0.0000 </r>
       <r>    7.4192    0.0000 </r>
      </set>
      <set comment="kpoint 53">
       <r>  -20.0134    1.0000 </r>
       <r>  -11.7267    1.0000 </r>
       <r>   -8.4987    1.0000 </r>
       <r>   -7.7226    1.0000 </r>
       <r>    2.8392    0.0000 </r>
       <r>    3.6604    0.0000 </r>
       <r>    4.5227    0.0000 </r>
       <r>    4.9167    0.0000 </r>
       <r>    5.3911    0.0000 </r>
       <r>    5.7978    0.0000 </r>
       <r>    6.2725    0.0000 </r>
       <r>    7.8715    0.0000 </r>
      </set>
      <set comment="kpoint 54">
       <r>  -19.6619    1.0000 </r>
       <r>  -12.3514    1.0000 </r>
       <r>   -8.6882    1.0000 </r>
       <r>   -7.3316    1.0000 </r>
       <r>    2.1852    0.0000 </r>
       <r>    4.1467    0.0000 </r>
       <r>    5.0125    0.0000 </r>
       <r>    5.2960    0.0000 </r>
       <r>    5.4401    0.0000 </r>
       <r>    6.2950    0.0000 </r>
       <r>    6.7680    0.0000 </r>
       <r>    8.3576    0.0000 </r>
      </set>
      <set comment="kpoint 55">
       <r>  -19.2873    1.0000 </r>
       <r>  -12.9686    1.0000 </r>
       <r>   -8.8554    1.0000 </r>
       <r>   -6.9253    1.0000 </r>
       <r>    1.5390    0.0000 </r>
       <r>    4.6591    0.0000 </r>
       <r>    5.2432    0.0000 </r>
       <r>    5.5409    0.0000 </r>
       <r>    5.9720    0.0000 </r>
       <r>    6.8285    0.0000 </r>
       <r>    7.3025    0.0000 </r>
       <r>    8.8760    0.0000 </r>
      </set>
      <set comment="kpoint 56">
       <r>  -18.8907    1.0000 </r>
       <r>  -13.5742    1.0000 </r>
       <r>   -8.9989    1.0000 </r>
       <r>   -6.5108    1.0000 </r>
       <r>    0.9142    0.0000 </r>
       <r>    5.0675    0.0000 </r>
       <r>    5.3270    0.0000 </r>
       <r>    6.1050    0.0000 </r>
       <r>    6.5515    0.0000 </r>
       <r>    7.3975    0.0000 </r>
       <r>    7.8742    0.0000 </r>
       <r>    9.4243    0.0000 </r>
      </set>
      <set comment="kpoint 57">
       <r>  -18.4744    1.0000 </r>
       <r>  -14.1642    1.0000 </r>
       <r>   -9.1177    1.0000 </r>
       <r>   -6.0996    1.0000 </r>
       <r>    0.3261    0.0000 </r>
       <r>    5.0714    0.0000 </r>
       <r>    5.8591    0.0000 </r>
       <r>    6.7035    0.0000 </r>
       <r>    7.1689    0.0000 </r>
       <r>    8.0013    0.0000 </r>
       <r>    8.4824    0.0000 </r>
       <r>    9.9969    0.0000 </r>
      </set>
      <set comment="kpoint 58">
       <r>  -18.0424    1.0000 </r>
       <r>  -14.7328    1.0000 </r>
       <r>   -9.2109    1.0000 </r>
       <r>   -5.7104    1.0000 </r>
       <r>   -0.2036    0.0000 </r>
       <r>    5.0329    0.0000 </r>
       <r>    6.4785    0.0000 </r>
       <r>    7.3345    0.0000 </r>
       <r>    7.8239    0.0000 </r>
       <r>    8.6382    0.0000 </r>
       <r>    9.1262    0.0000 </r>
       <r>   10.5732    0.0000 </r>
      </set>
      <set comment="kpoint 59">
       <r>  -17.6053    1.0000 </r>
       <r>  -15.2683    1.0000 </r>
       <r>   -9.2778    1.0000 </r>
       <r>   -5.3738    1.0000 </r>
       <r>   -0.6421    0.0000 </r>
       <r>    5.0015    0.0000 </r>
       <r>    7.1353    0.0000 </r>
       <r>    7.9955    0.0000 </r>
       <r>    8.5160    0.0000 </r>
       <r>    9.3046    0.0000 </r>
       <r>    9.8012    0.0000 </r>
       <r>   10.0553    0.0000 </r>
      </set>
      <set comment="kpoint 60">
       <r>  -17.1993    1.0000 </r>
       <r>  -15.7337    1.0000 </r>
       <r>   -9.3182    1.0000 </r>
       <r>   -5.1355    1.0000 </r>
       <r>   -0.9421    0.0000 </r>
       <r>    4.9819    0.0000 </r>
       <r>    7.8229    0.0000 </r>
       <r>    8.6802    0.0000 </r>
       <r>    9.2392    0.0000 </r>
       <r>    9.2982    0.0000 </r>
       <r>    9.9420    0.0000 </r>
       <r>   10.2201    0.0000 </r>
      </set>
      <set comment="kpoint 61">
       <r>  -16.9864    1.0000 </r>
       <r>  -15.9664    1.0000 </r>
       <r>   -9.3317    1.0000 </r>
       <r>   -5.0477    1.0000 </r>
       <r>   -1.0506    0.0000 </r>
       <r>    4.9753    0.0000 </r>
       <r>    8.4674    0.0000 </r>
       <r>    8.6234    0.0000 </r>
       <r>    9.2729    0.0000 </r>
       <r>    9.5292    0.0000 </r>
       <r>   10.0073    0.0000 </r>
       <r>   10.0164    0.0000 </r>
      </set>
      <set comment="kpoint 62">
       <r>  -21.9342    1.0000 </r>
       <r>   -9.9570    1.0000 </r>
       <r>   -7.0504    1.0000 </r>
       <r>   -6.5165    1.0000 </r>
       <r>    1.0201    0.0000 </r>
       <r>    1.8280    0.0000 </r>
       <r>    2.2028    0.0000 </r>
       <r>    3.1056    0.0000 </r>
       <r>    3.5677    0.0000 </r>
       <r>    5.2235    0.0000 </r>
       <r>    5.7766    0.0000 </r>
       <r>    5.9861    0.0000 </r>
      </set>
      <set comment="kpoint 63">
       <r>  -21.8002    1.0000 </r>
       <r>   -9.7976    1.0000 </r>
       <r>   -7.4577    1.0000 </r>
       <r>   -6.7724    1.0000 </r>
       <r>    1.2029    0.0000 </r>
       <r>    2.0127    0.0000 </r>
       <r>    2.3901    0.0000 </r>
       <r>    3.2911    0.0000 </r>
       <r>    3.7529    0.0000 </r>
       <r>    5.4067    0.0000 </r>
       <r>    5.9041    0.0000 </r>
       <r>    6.1283    0.0000 </r>
      </set>
      <set comment="kpoint 64">
       <r>  -21.6397    1.0000 </r>
       <r>   -9.6072    1.0000 </r>
       <r>   -7.9225    1.0000 </r>
       <r>   -7.0462    1.0000 </r>
       <r>    1.4222    0.0000 </r>
       <r>    2.2342    0.0000 </r>
       <r>    2.6150    0.0000 </r>
       <r>    3.5134    0.0000 </r>
       <r>    3.9752    0.0000 </r>
       <r>    5.6259    0.0000 </r>
       <r>    5.9957    0.0000 </r>
       <r>    6.3099    0.0000 </r>
      </set>
      <set comment="kpoint 65">
       <r>  -21.4528    1.0000 </r>
       <r>   -9.3861    1.0000 </r>
       <r>   -8.4357    1.0000 </r>
       <r>   -7.3263    1.0000 </r>
       <r>    1.6780    0.0000 </r>
       <r>    2.4923    0.0000 </r>
       <r>    2.8774    0.0000 </r>
       <r>    3.7725    0.0000 </r>
       <r>    4.2343    0.0000 </r>
       <r>    5.8771    0.0000 </r>
       <r>    6.0293    0.0000 </r>
       <r>    6.2046    0.0000 </r>
      </set>
      <set comment="kpoint 66">
       <r>  -21.2397    1.0000 </r>
       <r>   -9.1352    1.0000 </r>
       <r>   -8.9874    1.0000 </r>
       <r>   -7.6046    1.0000 </r>
       <r>    1.9701    0.0000 </r>
       <r>    2.7864    0.0000 </r>
       <r>    3.1772    0.0000 </r>
       <r>    4.0677    0.0000 </r>
       <r>    4.5301    0.0000 </r>
       <r>    5.6370    0.0000 </r>
       <r>    6.0159    0.0000 </r>
       <r>    6.1814    0.0000 </r>
      </set>
      <set comment="kpoint 67">
       <r>  -21.0007    1.0000 </r>
       <r>   -9.5680    1.0000 </r>
       <r>   -8.8552    1.0000 </r>
       <r>   -7.8751    1.0000 </r>
       <r>    2.2984    0.0000 </r>
       <r>    3.1156    0.0000 </r>
       <r>    3.5144    0.0000 </r>
       <r>    4.3951    0.0000 </r>
       <r>    4.8618    0.0000 </r>
       <r>    5.0559    0.0000 </r>
       <r>    5.9709    0.0000 </r>
       <r>    6.5072    0.0000 </r>
      </set>
      <set comment="kpoint 68">
       <r>  -20.7361    1.0000 </r>
       <r>  -10.1686    1.0000 </r>
       <r>   -8.5472    1.0000 </r>
       <r>   -8.1333    1.0000 </r>
       <r>    2.6629    0.0000 </r>
       <r>    3.4745    0.0000 </r>
       <r>    3.8890    0.0000 </r>
       <r>    4.4177    0.0000 </r>
       <r>    4.7946    0.0000 </r>
       <r>    5.2271    0.0000 </r>
       <r>    5.9086    0.0000 </r>
       <r>    6.8706    0.0000 </r>
      </set>
      <set comment="kpoint 69">
       <r>  -20.4461    1.0000 </r>
       <r>  -10.7818    1.0000 </r>
       <r>   -8.3757    1.0000 </r>
       <r>   -8.2127    1.0000 </r>
       <r>    3.0631    0.0000 </r>
       <r>    3.6879    0.0000 </r>
       <r>    3.9854    0.0000 </r>
       <r>    4.3010    0.0000 </r>
       <r>    5.1876    0.0000 </r>
       <r>    5.6037    0.0000 </r>
       <r>    5.8603    0.0000 </r>
       <r>    7.2697    0.0000 </r>
      </set>
      <set comment="kpoint 70">
       <r>  -20.1312    1.0000 </r>
       <r>  -11.4010    1.0000 </r>
       <r>   -8.5996    1.0000 </r>
       <r>   -7.8535    1.0000 </r>
       <r>    3.1122    0.0000 </r>
       <r>    3.4988    0.0000 </r>
       <r>    4.3552    0.0000 </r>
       <r>    4.7501    0.0000 </r>
       <r>    5.6288    0.0000 </r>
       <r>    5.7057    0.0000 </r>
       <r>    6.1191    0.0000 </r>
       <r>    7.7034    0.0000 </r>
      </set>
      <set comment="kpoint 71">
       <r>  -19.7920    1.0000 </r>
       <r>  -12.0208    1.0000 </r>
       <r>   -8.8030    1.0000 </r>
       <r>   -7.4724    1.0000 </r>
       <r>    2.4677    0.0000 </r>
       <r>    3.9694    0.0000 </r>
       <r>    4.8250    0.0000 </r>
       <r>    5.2347    0.0000 </r>
       <r>    5.6392    0.0000 </r>
       <r>    6.1074    0.0000 </r>
       <r>    6.5861    0.0000 </r>
       <r>    8.1707    0.0000 </r>
      </set>
      <set comment="kpoint 72">
       <r>  -19.4293    1.0000 </r>
       <r>  -12.6365    1.0000 </r>
       <r>   -8.9840    1.0000 </r>
       <r>   -7.0733    1.0000 </r>
       <r>    1.8237    0.0000 </r>
       <r>    4.4728    0.0000 </r>
       <r>    5.3347    0.0000 </r>
       <r>    5.5537    0.0000 </r>
       <r>    5.7716    0.0000 </r>
       <r>    6.6222    0.0000 </r>
       <r>    7.1003    0.0000 </r>
       <r>    8.6703    0.0000 </r>
      </set>
      <set comment="kpoint 73">
       <r>  -19.0439    1.0000 </r>
       <r>  -13.2437    1.0000 </r>
       <r>   -9.1413    1.0000 </r>
       <r>   -6.6619    1.0000 </r>
       <r>    1.1936    0.0000 </r>
       <r>    4.9998    0.0000 </r>
       <r>    5.5032    0.0000 </r>
       <r>    5.8802    0.0000 </r>
       <r>    6.3274    0.0000 </r>
       <r>    7.1725    0.0000 </r>
       <r>    7.6531    0.0000 </r>
       <r>    9.1994    0.0000 </r>
      </set>
      <set comment="kpoint 74">
       <r>  -18.6377    1.0000 </r>
       <r>  -13.8384    1.0000 </r>
       <r>   -9.2739    1.0000 </r>
       <r>   -6.2471    1.0000 </r>
       <r>    0.5907    0.0000 </r>
       <r>    5.3571    0.0000 </r>
       <r>    5.6602    0.0000 </r>
       <r>    6.4599    0.0000 </r>
       <r>    6.9257    0.0000 </r>
       <r>    7.7573    0.0000 </r>
       <r>    8.2427    0.0000 </r>
       <r>    9.7530    0.0000 </r>
      </set>
      <set comment="kpoint 75">
       <r>  -18.2135    1.0000 </r>
       <r>  -14.4155    1.0000 </r>
       <r>   -9.3810    1.0000 </r>
       <r>   -5.8434    1.0000 </r>
       <r>    0.0328    0.0000 </r>
       <r>    5.3431    0.0000 </r>
       <r>    6.2321    0.0000 </r>
       <r>    7.0721    0.0000 </r>
       <r>    7.5619    0.0000 </r>
       <r>    8.3753    0.0000 </r>
       <r>    8.8684    0.0000 </r>
       <r>   10.3168    0.0000 </r>
      </set>
      <set comment="kpoint 76">
       <r>  -17.7777    1.0000 </r>
       <r>  -14.9673    1.0000 </r>
       <r>   -9.4617    1.0000 </r>
       <r>   -5.4746    1.0000 </r>
       <r>   -0.4539    0.0000 </r>
       <r>    5.3089    0.0000 </r>
       <r>    6.8688    0.0000 </r>
       <r>    7.7141    0.0000 </r>
       <r>    8.2353    0.0000 </r>
       <r>    9.0232    0.0000 </r>
       <r>    9.5289    0.0000 </r>
       <r>   10.4759    0.0000 </r>
      </set>
      <set comment="kpoint 77">
       <r>  -17.3490    1.0000 </r>
       <r>  -15.4739    1.0000 </r>
       <r>   -9.5158    1.0000 </r>
       <r>   -5.1789    1.0000 </r>
       <r>   -0.8291    0.0000 </r>
       <r>    5.2836    0.0000 </r>
       <r>    7.5400    0.0000 </r>
       <r>    8.3805    0.0000 </r>
       <r>    8.9457    0.0000 </r>
       <r>    9.6867    0.0000 </r>
       <r>    9.7213    0.0000 </r>
       <r>   10.2290    0.0000 </r>
      </set>
      <set comment="kpoint 78">
       <r>  -17.0044    1.0000 </r>
       <r>  -15.8576    1.0000 </r>
       <r>   -9.5430    1.0000 </r>
       <r>   -5.0088    1.0000 </r>
       <r>   -1.0393    0.0000 </r>
       <r>    5.2705    0.0000 </r>
       <r>    8.2367    0.0000 </r>
       <r>    8.9815    0.0000 </r>
       <r>    9.0476    0.0000 </r>
       <r>    9.6942    0.0000 </r>
       <r>    9.8057    0.0000 </r>
       <r>   10.4518    0.0000 </r>
      </set>
      <set comment="kpoint 79">
       <r>  -21.6531    1.0000 </r>
       <r>   -9.6230    1.0000 </r>
       <r>   -7.8549    1.0000 </r>
       <r>   -7.0602    1.0000 </r>
       <r>    1.4040    0.0000 </r>
       <r>    2.2158    0.0000 </r>
       <r>    2.5963    0.0000 </r>
       <r>    3.4949    0.0000 </r>
       <r>    3.9568    0.0000 </r>
       <r>    5.6080    0.0000 </r>
       <r>    6.0626    0.0000 </r>
       <r>    6.3202    0.0000 </r>
      </set>
      <set comment="kpoint 80">
       <r>  -21.4795    1.0000 </r>
       <r>   -9.4176    1.0000 </r>
       <r>   -8.3028    1.0000 </r>
       <r>   -7.3641    1.0000 </r>
       <r>    1.6416    0.0000 </r>
       <r>    2.4556    0.0000 </r>
       <r>    2.8399    0.0000 </r>
       <r>    3.7357    0.0000 </r>
       <r>    4.1977    0.0000 </r>
       <r>    5.8450    0.0000 </r>
       <r>    6.2025    0.0000 </r>
       <r>    6.2792    0.0000 </r>
      </set>
      <set comment="kpoint 81">
       <r>  -21.2797    1.0000 </r>
       <r>   -9.1819    1.0000 </r>
       <r>   -8.7977    1.0000 </r>
       <r>   -7.6689    1.0000 </r>
       <r>    1.9156    0.0000 </r>
       <r>    2.7317    0.0000 </r>
       <r>    3.1210    0.0000 </r>
       <r>    4.0130    0.0000 </r>
       <r>    4.4755    0.0000 </r>
       <r>    5.7557    0.0000 </r>
       <r>    6.1217    0.0000 </r>
       <r>    6.2866    0.0000 </r>
      </set>
      <set comment="kpoint 82">
       <r>  -21.0538    1.0000 </r>
       <r>   -9.3322    1.0000 </r>
       <r>   -8.9169    1.0000 </r>
       <r>   -7.9647    1.0000 </r>
       <r>    2.2259    0.0000 </r>
       <r>    3.0437    0.0000 </r>
       <r>    3.4395    0.0000 </r>
       <r>    4.3257    0.0000 </r>
       <r>    4.7898    0.0000 </r>
       <r>    5.2011    0.0000 </r>
       <r>    6.3087    0.0000 </r>
       <r>    6.4304    0.0000 </r>
      </set>
      <set comment="kpoint 83">
       <r>  -20.8022    1.0000 </r>
       <r>   -9.8975    1.0000 </r>
       <r>   -8.6233    1.0000 </r>
       <r>   -8.2459    1.0000 </r>
       <r>    2.5723    0.0000 </r>
       <r>    3.3895    0.0000 </r>
       <r>    3.7955    0.0000 </r>
       <r>    4.5765    0.0000 </r>
       <r>    4.7169    0.0000 </r>
       <r>    5.1402    0.0000 </r>
       <r>    6.2851    0.0000 </r>
       <r>    6.7756    0.0000 </r>
      </set>
      <set comment="kpoint 84">
       <r>  -20.5252    1.0000 </r>
       <r>  -10.4845    1.0000 </r>
       <r>   -8.5090    1.0000 </r>
       <r>   -8.3023    1.0000 </r>
       <r>    2.9547    0.0000 </r>
       <r>    3.7376    0.0000 </r>
       <r>    4.0345    0.0000 </r>
       <r>    4.1889    0.0000 </r>
       <r>    5.0731    0.0000 </r>
       <r>    5.5245    0.0000 </r>
       <r>    6.2354    0.0000 </r>
       <r>    7.1559    0.0000 </r>
      </set>
      <set comment="kpoint 85">
       <r>  -20.2231    1.0000 </r>
       <r>  -11.0853    1.0000 </r>
       <r>   -8.7517    1.0000 </r>
       <r>   -7.9558    1.0000 </r>
       <r>    3.3461    0.0000 </r>
       <r>    3.3729    0.0000 </r>
       <r>    4.2221    0.0000 </r>
       <r>    4.6196    0.0000 </r>
       <r>    5.4958    0.0000 </r>
       <r>    5.9229    0.0000 </r>
       <r>    6.1920    0.0000 </r>
       <r>    7.5707    0.0000 </r>
      </set>
      <set comment="kpoint 86">
       <r>  -19.8964    1.0000 </r>
       <r>  -11.6928    1.0000 </r>
       <r>   -8.9724    1.0000 </r>
       <r>   -7.5859    1.0000 </r>
       <r>    2.7180    0.0000 </r>
       <r>    3.8264    0.0000 </r>
       <r>    4.6724    0.0000 </r>
       <r>    5.0874    0.0000 </r>
       <r>    5.9558    0.0000 </r>
       <r>    6.0482    0.0000 </r>
       <r>    6.4522    0.0000 </r>
       <r>    8.0188    0.0000 </r>
      </set>
      <set comment="kpoint 87">
       <r>  -19.5459    1.0000 </r>
       <r>  -12.3011    1.0000 </r>
       <r>   -9.1698    1.0000 </r>
       <r>   -7.1957    1.0000 </r>
       <r>    2.0836    0.0000 </r>
       <r>    4.3145    0.0000 </r>
       <r>    5.1633    0.0000 </r>
       <r>    5.5908    0.0000 </r>
       <r>    5.9873    0.0000 </r>
       <r>    6.4518    0.0000 </r>
       <r>    6.9372    0.0000 </r>
       <r>    8.4986    0.0000 </r>
      </set>
      <set comment="kpoint 88">
       <r>  -19.1723    1.0000 </r>
       <r>  -12.9051    1.0000 </r>
       <r>   -9.3429    1.0000 </r>
       <r>   -6.7899    1.0000 </r>
       <r>    1.4562    0.0000 </r>
       <r>    4.8355    0.0000 </r>
       <r>    5.6900    0.0000 </r>
       <r>    5.9082    0.0000 </r>
       <r>    6.1450    0.0000 </r>
       <r>    6.9830    0.0000 </r>
       <r>    7.4695    0.0000 </r>
       <r>    9.0073    0.0000 </r>
      </set>
      <set comment="kpoint 89">
       <r>  -18.7770    1.0000 </r>
       <r>  -13.5003    1.0000 </r>
       <r>   -9.4906    1.0000 </r>
       <r>   -6.3754    1.0000 </r>
       <r>    0.8473    0.0000 </r>
       <r>    5.3795    0.0000 </r>
       <r>    5.8618    0.0000 </r>
       <r>    6.2504    0.0000 </r>
       <r>    6.7204    0.0000 </r>
       <r>    7.5484    0.0000 </r>
       <r>    8.0401    0.0000 </r>
       <r>    9.5394    0.0000 </r>
      </set>
      <set comment="kpoint 90">
       <r>  -18.3622    1.0000 </r>
       <r>  -14.0819    1.0000 </r>
       <r>   -9.6125    1.0000 </r>
       <r>   -5.9633    1.0000 </r>
       <r>    0.2715    0.0000 </r>
       <r>    5.7310    0.0000 </r>
       <r>    6.0464    0.0000 </r>
       <r>    6.8429    0.0000 </r>
       <r>    7.3374    0.0000 </r>
       <r>    8.1466    0.0000 </r>
       <r>    8.6473    0.0000 </r>
       <r>   10.0817    0.0000 </r>
      </set>
      <set comment="kpoint 91">
       <r>  -17.9321    1.0000 </r>
       <r>  -14.6436    1.0000 </r>
       <r>   -9.7078    1.0000 </r>
       <r>   -5.5720    1.0000 </r>
       <r>   -0.2500    0.0000 </r>
       <r>    5.7166    0.0000 </r>
       <r>    6.6403    0.0000 </r>
       <r>    7.4645    0.0000 </r>
       <r>    7.9921    0.0000 </r>
       <r>    8.7743    0.0000 </r>
[...]
       <r>    11.8096     0.1222    23.9265 </r>
       <r>    11.8160     0.1282    23.9273 </r>
       <r>    11.8224     0.1341    23.9281 </r>
       <r>    11.8288     0.1398    23.9290 </r>
       <r>    11.8351     0.1454    23.9299 </r>
       <r>    11.8415     0.1507    23.9309 </r>
       <r>    11.8479     0.1557    23.9319 </r>
       <r>    11.8543     0.1603    23.9329 </r>
       <r>    11.8607     0.1645    23.9340 </r>
       <r>    11.8671     0.1682    23.9351 </r>
       <r>    11.8735     0.1714    23.9362 </r>
       <r>    11.8799     0.1740    23.9373 </r>
       <r>    11.8863     0.1760    23.9384 </r>
       <r>    11.8927     0.1773    23.9395 </r>
       <r>    11.8991     0.1779    23.9407 </r>
       <r>    11.9054     0.1778    23.9418 </r>
       <r>    11.9118     0.1770    23.9429 </r>
       <r>    11.9182     0.1754    23.9440 </r>
       <r>    11.9246     0.1731    23.9452 </r>
       <r>    11.9310     0.1701    23.9462 </r>
       <r>    11.9374     0.1664    23.9473 </r>
       <r>    11.9438     0.1622    23.9483 </r>
       <r>    11.9502     0.1575    23.9493 </r>
       <r>    11.9566     0.1524    23.9503 </r>
       <r>    11.9630     0.1471    23.9513 </r>
       <r>    11.9693     0.1415    23.9522 </r>
       <r>    11.9757     0.1360    23.9530 </r>
       <r>    11.9821     0.1305    23.9539 </r>
       <r>    11.9885     0.1253    23.9547 </r>
       <r>    11.9949     0.1205    23.9554 </r>
       <r>    12.0013     0.1161    23.9562 </r>
       <r>    12.0077     0.1123    23.9569 </r>
       <r>    12.0141     0.1091    23.9576 </r>
       <r>    12.0205     0.1066    23.9583 </r>
       <r>    12.0269     0.1049    23.9589 </r>
       <r>    12.0332     0.1039    23.9596 </r>
       <r>    12.0396     0.1037    23.9603 </r>
       <r>    12.0460     0.1042    23.9609 </r>
       <r>    12.0524     0.1053    23.9616 </r>
       <r>    12.0588     0.1070    23.9623 </r>
       <r>    12.0652     0.1092    23.9630 </r>
       <r>    12.0716     0.1118    23.9637 </r>
       <r>    12.0780     0.1146    23.9644 </r>
       <r>    12.0844     0.1176    23.9652 </r>
       <r>    12.0908     0.1205    23.9660 </r>
       <r>    12.0971     0.1233    23.9668 </r>
       <r>    12.1035     0.1258    23.9676 </r>
       <r>    12.1099     0.1279    23.9684 </r>
       <r>    12.1163     0.1295    23.9692 </r>
       <r>    12.1227     0.1306    23.9700 </r>
       <r>    12.1291     0.1310    23.9709 </r>
       <r>    12.1355     0.1308    23.9717 </r>
       <r>    12.1419     0.1298    23.9725 </r>
       <r>    12.1483     0.1281    23.9734 </r>
       <r>    12.1547     0.1257    23.9742 </r>
       <r>    12.1611     0.1226    23.9749 </r>
       <r>    12.1674     0.1189    23.9757 </r>
       <r>    12.1738     0.1147    23.9764 </r>
       <r>    12.1802     0.1099    23.9771 </r>
       <r>    12.1866     0.1047    23.9778 </r>
       <r>    12.1930     0.0993    23.9784 </r>
       <r>    12.1994     0.0935    23.9790 </r>
       <r>    12.2058     0.0877    23.9796 </r>
       <r>    12.2122     0.0819    23.9801 </r>
       <r>    12.2186     0.0761    23.9806 </r>
       <r>    12.2250     0.0705    23.9811 </r>
       <r>    12.2313     0.0651    23.9815 </r>
       <r>    12.2377     0.0600    23.9819 </r>
       <r>    12.2441     0.0554    23.9822 </r>
       <r>    12.2505     0.0512    23.9825 </r>
       <r>    12.2569     0.0475    23.9828 </r>
       <r>    12.2633     0.0444    23.9831 </r>
       <r>    12.2697     0.0418    23.9834 </r>
       <r>    12.2761     0.0399    23.9836 </r>
       <r>    12.2825     0.0386    23.9839 </r>
       <r>    12.2889     0.0379    23.9841 </r>
       <r>    12.2952     0.0379    23.9844 </r>
       <r>    12.3016     0.0384    23.9846 </r>
       <r>    12.3080     0.0396    23.9849 </r>
       <r>    12.3144     0.0412    23.9851 </r>
       <r>    12.3208     0.0433    23.9854 </r>
       <r>    12.3272     0.0459    23.9857 </r>
       <r>    12.3336     0.0488    23.9860 </r>
       <r>    12.3400     0.0519    23.9864 </r>
       <r>    12.3464     0.0552    23.9867 </r>
       <r>    12.3528     0.0586    23.9871 </r>
       <r>    12.3592     0.0620    23.9875 </r>
       <r>    12.3655     0.0652    23.9879 </r>
       <r>    12.3719     0.0683    23.9883 </r>
       <r>    12.3783     0.0711    23.9888 </r>
       <r>    12.3847     0.0735    23.9893 </r>
       <r>    12.3911     0.0755    23.9897 </r>
       <r>    12.3975     0.0770    23.9902 </r>
       <r>    12.4039     0.0779    23.9907 </r>
       <r>    12.4103     0.0783    23.9912 </r>
       <r>    12.4167     0.0782    23.9917 </r>
       <r>    12.4231     0.0775    23.9922 </r>
       <r>    12.4294     0.0762    23.9927 </r>
       <r>    12.4358     0.0745    23.9932 </r>
       <r>    12.4422     0.0723    23.9936 </r>
       <r>    12.4486     0.0697    23.9941 </r>
       <r>    12.4550     0.0668    23.9945 </r>
       <r>    12.4614     0.0636    23.9949 </r>
       <r>    12.4678     0.0603    23.9953 </r>
       <r>    12.4742     0.0568    23.9957 </r>
       <r>    12.4806     0.0533    23.9960 </r>
       <r>    12.4870     0.0498    23.9963 </r>
       <r>    12.4933     0.0463    23.9966 </r>
       <r>    12.4997     0.0430    23.9969 </r>
       <r>    12.5061     0.0398    23.9972 </r>
       <r>    12.5125     0.0369    23.9974 </r>
       <r>    12.5189     0.0341    23.9976 </r>
       <r>    12.5253     0.0315    23.9978 </r>
       <r>    12.5317     0.0291    23.9980 </r>
       <r>    12.5381     0.0270    23.9982 </r>
       <r>    12.5445     0.0250    23.9983 </r>
       <r>    12.5509     0.0232    23.9985 </r>
       <r>    12.5572     0.0216    23.9986 </r>
       <r>    12.5636     0.0200    23.9987 </r>
       <r>    12.5700     0.0187    23.9989 </r>
       <r>    12.5764     0.0174    23.9990 </r>
       <r>    12.5828     0.0161    23.9991 </r>
       <r>    12.5892     0.0150    23.9992 </r>
       <r>    12.5956     0.0139    23.9993 </r>
       <r>    12.6020     0.0128    23.9993 </r>
       <r>    12.6084     0.0118    23.9994 </r>
       <r>    12.6148     0.0109    23.9995 </r>
       <r>    12.6212     0.0099    23.9996 </r>
       <r>    12.6275     0.0090    23.9996 </r>
       <r>    12.6339     0.0082    23.9997 </r>
       <r>    12.6403     0.0073    23.9997 </r>
       <r>    12.6467     0.0065    23.9998 </r>
       <r>    12.6531     0.0058    23.9998 </r>
       <r>    12.6595     0.0051    23.9998 </r>
       <r>    12.6659     0.0045    23.9999 </r>
       <r>    12.6723     0.0039    23.9999 </r>
       <r>    12.6787     0.0034    23.9999 </r>
       <r>    12.6851     0.0029    23.9999 </r>
       <r>    12.6914     0.0024    23.9999 </r>
       <r>    12.6978     0.0021    23.9999 </r>
       <r>    12.7042     0.0017    24.0000 </r>
       <r>    12.7106     0.0014    24.0000 </r>
       <r>    12.7170     0.0012    24.0000 </r>
       <r>    12.7234     0.0010    24.0000 </r>
       <r>    12.7298     0.0008    24.0000 </r>
       <r>    12.7362     0.0006    24.0000 </r>
       <r>    12.7426     0.0005    24.0000 </r>
       <r>    12.7490     0.0004    24.0000 </r>
       <r>    12.7553     0.0003    24.0000 </r>
       <r>    12.7617     0.0002    24.0000 </r>
       <r>    12.7681     0.0002    24.0000 </r>
       <r>    12.7745     0.0001    24.0000 </r>
       <r>    12.7809     0.0001    24.0000 </r>
       <r>    12.7873     0.0001    24.0000 </r>
       <r>    12.7937     0.0001    24.0000 </r>
       <r>    12.8001     0.0000    24.0000 </r>
       <r>    12.8065     0.0000    24.0000 </r>
       <r>    12.8129     0.0000    24.0000 </r>
       <r>    12.8192     0.0000    24.0000 </r>
       <r>    12.8256     0.0000    24.0000 </r>
       <r>    12.8320     0.0000    24.0000 </r>
       <r>    12.8384     0.0000    24.0000 </r>
       <r>    12.8448     0.0000    24.0000 </r>
       <r>    12.8512     0.0000    24.0000 </r>
       <r>    12.8576     0.0000    24.0000 </r>
       <r>    12.8640     0.0000    24.0000 </r>
       <r>    12.8704     0.0000    24.0000 </r>
       <r>    12.8768     0.0000    24.0000 </r>
       <r>    12.8832     0.0000    24.0000 </r>
       <r>    12.8895     0.0000    24.0000 </r>
       <r>    12.8959     0.0000    24.0000 </r>
       <r>    12.9023     0.0000    24.0000 </r>
       <r>    12.9087     0.0000    24.0000 </r>
       <r>    12.9151     0.0000    24.0000 </r>
       <r>    12.9215     0.0000    24.0000 </r>
       <r>    12.9279     0.0000    24.0000 </r>
       <r>    12.9343     0.0000    24.0000 </r>
       <r>    12.9407     0.0000    24.0000 </r>
       <r>    12.9471     0.0000    24.0000 </r>
       <r>    12.9534     0.0000    24.0000 </r>
       <r>    12.9598     0.0000    24.0000 </r>
       <r>    12.9662     0.0000    24.0000 </r>
       <r>    12.9726     0.0000    24.0000 </r>
       <r>    12.9790     0.0000    24.0000 </r>
       <r>    12.9854     0.0000    24.0000 </r>
       <r>    12.9918     0.0000    24.0000 </r>
       <r>    12.9982     0.0000    24.0000 </r>
       <r>    13.0046     0.0000    24.0000 </r>
       <r>    13.0110     0.0000    24.0000 </r>
       <r>    13.0173     0.0000    24.0000 </r>
       <r>    13.0237     0.0000    24.0000 </r>
       <r>    13.0301     0.0000    24.0000 </r>
       <r>    13.0365     0.0000    24.0000 </r>
       <r>    13.0429     0.0000    24.0000 </r>
       <r>    13.0493     0.0000    24.0000 </r>
       <r>    13.0557     0.0000    24.0000 </r>
       <r>    13.0621     0.0000    24.0000 </r>
       <r>    13.0685     0.0000    24.0000 </r>
       <r>    13.0749     0.0000    24.0000 </r>
       <r>    13.0813     0.0000    24.0000 </r>
       <r>    13.0876     0.0000    24.0000 </r>
       <r>    13.0940     0.0000    24.0000 </r>
       <r>    13.1004     0.0000    24.0000 </r>
       <r>    13.1068     0.0000    24.0000 </r>
       <r>    13.1132     0.0000    24.0000 </r>
       <r>    13.1196     0.0000    24.0000 </r>
       <r>    13.1260     0.0000    24.0000 </r>
       <r>    13.1324     0.0000    24.0000 </r>
       <r>    13.1388     0.0000    24.0000 </r>
       <r>    13.1452     0.0000    24.0000 </r>
       <r>    13.1515     0.0000    24.0000 </r>
       <r>    13.1579     0.0000    24.0000 </r>
       <r>    13.1643     0.0000    24.0000 </r>
       <r>    13.1707     0.0000    24.0000 </r>
       <r>    13.1771     0.0000    24.0000 </r>
       <r>    13.1835     0.0000    24.0000 </r>
       <r>    13.1899     0.0000    24.0000 </r>
       <r>    13.1963     0.0000    24.0000 </r>
       <r>    13.2027     0.0000    24.0000 </r>
       <r>    13.2091     0.0000    24.0000 </r>
       <r>    13.2154     0.0000    24.0000 </r>
       <r>    13.2218     0.0000    24.0000 </r>
       <r>    13.2282     0.0000    24.0000 </r>
       <r>    13.2346     0.0000    24.0000 </r>
       <r>    13.2410     0.0000    24.0000 </r>
       <r>    13.2474     0.0000    24.0000 </r>
       <r>    13.2538     0.0000    24.0000 </r>
       <r>    13.2602     0.0000    24.0000 </r>
       <r>    13.2666     0.0000    24.0000 </r>
       <r>    13.2730     0.0000    24.0000 </r>
       <r>    13.2793     0.0000    24.0000 </r>
       <r>    13.2857     0.0000    24.0000 </r>
       <r>    13.2921     0.0000    24.0000 </r>
       <r>    13.2985     0.0000    24.0000 </r>
       <r>    13.3049     0.0000    24.0000 </r>
       <r>    13.3113     0.0000    24.0000 </r>
       <r>    13.3177     0.0000    24.0000 </r>
       <r>    13.3241     0.0000    24.0000 </r>
       <r>    13.3305     0.0000    24.0000 </r>
       <r>    13.3369     0.0000    24.0000 </r>
       <r>    13.3433     0.0000    24.0000 </r>
       <r>    13.3496     0.0000    24.0000 </r>
       <r>    13.3560     0.0000    24.0000 </r>
       <r>    13.3624     0.0000    24.0000 </r>
       <r>    13.3688     0.0000    24.0000 </r>
       <r>    13.3752     0.0000    24.0000 </r>
       <r>    13.3816     0.0000    24.0000 </r>
       <r>    13.3880     0.0000    24.0000 </r>
       <r>    13.3944     0.0000    24.0000 </r>
       <r>    13.4008     0.0000    24.0000 </r>
       <r>    13.4072     0.0000    24.0000 </r>
       <r>    13.4135     0.0000    24.0000 </r>
       <r>    13.4199     0.0000    24.0000 </r>
       <r>    13.4263     0.0000    24.0000 </r>
       <r>    13.4327     0.0000    24.0000 </r>
       <r>    13.4391     0.0000    24.0000 </r>
       <r>    13.4455     0.0000    24.0000 </r>
       <r>    13.4519     0.0000    24.0000 </r>
       <r>    13.4583     0.0000    24.0000 </r>
       <r>    13.4647     0.0000    24.0000 </r>
       <r>    13.4711     0.0000    24.0000 </r>
       <r>    13.4774     0.0000    24.0000 </r>
       <r>    13.4838     0.0000    24.0000 </r>
       <r>    13.4902     0.0000    24.0000 </r>
       <r>    13.4966     0.0000    24.0000 </r>
       <r>    13.5030     0.0000    24.0000 </r>
       <r>    13.5094     0.0000    24.0000 </r>
       <r>    13.5158     0.0000    24.0000 </r>
       <r>    13.5222     0.0000    24.0000 </r>
       <r>    13.5286     0.0000    24.0000 </r>
       <r>    13.5350     0.0000    24.0000 </r>
       <r>    13.5414     0.0000    24.0000 </r>
       <r>    13.5477     0.0000    24.0000 </r>
       <r>    13.5541     0.0000    24.0000 </r>
       <r>    13.5605     0.0000    24.0000 </r>
       <r>    13.5669     0.0000    24.0000 </r>
       <r>    13.5733     0.0000    24.0000 </r>
       <r>    13.5797     0.0000    24.0000 </r>
       <r>    13.5861     0.0000    24.0000 </r>
       <r>    13.5925     0.0000    24.0000 </r>
       <r>    13.5989     0.0000    24.0000 </r>
       <r>    13.6053     0.0000    24.0000 </r>
       <r>    13.6116     0.0000    24.0000 </r>
       <r>    13.6180     0.0000    24.0000 </r>
       <r>    13.6244     0.0000    24.0000 </r>
       <r>    13.6308     0.0000    24.0000 </r>
       <r>    13.6372     0.0000    24.0000 </r>
       <r>    13.6436     0.0000    24.0000 </r>
       <r>    13.6500     0.0000    24.0000 </r>
       <r>    13.6564     0.0000    24.0000 </r>
       <r>    13.6628     0.0000    24.0000 </r>
       <r>    13.6692     0.0000    24.0000 </r>
       <r>    13.6755     0.0000    24.0000 </r>
       <r>    13.6819     0.0000    24.0000 </r>
       <r>    13.6883     0.0000    24.0000 </r>
       <r>    13.6947     0.0000    24.0000 </r>
       <r>    13.7011     0.0000    24.0000 </r>
       <r>    13.7075     0.0000    24.0000 </r>
       <r>    13.7139     0.0000    24.0000 </r>
       <r>    13.7203     0.0000    24.0000 </r>
       <r>    13.7267     0.0000    24.0000 </r>
       <r>    13.7331     0.0000    24.0000 </r>
       <r>    13.7394     0.0000    24.0000 </r>
       <r>    13.7458     0.0000    24.0000 </r>
       <r>    13.7522     0.0000    24.0000 </r>
       <r>    13.7586     0.0000    24.0000 </r>
       <r>    13.7650     0.0000    24.0000 </r>
       <r>    13.7714     0.0000    24.0000 </r>
       <r>    13.7778     0.0000    24.0000 </r>
       <r>    13.7842     0.0000    24.0000 </r>
       <r>    13.7906     0.0000    24.0000 </r>
       <r>    13.7970     0.0000    24.0000 </r>
       <r>    13.8034     0.0000    24.0000 </r>
       <r>    13.8097     0.0000    24.0000 </r>
       <r>    13.8161     0.0000    24.0000 </r>
       <r>    13.8225     0.0000    24.0000 </r>
       <r>    13.8289     0.0000    24.0000 </r>
       <r>    13.8353     0.0000    24.0000 </r>
       <r>    13.8417     0.0000    24.0000 </r>
       <r>    13.8481     0.0000    24.0000 </r>
       <r>    13.8545     0.0000    24.0000 </r>
       <r>    13.8609     0.0000    24.0000 </r>
       <r>    13.8673     0.0000    24.0000 </r>
       <r>    13.8736     0.0000    24.0000 </r>
       <r>    13.8800     0.0000    24.0000 </r>
       <r>    13.8864     0.0000    24.0000 </r>
       <r>    13.8928     0.0000    24.0000 </r>
       <r>    13.8992     0.0000    24.0000 </r>
       <r>    13.9056     0.0000    24.0000 </r>
       <r>    13.9120     0.0000    24.0000 </r>
       <r>    13.9184     0.0000    24.0000 </r>
       <r>    13.9248     0.0000    24.0000 </r>
       <r>    13.9312     0.0000    24.0000 </r>
       <r>    13.9375     0.0000    24.0000 </r>
       <r>    13.9439     0.0000    24.0000 </r>
       <r>    13.9503     0.0000    24.0000 </r>
       <r>    13.9567     0.0000    24.0000 </r>
       <r>    13.9631     0.0000    24.0000 </r>
       <r>    13.9695     0.0000    24.0000 </r>
       <r>    13.9759     0.0000    24.0000 </r>
       <r>    13.9823     0.0000    24.0000 </r>
       <r>    13.9887     0.0000    24.0000 </r>
       <r>    13.9951     0.0000    24.0000 </r>
       <r>    14.0014     0.0000    24.0000 </r>
       <r>    14.0078     0.0000    24.0000 </r>
       <r>    14.0142     0.0000    24.0000 </r>
       <r>    14.0206     0.0000    24.0000 </r>
       <r>    14.0270     0.0000    24.0000 </r>
       <r>    14.0334     0.0000    24.0000 </r>
       <r>    14.0398     0.0000    24.0000 </r>
       <r>    14.0462     0.0000    24.0000 </r>
       <r>    14.0526     0.0000    24.0000 </r>
       <r>    14.0590     0.0000    24.0000 </r>
       <r>    14.0654     0.0000    24.0000 </r>
       <r>    14.0717     0.0000    24.0000 </r>
       <r>    14.0781     0.0000    24.0000 </r>
       <r>    14.0845     0.0000    24.0000 </r>
       <r>    14.0909     0.0000    24.0000 </r>
       <r>    14.0973     0.0000    24.0000 </r>
       <r>    14.1037     0.0000    24.0000 </r>
       <r>    14.1101     0.0000    24.0000 </r>
       <r>    14.1165     0.0000    24.0000 </r>
       <r>    14.1229     0.0000    24.0000 </r>
       <r>    14.1293     0.0000    24.0000 </r>
       <r>    14.1356     0.0000    24.0000 </r>
       <r>    14.1420     0.0000    24.0000 </r>
       <r>    14.1484     0.0000    24.0000 </r>
       <r>    14.1548     0.0000    24.0000 </r>
       <r>    14.1612     0.0000    24.0000 </r>
       <r>    14.1676     0.0000    24.0000 </r>
       <r>    14.1740     0.0000    24.0000 </r>
       <r>    14.1804     0.0000    24.0000 </r>
       <r>    14.1868     0.0000    24.0000 </r>
       <r>    14.1932     0.0000    24.0000 </r>
       <r>    14.1995     0.0000    24.0000 </r>
       <r>    14.2059     0.0000    24.0000 </r>
       <r>    14.2123     0.0000    24.0000 </r>
       <r>    14.2187     0.0000    24.0000 </r>
       <r>    14.2251     0.0000    24.0000 </r>
       <r>    14.2315     0.0000    24.0000 </r>
       <r>    14.2379     0.0000    24.0000 </r>
       <r>    14.2443     0.0000    24.0000 </r>
       <r>    14.2507     0.0000    24.0000 </r>
       <r>    14.2571     0.0000    24.0000 </r>
       <r>    14.2635     0.0000    24.0000 </r>
       <r>    14.2698     0.0000    24.0000 </r>
       <r>    14.2762     0.0000    24.0000 </r>
       <r>    14.2826     0.0000    24.0000 </r>
       <r>    14.2890     0.0000    24.0000 </r>
       <r>    14.2954     0.0000    24.0000 </r>
       <r>    14.3018     0.0000    24.0000 </r>
      </set>
     </set>
    </array>
   </total>
  </dos>
 </calculation>
 <structure name="finalpos" >
  <crystal>
   <varray name="basis" >
    <v>       2.13000000      -1.22975600       0.00000000 </v>
    <v>       2.13000000       1.22975600       0.00000000 </v>
    <v>       0.00000000       0.00000000      20.00000000 </v>
   </varray>
   <i name="volume">    104.77521120 </i>
   <varray name="rec_basis" >
    <v>       0.23474178      -0.40658472       0.00000000 </v>
    <v>       0.23474178       0.40658472       0.00000000 </v>
    <v>       0.00000000       0.00000000       0.05000000 </v>
   </varray>
  </crystal>
  <varray name="positions" >
   <v>       0.00000000       0.00000000       0.00000000 </v>
   <v>       0.33333300       0.33333300       0.00000000 </v>
  </varray>
 </structure>
</modeling>
