...it's alive! Batch file starting...
 running on   36 total cores
 distrk:  each k-point on   36 cores,    1 groups
 distr:  one band on    6 cores,    6 groups
 using from now: INCAR     
 vasp.5.4.4.18Apr17-6-g9f103f2a35 (build May 31 2018 21:15:54) complex          
  
 POSCAR found type information on POSCAR  C 
 POSCAR found :  1 types and       2 ions
 scaLAPACK will be used
 LDA part: xc-table for Pade appr. of Perdew
 POSCAR, INCAR and KPOINTS ok, starting setup
 FFT: planning ...
 WAVECAR not read
 charge-density read from file: C-2                                     
 entering main loop
       N       E                     dE             d eps       ncg     rms          rms(c)
DAV:   1     0.369798311522E+02    0.36980E+02   -0.37140E+03  4056   0.691E+02
DAV:   2    -0.159280632592E+02   -0.52908E+02   -0.42100E+02  5772   0.781E+01
DAV:   3    -0.184462291898E+02   -0.25182E+01   -0.25174E+01  5172   0.272E+01
DAV:   4    -0.184589896381E+02   -0.12760E-01   -0.12760E-01  6456   0.215E+00
DAV:   5    -0.184590206355E+02   -0.30997E-04   -0.30998E-04  5292   0.757E-02    0.177E-04
DAV:   6    -0.184590209770E+02   -0.34157E-06   -0.33476E-06  6480   0.508E-03    0.667E-05
DAV:   7    -0.184590209778E+02   -0.79621E-09   -0.26309E-09  5640   0.192E-04
   1 F= -.18459021E+02 E0= -.18458957E+02  d E =-.127934E-03
Bstch file complete.
