    4    4   40    1
  0.2619380E+02  0.2459512E-09  0.2459512E-09  0.2000000E-08  0.5000000E-15
  1.000000000000000E-004
  CAR 
 bilayer_graphene_AA                     
     16     48     12
 
  0.3742002E-15  0.3742002E-15  0.1262379E-14  0.2267574E-02
    1      -20.800225   1.000000
    2      -20.788547   1.000000
    3       -8.979057   1.000000
    4       -8.798040   1.000000
    5       -4.248007   1.000000
    6       -4.247949   1.000000
    7       -4.247541   1.000000
    8       -4.247483   1.000000
    9        1.923446   0.000000
   10        2.481682   0.000000
   11        3.102374   0.000000
   12        3.995106   0.000000
 
  0.4761905E-01  0.3771171E-15  0.1262379E-14  0.1360544E-01
    1      -20.746366   1.000000
    2      -20.734736   1.000000
    3       -8.914385   1.000000
    4       -8.733889   1.000000
    5       -4.468933   1.000000
    6       -4.468291   1.000000
    7       -4.364870   1.000000
    8       -4.364331   1.000000
    9        1.995522   0.000000
   10        2.554899   0.000000
   11        3.175718   0.000000
   12        4.067464   0.000000
 
  0.9523810E-01  0.3768972E-15  0.1262379E-14  0.1360544E-01
    1      -20.584968   1.000000
    2      -20.573486   1.000000
    3       -8.720835   1.000000
    4       -8.541946   1.000000
    5       -5.088969   1.000000
    6       -5.087939   1.000000
    7       -4.684705   1.000000
    8       -4.684035   1.000000
    9        2.211813   0.000000
   10        2.774502   0.000000
   11        3.395678   0.000000
   12        4.284342   0.000000
 
  0.1428571E+00  0.3593300E-15  0.1262379E-14  0.1360544E-01
    1      -20.316595   1.000000
    2      -20.305363   1.000000
    3       -8.400130   1.000000
    4       -8.223930   1.000000
    5       -6.008573   1.000000
    6       -6.007024   1.000000
    7       -5.136366   1.000000
    8       -5.135588   1.000000
    9        2.572282   0.000000
   10        3.140204   0.000000
   11        3.761857   0.000000
   12        4.644884   0.000000
 
  0.1904762E+00  0.3695184E-15  0.1262379E-14  0.1360544E-01
    1      -19.942248   1.000000
    2      -19.931374   1.000000
    3       -7.955325   1.000000
    4       -7.783066   1.000000
    5       -7.121412   1.000000
    6       -7.119348   1.000000
    7       -5.645138   1.000000
    8       -5.644275   1.000000
    9        3.076441   0.000000
   10        3.651090   0.000000
   11        4.272891   0.000000
   12        5.146020   0.000000
 
  0.2380952E+00  0.1267399E-14  0.1262379E-14  0.1360544E-01
    1      -19.463441   1.000000
    2      -19.453010   1.000000
    3       -8.341321   1.000000
    4       -8.338638   1.000000
    5       -7.391698   1.000000
    6       -7.224759   1.000000
    7       -6.152152   1.000000
    8       -6.151211   1.000000
    9        3.723122   0.000000
   10        4.303835   0.000000
   11        4.921429   0.000000
   12        5.752891   0.000000
 
  0.2857143E+00  0.3625559E-15  0.1262379E-14  0.1360544E-01
    1      -18.882439   1.000000
    2      -18.872528   1.000000
    3       -9.605556   1.000000
    4       -9.602203   1.000000
    5       -6.718262   1.000000
    6       -6.616536   1.000000
    7       -6.615521   1.000000
    8       -6.558323   1.000000
    9        4.508107   0.000000
   10        4.966735   0.000000
   11        4.974490   0.000000
   12        5.261364   0.000000
 
  0.3333333E+00  0.3588666E-15  0.1262379E-14  0.1360544E-01
    1      -18.202723   1.000000
    2      -18.193389   1.000000
    3      -10.869508   1.000000
    4      -10.865416   1.000000
    5       -7.011439   1.000000
    6       -7.010390   1.000000
    7       -5.951378   1.000000
    8       -5.800577   1.000000
    9        3.658693   0.000000
   10        3.773292   0.000000
   11        5.432797   0.000000
   12        6.056959   0.000000
 
  0.3809524E+00  0.3551772E-15  0.1262379E-14  0.1360544E-01
    1      -17.430418   1.000000
    2      -17.421721   1.000000
    3      -12.099669   1.000000
    4      -12.094853   1.000000
    5       -7.319609   1.000000
    6       -7.318521   1.000000
    7       -5.124551   1.000000
    8       -4.985698   1.000000
    9        2.368684   0.000000
   10        2.500153   0.000000
   11        6.304320   0.000000
   12        6.400300   0.000000
 
  0.4285714E+00  0.3810475E-15  0.1262379E-14  0.1360544E-01
    1      -16.580658   1.000000
    2      -16.572626   1.000000
    3      -13.263310   1.000000
    4      -13.257781   1.000000
    5       -7.530236   1.000000
    6       -7.529125   1.000000
    7       -4.317429   1.000000
    8       -4.194152   1.000000
    9        1.234789   0.000000
   10        1.385799   0.000000
   11        6.281653   0.000000
   12        6.303089   0.000000
 
  0.4761905E+00  0.3496025E-15  0.1262379E-14  0.1360544E-01
    1      -15.735594   1.000000
    2      -15.728118   1.000000
    3      -14.267755   1.000000
    4      -14.261642   1.000000
    5       -7.636986   1.000000
    6       -7.635870   1.000000
    7       -3.736833   1.000000
    8       -3.629461   1.000000
    9        0.485806   0.000000
   10        0.655009   0.000000
   11        6.232066   0.000000
   12        6.249996   0.000000
 
  0.9523810E-01  0.4761905E-01  0.1262379E-14  0.1360544E-01
    1      -20.638736   1.000000
    2      -20.627206   1.000000
    3       -8.785277   1.000000
    4       -8.605834   1.000000
    5       -4.874026   1.000000
    6       -4.873124   1.000000
    7       -4.598717   1.000000
    8       -4.598091   1.000000
    9        2.139724   0.000000
   10        2.701319   0.000000
   11        3.322380   0.000000
   12        4.212093   0.000000
 
  0.1428571E+00  0.4761905E-01  0.1262379E-14  0.2721088E-01
    1      -20.423855   1.000000
    2      -20.412522   1.000000
    3       -8.528107   1.000000
    4       -8.350829   1.000000
    5       -5.611017   1.000000
    6       -5.609730   1.000000
    7       -5.017855   1.000000
    8       -5.017035   1.000000
    9        2.428207   0.000000
   10        2.994036   0.000000
   11        3.615525   0.000000
   12        4.500920   0.000000
 
  0.1904762E+00  0.4761905E-01  0.1262379E-14  0.2721088E-01
    1      -20.102498   1.000000
    2      -20.091470   1.000000
    3       -8.145223   1.000000
    4       -7.971275   1.000000
    5       -6.597305   1.000000
    6       -6.595511   1.000000
    7       -5.528835   1.000000
    8       -5.527857   1.000000
    9        2.860727   0.000000
   10        3.432540   0.000000
   11        4.054438   0.000000
   12        4.932498   0.000000
 
  0.2380952E+00  0.4761905E-01  0.1262379E-14  0.2721088E-01
    1      -19.675923   1.000000
    2      -19.665296   1.000000
    3       -7.742361   1.000000
    4       -7.740003   1.000000
    5       -7.640659   1.000000
    6       -7.471319   1.000000
    7       -6.058712   1.000000
    8       -6.057634   1.000000
    9        3.436498   0.000000
   10        4.015265   0.000000
   11        4.636464   0.000000
   12        5.499470   0.000000
 
  0.2857143E+00  0.4761905E-01  0.1262379E-14  0.2721088E-01
    1      -19.146005   1.000000
    2      -19.135865   1.000000
    3       -8.970590   1.000000
    4       -8.967608   1.000000
    5       -7.021274   1.000000
    6       -6.858051   1.000000
    7       -6.558593   1.000000
    8       -6.557443   1.000000
    9        4.153763   0.000000
   10        4.732172   0.000000
   11        5.307332   0.000000
   12        5.661320   0.000000
 
  0.3333333E+00  0.4761905E-01  0.1262379E-14  0.2721088E-01
    1      -18.515571   1.000000
    2      -18.505980   1.000000
    3      -10.226109   1.000000
    4      -10.222420   1.000000
    5       -6.996940   1.000000
    6       -6.995728   1.000000
    7       -6.298954   1.000000
    8       -6.143715   1.000000
    9        4.287892   0.000000
   10        4.389513   0.000000
   11        5.012819   0.000000
   12        5.636426   0.000000
 
  0.3809524E+00  0.4761905E-01  0.1262379E-14  0.2721088E-01
    1      -17.789165   1.000000
    2      -17.780172   1.000000
    3      -11.468282   1.000000
    4      -11.463851   1.000000
    5       -7.353621   1.000000
    6       -7.352353   1.000000
    7       -5.496506   1.000000
    8       -5.351691   1.000000
    9        2.980346   0.000000
   10        3.098871   0.000000
   11        5.993271   0.000000
   12        6.584141   0.000000
 
  0.4285714E+00  0.4761905E-01  0.1262379E-14  0.2721088E-01
    1      -16.975914   1.000000
    2      -16.967588   1.000000
    3      -12.664272   1.000000
    4      -12.659138   1.000000
    5       -7.615901   1.000000
    6       -7.614625   1.000000
    7       -4.664152   1.000000
    8       -4.532946   1.000000
    9        1.758277   0.000000
   10        1.895467   0.000000
   11        6.553536   0.000000
   12        6.590556   0.000000
 
  0.4761905E+00  0.4761905E-01  0.1262379E-14  0.2721088E-01
    1      -16.106519   1.000000
    2      -16.098827   1.000000
    3      -13.768690   1.000000
    4      -13.762858   1.000000
    5       -7.776055   1.000000
    6       -7.774761   1.000000
    7       -3.929965   1.000000
    8       -3.815489   1.000000
    9        0.780107   0.000000
   10        0.937404   0.000000
   11        6.493510   0.000000
   12        6.513775   0.000000
 
 -0.4761905E+00  0.4761905E-01  0.1262379E-14  0.1360544E-01
    1      -15.487431   1.000000
    2      -15.480092   1.000000
    3      -14.466969   1.000000
    4      -14.460778   1.000000
    5       -7.829868   1.000000
    6       -7.828580   1.000000
    7       -3.598729   1.000000
    8       -3.494554   1.000000
    9        0.365876   0.000000
   10        0.534724   0.000000
   11        6.467991   0.000000
   12        6.486916   0.000000
 
  0.1904762E+00  0.9523810E-01  0.1262379E-14  0.1360544E-01
    1      -20.155988   1.000000
    2      -20.144908   1.000000
    3       -8.208712   1.000000
    4       -8.034184   1.000000
    5       -6.353318   1.000000
    6       -6.351699   1.000000
    7       -5.558418   1.000000
    8       -5.557333   1.000000
    9        2.788919   0.000000
   10        3.359702   0.000000
   11        3.981596   0.000000
   12        4.861177   0.000000
 
  0.2380952E+00  0.9523810E-01  0.1262379E-14  0.2721088E-01
    1      -19.782411   1.000000
    2      -19.771688   1.000000
    3       -7.765750   1.000000
    4       -7.595208   1.000000
    5       -7.296320   1.000000
    6       -7.294278   1.000000
    7       -6.167183   1.000000
    8       -6.165878   1.000000
    9        3.293419   0.000000
   10        3.870689   0.000000
   11        4.492719   0.000000
   12        5.362939   0.000000
 
  0.2857143E+00  0.9523810E-01  0.1262379E-14  0.2721088E-01
    1      -19.304726   1.000000
    2      -19.294445   1.000000
    3       -8.396396   1.000000
    4       -8.393793   1.000000
    5       -7.204443   1.000000
    6       -7.039275   1.000000
    7       -6.744275   1.000000
    8       -6.742793   1.000000
    9        3.940516   0.000000
   10        4.524190   0.000000
   11        5.142364   0.000000
   12        5.936474   0.000000
 
  0.3333333E+00  0.9523810E-01  0.1262379E-14  0.2721088E-01
    1      -18.725317   1.000000
    2      -18.715548   1.000000
    3       -9.584452   1.000000
    4       -9.581192   1.000000
    5       -7.250094   1.000000
    6       -7.248506   1.000000
    7       -6.533563   1.000000
    8       -6.375400   1.000000
    9        4.720814   0.000000
   10        4.816445   0.000000
   11        4.879606   0.000000
   12        5.352025   0.000000
 
  0.3809524E+00  0.9523810E-01  0.1262379E-14  0.2721088E-01
    1      -18.047840   1.000000
    2      -18.038646   1.000000
    3      -10.800554   1.000000
    4      -10.796593   1.000000
    5       -7.668264   1.000000
    6       -7.666600   1.000000
    7       -5.769003   1.000000
    8       -5.619903   1.000000
    9        3.534953   0.000000
   10        3.633264   0.000000
   11        5.654535   0.000000
   12        6.273096   0.000000
 
  0.4285714E+00  0.9523810E-01  0.1262379E-14  0.2721088E-01
    1      -17.278668   1.000000
    2      -17.270112   1.000000
    3      -12.000163   1.000000
    4      -11.995473   1.000000
    5       -7.989067   1.000000
    6       -7.987366   1.000000
    7       -4.942899   1.000000
    8       -4.805547   1.000000
    9        2.289636   0.000000
   10        2.406249   0.000000
   11        6.700831   0.000000
   12        7.261888   0.000000
 
  0.4761905E+00  0.9523810E-01  0.1262379E-14  0.2721088E-01
    1      -16.433411   1.000000
    2      -16.425496   1.000000
    3      -13.143808   1.000000
    4      -13.138385   1.000000
    5       -8.206199   1.000000
    6       -8.204434   1.000000
    7       -4.132091   1.000000
    8       -4.009855   1.000000
    9        1.182516   0.000000
   10        1.319128   0.000000
   11        7.200934   0.000000
   12        7.234828   0.000000
 
 -0.4761905E+00  0.9523810E-01  0.1262379E-14  0.2721088E-01
    1      -15.594814   1.000000
    2      -15.587486   1.000000
    3      -14.134778   1.000000
    4      -14.128768   1.000000
    5       -8.315691   1.000000
    6       -8.313931   1.000000
    7       -3.542090   1.000000
    8       -3.435473   1.000000
    9        0.439408   0.000000
   10        0.594184   0.000000
   11        7.158986   0.000000
   12        7.182862   0.000000
 
  0.2857143E+00  0.1428571E+00  0.1262379E-14  0.1360544E-01
    1      -19.357726   1.000000
    2      -19.347396   1.000000
    3       -8.111606   1.000000
    4       -8.109219   1.000000
    5       -7.265698   1.000000
    6       -7.099895   1.000000
    7       -6.906296   1.000000
    8       -6.904600   1.000000
    9        3.869403   0.000000
   10        4.453556   0.000000
   11        5.075112   0.000000
   12        5.934436   0.000000
 
  0.3333333E+00  0.1428571E+00  0.1262379E-14  0.2721088E-01
    1      -18.830528   1.000000
    2      -18.820675   1.000000
    3       -9.078286   1.000000
    4       -9.075402   1.000000
    5       -7.583117   1.000000
    6       -7.581122   1.000000
    7       -6.651713   1.000000
    8       -6.492112   1.000000
    9        4.586863   0.000000
   10        5.123973   0.000000
   11        5.144972   0.000000
   12        5.222957   0.000000
 
  0.3809524E+00  0.1428571E+00  0.1262379E-14  0.2721088E-01
    1      -18.203933   1.000000
    2      -18.194616   1.000000
    3      -10.170218   1.000000
    4      -10.166728   1.000000
    5       -8.126074   1.000000
    6       -8.123899   1.000000
    7       -5.935046   1.000000
    8       -5.783400   1.000000
    9        3.942824   0.000000
   10        4.018766   0.000000
   11        5.444085   0.000000
   12        6.049081   0.000000
 
  0.4285714E+00  0.1428571E+00  0.1262379E-14  0.2721088E-01
    1      -17.482906   1.000000
    2      -17.474195   1.000000
    3      -11.315948   1.000000
    4      -11.311771   1.000000
    5       -8.537234   1.000000
    6       -8.534968   1.000000
    7       -5.136733   1.000000
    8       -4.995238   1.000000
    9        2.744226   0.000000
   10        2.836844   0.000000
   11        6.435358   0.000000
   12        7.051306   0.000000
 
  0.4761905E+00  0.1428571E+00  0.1262379E-14  0.2721088E-01
    1      -16.677320   1.000000
    2      -16.669238   1.000000
    3      -12.453631   1.000000
    4      -12.448697   1.000000
    5       -8.827025   1.000000
    6       -8.824672   1.000000
    7       -4.302521   1.000000
    8       -4.174034   1.000000
    9        1.601353   0.000000
   10        1.712385   0.000000
   11        7.547079   0.000000
   12        8.151523   0.000000
 
 -0.4761905E+00  0.1428571E+00  0.1262379E-14  0.2721088E-01
    1      -15.818803   1.000000
    2      -15.811365   1.000000
    3      -13.521412   1.000000
    4      -13.515793   1.000000
    5       -8.999993   1.000000
    6       -8.997609   1.000000
    7       -3.553130   1.000000
    8       -3.440421   1.000000
    9        0.657109   0.000000
   10        0.787596   0.000000
   11        8.191004   0.000000
   12        8.235076   0.000000
 
 -0.4285714E+00  0.1428571E+00  0.1262379E-14  0.1360544E-01
    1      -15.211090   1.000000
    2      -15.204025   1.000000
    3      -14.200423   1.000000
    4      -14.194438   1.000000
    5       -9.057589   1.000000
    6       -9.055198   1.000000
    7       -3.205148   1.000000
    8       -3.102512   1.000000
    9        0.242516   0.000000
   10        0.384318   0.000000
   11        8.174114   0.000000
   12        8.209180   0.000000
 
  0.3809524E+00  0.1904762E+00  0.1262379E-14  0.1360544E-01
    1      -18.256093   1.000000
    2      -18.246745   1.000000
    3       -9.840656   1.000000
    4       -9.837457   1.000000
    5       -8.405488   1.000000
    6       -8.403022   1.000000
    7       -5.990803   1.000000
    8       -5.838303   1.000000
    9        4.097140   0.000000
   10        4.162374   0.000000
   11        5.373221   0.000000
   12        5.971695   0.000000
 
  0.4285714E+00  0.1904762E+00  0.1262379E-14  0.2721088E-01
    1      -17.585669   1.000000
    2      -17.576871   1.000000
    3      -10.750681   1.000000
    4      -10.746949   1.000000
    5       -9.053633   1.000000
    6       -9.050853   1.000000
    7       -5.235871   1.000000
    8       -5.092320   1.000000
    9        3.015368   0.000000
   10        3.089940   0.000000
   11        6.295226   0.000000
   12        6.899240   0.000000
 
  0.4761905E+00  0.1904762E+00  0.1262379E-14  0.2721088E-01
    1      -16.826540   1.000000
    2      -16.818344   1.000000
    3      -11.776762   1.000000
    4      -11.772341   1.000000
    5       -9.493511   1.000000
    6       -9.490556   1.000000
    7       -4.414400   1.000000
    8       -4.281967   1.000000
    9        1.926735   0.000000
   10        2.014428   0.000000
   11        7.345292   0.000000
   12        7.950046   0.000000
 
 -0.4761905E+00  0.1904762E+00  0.1262379E-14  0.2721088E-01
    1      -15.995444   1.000000
    2      -15.987905   1.000000
    3      -12.825398   1.000000
    4      -12.820275   1.000000
    5       -9.764796   1.000000
    6       -9.761769   1.000000
    7       -3.591783   1.000000
    8       -3.473099   1.000000
    9        0.913613   0.000000
   10        1.017362   0.000000
   11        8.502314   0.000000
   12        9.088021   0.000000
 
 -0.4285714E+00  0.1904762E+00  0.1262379E-14  0.2721088E-01
    1      -15.175247   1.000000
    2      -15.168292   1.000000
    3      -13.764467   1.000000
    4      -13.758730   1.000000
    5       -9.895322   1.000000
    6       -9.892255   1.000000
    7       -2.964186   1.000000
    8       -2.859915   1.000000
    9        0.186523   0.000000
   10        0.306152   0.000000
   11        9.390495   0.000000
   12        9.467694   0.000000
 
  0.4761905E+00  0.2380952E+00  0.1262379E-14  0.1360544E-01
    1      -16.876663   1.000000
    2      -16.868434   1.000000
    3      -11.405799   1.000000
    4      -11.401710   1.000000
    5       -9.866320   1.000000
    6       -9.863035   1.000000
    7       -4.453195   1.000000
    8       -4.319443   1.000000
    9        2.051397   0.000000
   10        2.129151   0.000000
   11        7.274925   0.000000
   12        7.870827   0.000000
 
 -0.4761905E+00  0.2380952E+00  0.1262379E-14  0.2721088E-01
    1      -16.088285   1.000000
    2      -16.080699   1.000000
    3      -12.220268   1.000000
    4      -12.215609   1.000000
    5      -10.414234   1.000000
    6      -10.410681   1.000000
    7       -3.621009   1.000000
    8       -3.498876   1.000000
    9        1.085866   0.000000
   10        1.171380   0.000000
   11        8.361083   0.000000
   12        8.919876   0.000000
 
 -0.4285714E+00  0.2380952E+00  0.1262379E-14  0.2721088E-01
    1      -15.253046   1.000000
    2      -15.246089   1.000000
    3      -13.126433   1.000000
    4      -13.121149   1.000000
    5      -10.699425   1.000000
    6      -10.695746   1.000000
    7       -2.832014   1.000000
    8       -2.723265   1.000000
    9        0.214148   0.000000
   10        0.311245   0.000000
   11        9.285419   0.000000
   12        9.684589   0.000000
 
 -0.3809524E+00  0.2380952E+00  0.1262379E-14  0.1360544E-01
    1      -14.659600   1.000000
    2      -14.653061   1.000000
    3      -13.753227   1.000000
    4      -13.747505   1.000000
    5      -10.786666   1.000000
    6      -10.782958   1.000000
    7       -2.423867   1.000000
    8       -2.324349   1.000000
    9       -0.222208   0.000000
   10       -0.116346   0.000000
   11        9.400890   0.000000
   12       10.193599   0.000000
 
 -0.4285714E+00  0.2857143E+00  0.1262379E-14  0.1360544E-01
    1      -15.287662   1.000000
    2      -15.280699   1.000000
    3      -12.746951   1.000000
    4      -12.741948   1.000000
    5      -11.129522   1.000000
    6      -11.125501   1.000000
    7       -2.791908   1.000000
    8       -2.680931   1.000000
    9        0.237822   0.000000
   10        0.325222   0.000000
   11        9.135374   0.000000
   12        9.603282   0.000000
 
 -0.3809524E+00  0.2857143E+00  0.1262379E-14  0.2721088E-01
    1      -14.495859   1.000000
    2      -14.489500   1.000000
    3      -13.411116   1.000000
    4      -13.405627   1.000000
    5      -11.484481   1.000000
    6      -11.480260   1.000000
    7       -2.048641   1.000000
    8       -1.948554   1.000000
    9       -0.511079   0.000000
   10       -0.417579   0.000000
   11        9.117032   0.000000
   12        9.938011   0.000000
 
 -0.3333333E+00  0.3333333E+00  0.1262379E-14  0.4535147E-02
    1      -13.836023   1.000000
    2      -13.835991   1.000000
    3      -13.830184   1.000000
    4      -13.830151   1.000000
    5      -11.826283   1.000000
    6      -11.821813   1.000000
    7       -1.268123   1.000000
    8       -1.268096   1.000000
    9       -1.173616   0.000000
   10       -1.173589   0.000000
   11        9.006076   0.000000
   12        9.848392   0.000000
