<?xml version="1.0" encoding="ISO-8859-1"?>
<modeling>
 <generator>
  <i name="program" type="string">vasp </i>
  <i name="version" type="string">5.4.4.18Apr17-6-g9f103f2a35  </i>
  <i name="subversion" type="string">(build May 31 2018 21:15:54) complex            parallel </i>
  <i name="platform" type="string">c7_intel_O1 </i>
  <i name="date" type="string">2020 07 28 </i>
  <i name="time" type="string">00:35:10 </i>
 </generator>
 <incar>
  <i type="string" name="SYSTEM"> bilayer_graphene_AA</i>
  <i type="int" name="ISTART">     0</i>
  <i type="string" name="PREC">accurate</i>
  <i type="string" name="ALGO"> N</i>
  <i type="logical" name="ADDGRID"> T  </i>
  <i name="AMIN">      0.01000000</i>
  <i type="int" name="NELMIN">     5</i>
  <i type="int" name="IBRION">     2</i>
  <i name="EDIFF">      0.00000001</i>
  <i name="EDIFFG">     -0.00010000</i>
  <i type="int" name="NSW">    40</i>
  <i name="SYMPREC">      0.00010000</i>
  <i name="ENCUT">    800.00000000</i>
  <i type="int" name="NEDOS">  6001</i>
  <i type="logical" name="LREAL"> F  </i>
  <i type="int" name="ISMEAR">     0</i>
  <i name="SIGMA">      0.01000000</i>
  <i type="logical" name="LWAVE"> F  </i>
  <v type="int" name="KPOINT_BSE">    -1     0     0     0</v>
 </incar>
 <structure name="primitive_cell" >
  <crystal>
   <varray name="basis" >
    <v>       2.13000000      -1.22975600       0.00000000 </v>
    <v>       2.13000000       1.22975600       0.00000000 </v>
    <v>       0.00000000       0.00000000      20.00000000 </v>
   </varray>
   <i name="volume">    104.77521120 </i>
   <varray name="rec_basis" >
    <v>       0.23474178      -0.40658472       0.00000000 </v>
    <v>       0.23474178       0.40658472       0.00000000 </v>
    <v>       0.00000000       0.00000000       0.05000000 </v>
   </varray>
  </crystal>
  <varray name="positions" >
   <v>       0.00000000       0.00000000       0.00000000 </v>
   <v>       0.33333300       0.33333300       0.00000000 </v>
   <v>       0.00000000       0.00000000       0.25000000 </v>
   <v>       0.33333300       0.33333300       0.25000000 </v>
  </varray>
 </structure>
 <varray name="primitive_index" >
  <v type="int" >        1 </v>
  <v type="int" >        2 </v>
  <v type="int" >        3 </v>
  <v type="int" >        4 </v>
 </varray>
 <kpoints>
  <generation param="Gamma">
   <v type="int" name="divisions">      21       21        1 </v>
   <v name="usershift">      0.00000000       0.00000000       0.00000000 </v>
   <v name="genvec1">      0.04761905       0.00000000       0.00000000 </v>
   <v name="genvec2">      0.00000000       0.04761905       0.00000000 </v>
   <v name="genvec3">      0.00000000       0.00000000       1.00000000 </v>
   <v name="shift">      0.00000000       0.00000000       0.00000000 </v>
  </generation>
  <varray name="kpointlist" >
   <v>       0.00000000       0.00000000       0.00000000 </v>
   <v>       0.04761905       0.00000000       0.00000000 </v>
   <v>       0.09523810       0.00000000       0.00000000 </v>
   <v>       0.14285714       0.00000000       0.00000000 </v>
   <v>       0.19047619       0.00000000       0.00000000 </v>
   <v>       0.23809524       0.00000000       0.00000000 </v>
   <v>       0.28571429       0.00000000       0.00000000 </v>
   <v>       0.33333333       0.00000000       0.00000000 </v>
   <v>       0.38095238       0.00000000       0.00000000 </v>
   <v>       0.42857143       0.00000000       0.00000000 </v>
   <v>       0.47619048       0.00000000       0.00000000 </v>
   <v>       0.09523810       0.04761905       0.00000000 </v>
   <v>       0.14285714       0.04761905       0.00000000 </v>
   <v>       0.19047619       0.04761905       0.00000000 </v>
   <v>       0.23809524       0.04761905       0.00000000 </v>
   <v>       0.28571429       0.04761905       0.00000000 </v>
   <v>       0.33333333       0.04761905       0.00000000 </v>
   <v>       0.38095238       0.04761905       0.00000000 </v>
   <v>       0.42857143       0.04761905       0.00000000 </v>
   <v>       0.47619048       0.04761905       0.00000000 </v>
   <v>      -0.47619048       0.04761905       0.00000000 </v>
   <v>       0.19047619       0.09523810       0.00000000 </v>
   <v>       0.23809524       0.09523810       0.00000000 </v>
   <v>       0.28571429       0.09523810       0.00000000 </v>
   <v>       0.33333333       0.09523810       0.00000000 </v>
   <v>       0.38095238       0.09523810       0.00000000 </v>
   <v>       0.42857143       0.09523810       0.00000000 </v>
   <v>       0.47619048       0.09523810       0.00000000 </v>
   <v>      -0.47619048       0.09523810       0.00000000 </v>
   <v>       0.28571429       0.14285714       0.00000000 </v>
   <v>       0.33333333       0.14285714       0.00000000 </v>
   <v>       0.38095238       0.14285714       0.00000000 </v>
   <v>       0.42857143       0.14285714       0.00000000 </v>
   <v>       0.47619048       0.14285714       0.00000000 </v>
   <v>      -0.47619048       0.14285714       0.00000000 </v>
   <v>      -0.42857143       0.14285714       0.00000000 </v>
   <v>       0.38095238       0.19047619       0.00000000 </v>
   <v>       0.42857143       0.19047619       0.00000000 </v>
   <v>       0.47619048       0.19047619       0.00000000 </v>
   <v>      -0.47619048       0.19047619       0.00000000 </v>
   <v>      -0.42857143       0.19047619       0.00000000 </v>
   <v>       0.47619048       0.23809524       0.00000000 </v>
   <v>      -0.47619048       0.23809524       0.00000000 </v>
   <v>      -0.42857143       0.23809524       0.00000000 </v>
   <v>      -0.38095238       0.23809524       0.00000000 </v>
   <v>      -0.42857143       0.28571429       0.00000000 </v>
   <v>      -0.38095238       0.28571429       0.00000000 </v>
   <v>      -0.33333333       0.33333333       0.00000000 </v>
  </varray>
  <varray name="weights" >
   <v>       0.00226757 </v>
   <v>       0.01360544 </v>
   <v>       0.01360544 </v>
   <v>       0.01360544 </v>
   <v>       0.01360544 </v>
   <v>       0.01360544 </v>
   <v>       0.01360544 </v>
   <v>       0.01360544 </v>
   <v>       0.01360544 </v>
   <v>       0.01360544 </v>
   <v>       0.01360544 </v>
   <v>       0.01360544 </v>
   <v>       0.02721088 </v>
   <v>       0.02721088 </v>
   <v>       0.02721088 </v>
   <v>       0.02721088 </v>
   <v>       0.02721088 </v>
   <v>       0.02721088 </v>
   <v>       0.02721088 </v>
   <v>       0.02721088 </v>
   <v>       0.01360544 </v>
   <v>       0.01360544 </v>
   <v>       0.02721088 </v>
   <v>       0.02721088 </v>
   <v>       0.02721088 </v>
   <v>       0.02721088 </v>
   <v>       0.02721088 </v>
   <v>       0.02721088 </v>
   <v>       0.02721088 </v>
   <v>       0.01360544 </v>
   <v>       0.02721088 </v>
   <v>       0.02721088 </v>
   <v>       0.02721088 </v>
   <v>       0.02721088 </v>
   <v>       0.02721088 </v>
   <v>       0.01360544 </v>
   <v>       0.01360544 </v>
   <v>       0.02721088 </v>
   <v>       0.02721088 </v>
   <v>       0.02721088 </v>
   <v>       0.02721088 </v>
   <v>       0.01360544 </v>
   <v>       0.02721088 </v>
   <v>       0.02721088 </v>
   <v>       0.01360544 </v>
   <v>       0.01360544 </v>
   <v>       0.02721088 </v>
   <v>       0.00453515 </v>
  </varray>
 </kpoints>
 <parameters>
  <separator name="general" >
   <i type="string" name="SYSTEM">bilayer_graphene_AA</i>
   <i type="logical" name="LCOMPAT"> F  </i>
  </separator>
  <separator name="electronic" >
   <i type="string" name="PREC">accura</i>
   <i name="ENMAX">    800.00000000</i>
   <i name="ENAUG">    644.87300000</i>
   <i name="EDIFF">      0.00000001</i>
   <i type="int" name="IALGO">    38</i>
   <i type="int" name="IWAVPR">    11</i>
   <i type="int" name="NBANDS">    12</i>
   <i name="NELECT">     16.00000000</i>
   <i type="int" name="TURBO">     0</i>
   <i type="int" name="IRESTART">     0</i>
   <i type="int" name="NREBOOT">     0</i>
   <i type="int" name="NMIN">     0</i>
   <i name="EREF">      0.00000000</i>
   <separator name="electronic smearing" >
    <i type="int" name="ISMEAR">     0</i>
    <i name="SIGMA">      0.01000000</i>
    <i name="KSPACING">      0.50000000</i>
    <i type="logical" name="KGAMMA"> T  </i>
   </separator>
   <separator name="electronic projectors" >
    <i type="logical" name="LREAL"> F  </i>
    <v name="ROPT">      0.00000000</v>
    <i type="int" name="LMAXPAW">  -100</i>
    <i type="int" name="LMAXMIX">     2</i>
    <i type="logical" name="NLSPLINE"> F  </i>
   </separator>
   <separator name="electronic startup" >
    <i type="int" name="ISTART">     0</i>
    <i type="int" name="ICHARG">     2</i>
    <i type="int" name="INIWAV">     1</i>
   </separator>
   <separator name="electronic spin" >
    <i type="int" name="ISPIN">     1</i>
    <i type="logical" name="LNONCOLLINEAR"> F  </i>
    <v name="MAGMOM">      1.00000000      1.00000000      1.00000000      1.00000000</v>
    <i name="NUPDOWN">     -1.00000000</i>
    <i type="logical" name="LSORBIT"> F  </i>
    <v name="SAXIS">      0.00000000      0.00000000      1.00000000</v>
    <i type="logical" name="LSPIRAL"> F  </i>
    <v name="QSPIRAL">      0.00000000      0.00000000      0.00000000</v>
    <i type="logical" name="LZEROZ"> F  </i>
   </separator>
   <separator name="electronic exchange-correlation" >
    <i type="logical" name="LASPH"> F  </i>
    <i type="logical" name="LMETAGGA"> F  </i>
   </separator>
   <separator name="electronic convergence" >
    <i type="int" name="NELM">    60</i>
    <i type="int" name="NELMDL">    -5</i>
    <i type="int" name="NELMIN">     5</i>
    <i name="ENINI">    800.00000000</i>
    <separator name="electronic convergence detail" >
     <i type="logical" name="LDIAG"> T  </i>
     <i type="logical" name="LSUBROT"> F  </i>
     <i name="WEIMIN">      0.00100000</i>
     <i name="EBREAK">      0.00000000</i>
     <i name="DEPER">      0.30000000</i>
     <i type="int" name="NRMM">     4</i>
     <i name="TIME">      0.40000000</i>
    </separator>
   </separator>
   <separator name="electronic mixer" >
    <i name="AMIX">      0.40000000</i>
    <i name="BMIX">      1.00000000</i>
    <i name="AMIN">      0.01000000</i>
    <i name="AMIX_MAG">      1.60000000</i>
    <i name="BMIX_MAG">      1.00000000</i>
    <separator name="electronic mixer details" >
     <i type="int" name="IMIX">     4</i>
     <i type="logical" name="MIXFIRST"> F  </i>
     <i type="int" name="MAXMIX">   -45</i>
     <i name="WC">    100.00000000</i>
     <i type="int" name="INIMIX">     1</i>
     <i type="int" name="MIXPRE">     1</i>
     <i type="int" name="MREMOVE">     5</i>
    </separator>
   </separator>
   <separator name="electronic dipolcorrection" >
    <i type="logical" name="LDIPOL"> F  </i>
    <i type="logical" name="LMONO"> F  </i>
    <i type="int" name="IDIPOL">     0</i>
    <i name="EPSILON">      1.00000000</i>
    <v name="DIPOL">   -100.00000000   -100.00000000   -100.00000000</v>
    <i name="EFIELD">      0.00000000</i>
   </separator>
  </separator>
  <separator name="grids" >
   <i type="int" name="NGX">    24</i>
   <i type="int" name="NGY">    24</i>
   <i type="int" name="NGZ">   192</i>
   <i type="int" name="NGXF">    48</i>
   <i type="int" name="NGYF">    48</i>
   <i type="int" name="NGZF">   384</i>
   <i type="logical" name="ADDGRID"> T  </i>
  </separator>
  <separator name="ionic" >
   <i type="int" name="NSW">    40</i>
   <i type="int" name="IBRION">     2</i>
   <i type="int" name="MDALGO">     0</i>
   <i type="int" name="ISIF">     2</i>
   <i name="PSTRESS">      0.00000000</i>
   <i name="EDIFFG">     -0.00010000</i>
   <i type="int" name="NFREE">     1</i>
   <i name="POTIM">      0.50000000</i>
   <i name="SMASS">     -3.00000000</i>
   <i name="SCALEE">      1.00000000</i>
  </separator>
  <separator name="ionic md" >
   <i name="TEBEG">      0.00010000</i>
   <i name="TEEND">      0.00010000</i>
   <i type="int" name="NBLOCK">     1</i>
   <i type="int" name="KBLOCK">    40</i>
   <i type="int" name="NPACO">   256</i>
   <i name="APACO">     16.00000000</i>
  </separator>
  <separator name="symmetry" >
   <i type="int" name="ISYM">     2</i>
   <i name="SYMPREC">      0.00010000</i>
  </separator>
  <separator name="dos" >
   <i type="int" name="LORBIT">     0</i>
   <v name="RWIGS">     -1.00000000</v>
   <i type="int" name="NEDOS">  6001</i>
   <i name="EMIN">     10.00000000</i>
   <i name="EMAX">    -10.00000000</i>
   <i name="EFERMI">      0.00000000</i>
  </separator>
  <separator name="writing" >
   <i type="int" name="NWRITE">     2</i>
   <i type="logical" name="LWAVE"> F  </i>
   <i type="logical" name="LDOWNSAMPLE"> F  </i>
   <i type="logical" name="LCHARG"> T  </i>
   <i type="logical" name="LPARD"> F  </i>
   <i type="logical" name="LVTOT"> F  </i>
   <i type="logical" name="LVHAR"> F  </i>
   <i type="logical" name="LELF"> F  </i>
   <i type="logical" name="LOPTICS"> F  </i>
   <v name="STM">      0.00000000      0.00000000      0.00000000      0.00000000      0.00000000      0.00000000      0.00000000</v>
  </separator>
  <separator name="performance" >
   <i type="int" name="NPAR">     4</i>
   <i type="int" name="NSIM">     4</i>
   <i type="int" name="NBLK">    -1</i>
   <i type="logical" name="LPLANE"> T  </i>
   <i type="logical" name="LSCALAPACK"> T  </i>
   <i type="logical" name="LSCAAWARE"> F  </i>
   <i type="logical" name="LSCALU"> F  </i>
   <i type="logical" name="LASYNC"> F  </i>
   <i type="logical" name="LORBITALREAL"> F  </i>
  </separator>
  <separator name="miscellaneous" >
   <i type="int" name="IDIOT">     3</i>
   <i type="int" name="ISPECIAL">     0</i>
   <i type="logical" name="LMUSIC"> F  </i>
   <v name="POMASS">     12.01100000</v>
   <v name="DARWINR">      0.00000000</v>
   <v name="DARWINV">      1.00000000</v>
   <i type="logical" name="LCORR"> T  </i>
  </separator>
  <i type="logical" name="GGA_COMPAT"> T  </i>
  <i type="logical" name="LBERRY"> F  </i>
  <i type="int" name="ICORELEVEL">     0</i>
  <i type="logical" name="LDAU"> F  </i>
  <i type="int" name="I_CONSTRAINED_M">     0</i>
  <separator name="electronic exchange-correlation" >
   <i type="string" name="GGA">--</i>
   <i type="int" name="VOSKOWN">     0</i>
   <i type="logical" name="LHFCALC"> F  </i>
   <i type="string" name="PRECFOCK"></i>
   <i type="logical" name="LSYMGRAD"> F  </i>
   <i type="logical" name="LHFONE"> F  </i>
   <i type="logical" name="LRHFCALC"> F  </i>
   <i type="logical" name="LTHOMAS"> F  </i>
   <i type="logical" name="LMODELHF"> F  </i>
   <i name="ENCUT4O">     -1.00000000</i>
   <i type="int" name="EXXOEP">     0</i>
   <i type="int" name="FOURORBIT">     0</i>
   <i name="AEXX">      0.00000000</i>
   <i name="HFALPHA">      0.00000000</i>
   <i name="MCALPHA">      0.00000000</i>
   <i name="ALDAX">      1.00000000</i>
   <i name="AGGAX">      1.00000000</i>
   <i name="ALDAC">      1.00000000</i>
   <i name="AGGAC">      1.00000000</i>
   <i type="int" name="NKREDX">     1</i>
   <i type="int" name="NKREDY">     1</i>
   <i type="int" name="NKREDZ">     1</i>
   <i type="logical" name="SHIFTRED"> F  </i>
   <i type="logical" name="ODDONLY"> F  </i>
   <i type="logical" name="EVENONLY"> F  </i>
   <i type="int" name="LMAXFOCK">     0</i>
   <i type="int" name="NMAXFOCKAE">     0</i>
   <i type="logical" name="LFOCKAEDFT"> F  </i>
   <i name="HFSCREEN">      0.00000000</i>
   <i name="HFSCREENC">      0.00000000</i>
   <i type="int" name="NBANDSGWLOW">     0</i>
  </separator>
  <separator name="vdW DFT" >
   <i type="logical" name="LUSE_VDW"> F  </i>
   <i name="Zab_VDW">     -0.84910000</i>
   <i name="PARAM1">      0.12340000</i>
   <i name="PARAM2">      1.00000000</i>
   <i name="PARAM3">      0.00000000</i>
  </separator>
  <separator name="model GW" >
   <i type="int" name="MODEL_GW">     0</i>
   <i name="MODEL_EPS0">     15.71628168</i>
   <i name="MODEL_ALPHA">      1.00000000</i>
  </separator>
  <separator name="linear response parameters" >
   <i type="logical" name="LEPSILON"> F  </i>
   <i type="logical" name="LRPA"> F  </i>
   <i type="logical" name="LNABLA"> F  </i>
   <i type="logical" name="LVEL"> F  </i>
   <i type="int" name="KINTER">     0</i>
   <i name="CSHIFT">      0.10000000</i>
   <i name="OMEGAMAX">     -1.00000000</i>
   <i name="DEG_THRESHOLD">      0.00200000</i>
   <i name="RTIME">     -0.10000000</i>
   <i name="WPLASMAI">      0.00000000</i>
   <v name="DFIELD">      0.00000000      0.00000000      0.00000000</v>
   <v name="WPLASMA">      0.00000000      0.00000000      0.00000000      0.00000000      0.00000000      0.00000000      0.00000000      0.00000000      0.00000000</v>
  </separator>
  <separator name="orbital magnetization" >
   <i type="logical" name="NUCIND"> F  </i>
   <v name="MAGPOS">      0.00000000      0.00000000      0.00000000</v>
   <i type="logical" name="LNICSALL"> T  </i>
   <i type="logical" name="ORBITALMAG"> F  </i>
   <i type="logical" name="LMAGBLOCH"> F  </i>
   <i type="logical" name="LCHIMAG"> F  </i>
   <i type="logical" name="LGAUGE"> T  </i>
   <i type="int" name="MAGATOM">     0</i>
   <v name="MAGDIPOL">      0.00000000      0.00000000      0.00000000</v>
   <v name="AVECCONST">      0.00000000      0.00000000      0.00000000</v>
  </separator>
  <separator name="response functions" >
   <i type="logical" name="LADDER"> F  </i>
   <i type="logical" name="LRPAFORCE"> F  </i>
   <i type="logical" name="LFXC"> F  </i>
   <i type="logical" name="LHARTREE"> T  </i>
   <i type="int" name="IBSE">     0</i>
   <v type="int" name="KPOINT">    -1     0     0     0</v>
   <i type="logical" name="LTCTE"> F  </i>
   <i type="logical" name="LTETE"> F  </i>
   <i type="logical" name="LTRIPLET"> F  </i>
   <i type="logical" name="LFXCEPS"> F  </i>
   <i type="logical" name="LFXHEG"> F  </i>
   <i type="int" name="NATURALO">     2</i>
   <i type="logical" name="L2ORDER"> F  </i>
   <i type="logical" name="LMP2LT"> F  </i>
   <i type="logical" name="LUSEW"> F  </i>
   <i name="ENCUTGW">     -2.00000000</i>
   <i name="ENCUTGWSOFT">     -2.00000000</i>
   <i name="ENCUTLF">     -1.00000000</i>
   <i type="int" name="LMAXMP2">    -1</i>
   <i name="SCISSOR">      0.00000000</i>
   <i type="int" name="NOMEGA">     0</i>
   <i type="int" name="NOMEGAR">     0</i>
   <i type="int" name="NBANDSGW">    -1</i>
   <i type="int" name="NBANDSO">    -1</i>
   <i type="int" name="NBANDSV">    -1</i>
   <i type="int" name="NELM">     1</i>
   <i type="int" name="NELMHF">     1</i>
   <i type="int" name="DIM">     3</i>
   <i type="int" name="ANTIRES">     0</i>
   <i name="OMEGAMAX">    -30.00000000</i>
   <i name="OMEGAMIN">    -30.00000000</i>
   <i name="OMEGATL">   -200.00000000</i>
   <i type="int" name="OMEGAGRID">   140</i>
   <i name="CSHIFT">     -0.10000000</i>
   <i type="logical" name="SELFENERGY"> F  </i>
   <i type="logical" name="LSPECTRAL"> F  </i>
   <i type="logical" name="LSPECTRALGW"> F  </i>
   <i type="logical" name="LSINGLES"> F  </i>
   <i type="logical" name="LFERMIGW"> F  </i>
   <i type="logical" name="ODDONLYGW"> F  </i>
   <i type="logical" name="EVENONLYGW"> F  </i>
   <i type="int" name="NKREDLFX">     1</i>
   <i type="int" name="NKREDLFY">     1</i>
   <i type="int" name="NKREDLFZ">     1</i>
   <i type="int" name="MAXMEM">  2800</i>
   <i type="int" name="TELESCOPE">     0</i>
   <i type="int" name="TAUPAR">     1</i>
   <i type="int" name="OMEGAPAR">    -1</i>
   <i name="LAMBDA">      1.00000000</i>
  </separator>
  <separator name="External order field" >
   <i name="OFIELD_KAPPA">      0.00000000</i>
   <v name="OFIELD_K">      0.00000000      0.00000000      0.00000000</v>
   <i name="OFIELD_Q6_NEAR">      0.00000000</i>
   <i name="OFIELD_Q6_FAR">      0.00000000</i>
   <i name="OFIELD_A">      0.00000000</i>
  </separator>
 </parameters>
 <atominfo>
  <atoms>       4 </atoms>
  <types>       1 </types>
  <array name="atoms" >
   <dimension dim="1">ion</dimension>
   <field type="string">element</field>
   <field type="int">atomtype</field>
   <set>
    <rc><c>C </c><c>   1</c></rc>
    <rc><c>C </c><c>   1</c></rc>
    <rc><c>C </c><c>   1</c></rc>
    <rc><c>C </c><c>   1</c></rc>
   </set>
  </array>
  <array name="atomtypes" >
   <dimension dim="1">type</dimension>
   <field type="int">atomspertype</field>
   <field type="string">element</field>
   <field>mass</field>
   <field>valence</field>
   <field type="string">pseudopotential</field>
   <set>
    <rc><c>   4</c><c>C </c><c>     12.01100000</c><c>      4.00000000</c><c>  PAW_PBE C 08Apr2002                   </c></rc>
   </set>
  </array>
 </atominfo>
 <structure name="initialpos" >
  <crystal>
   <varray name="basis" >
    <v>       2.13000000      -1.22975600       0.00000000 </v>
    <v>       2.13000000       1.22975600       0.00000000 </v>
    <v>       0.00000000       0.00000000      20.00000000 </v>
   </varray>
   <i name="volume">    104.77521120 </i>
   <varray name="rec_basis" >
    <v>       0.23474178      -0.40658472       0.00000000 </v>
    <v>       0.23474178       0.40658472       0.00000000 </v>
    <v>       0.00000000       0.00000000       0.05000000 </v>
   </varray>
  </crystal>
  <varray name="positions" >
   <v>       0.00000000       0.00000000       0.00000000 </v>
   <v>       0.33333300       0.33333300       0.00000000 </v>
   <v>       0.00000000       0.00000000       0.25000000 </v>
   <v>       0.33333300       0.33333300       0.25000000 </v>
  </varray>
  <varray name="selective"  type="logical" >
   <v type="logical" >  F  F  F </v>
   <v type="logical" >  F  F  F </v>
   <v type="logical" >  F  F  T </v>
   <v type="logical" >  F  F  T </v>
  </varray>
  <nose>
   <v>      -3.00000000       0.00000000       0.00010000       0.00010000 </v>
  </nose>
 </structure>
 <calculation>
  <scstep>
   <time name="dav">    1.44    1.58</time>
   <time name="total">    1.57    1.73</time>
   <energy>
    <i name="alphaZ">     12.54445055 </i>
    <i name="ewald">   2145.51726299 </i>
    <i name="hartreedc">  -2607.28434386 </i>
    <i name="XCdc">     52.79485799 </i>
    <i name="pawpsdc">    434.08818552 </i>
    <i name="pawaedc">   -436.36580876 </i>
    <i name="eentropy">     -0.00000000 </i>
    <i name="bandstr">    -62.18033464 </i>
    <i name="atom">    588.61769381 </i>
    <i name="e_fr_energy">    127.73196360 </i>
    <i name="e_wo_entrp">    127.73196360 </i>
    <i name="e_0_energy">    127.73196360 </i>
   </energy>
  </scstep>
  <scstep>
   <time name="dav">    2.01    2.02</time>
   <time name="total">    2.01    2.02</time>
   <energy>
    <i name="e_fr_energy">    -25.16097599 </i>
    <i name="e_wo_entrp">    -25.16085370 </i>
    <i name="e_0_energy">    -25.16091485 </i>
   </energy>
  </scstep>
  <scstep>
   <time name="dav">    1.64    1.64</time>
   <time name="total">    1.64    1.64</time>
   <energy>
    <i name="e_fr_energy">    -39.21587380 </i>
    <i name="e_wo_entrp">    -39.21584582 </i>
    <i name="e_0_energy">    -39.21585981 </i>
   </energy>
  </scstep>
  <scstep>
   <time name="dav">    1.66    1.67</time>
   <time name="total">    1.67    1.67</time>
   <energy>
    <i name="e_fr_energy">    -39.52353447 </i>
    <i name="e_wo_entrp">    -39.52348274 </i>
    <i name="e_0_energy">    -39.52350860 </i>
   </energy>
  </scstep>
  <scstep>
   <time name="dav">    1.66    1.66</time>
   <time name="total">    1.84    1.85</time>
   <energy>
    <i name="e_fr_energy">    -39.53252008 </i>
    <i name="e_wo_entrp">    -39.53246996 </i>
    <i name="e_0_energy">    -39.53249502 </i>
   </energy>
  </scstep>
  <scstep>
   <time name="dav">    1.60    1.60</time>
   <time name="total">    1.89    1.89</time>
   <energy>
    <i name="e_fr_energy">    -37.65243141 </i>
    <i name="e_wo_entrp">    -37.65240567 </i>
    <i name="e_0_energy">    -37.65241854 </i>
   </energy>
  </scstep>
  <scstep>
   <time name="dav">    1.63    1.64</time>
   <time name="total">    1.92    1.92</time>
   <energy>
    <i name="e_fr_energy">    -36.93838765 </i>
    <i name="e_wo_entrp">    -36.93838238 </i>
    <i name="e_0_energy">    -36.93838501 </i>
   </energy>
  </scstep>
  <scstep>
   <time name="dav">    1.66    1.66</time>
   <time name="total">    1.94    1.94</time>
   <energy>
    <i name="e_fr_energy">    -36.93855962 </i>
    <i name="e_wo_entrp">    -36.93855375 </i>
    <i name="e_0_energy">    -36.93855669 </i>
   </energy>
  </scstep>
  <scstep>
   <time name="dav">    1.68    1.68</time>
   <time name="total">    1.96    1.96</time>
   <energy>
    <i name="e_fr_energy">    -36.93738573 </i>
    <i name="e_wo_entrp">    -36.93737995 </i>
    <i name="e_0_energy">    -36.93738284 </i>
   </energy>
  </scstep>
  <scstep>
   <time name="dav">    1.59    1.59</time>
   <time name="total">    1.87    1.88</time>
   <energy>
    <i name="e_fr_energy">    -36.93341569 </i>
    <i name="e_wo_entrp">    -36.93341407 </i>
    <i name="e_0_energy">    -36.93341488 </i>
   </energy>
  </scstep>
  <scstep>
   <time name="dav">    1.53    1.54</time>
   <time name="total">    1.82    1.82</time>
   <energy>
    <i name="e_fr_energy">    -36.93242865 </i>
    <i name="e_wo_entrp">    -36.93242359 </i>
    <i name="e_0_energy">    -36.93242612 </i>
   </energy>
  </scstep>
  <scstep>
   <time name="dav">    1.47    1.48</time>
   <time name="total">    1.76    1.78</time>
   <energy>
    <i name="e_fr_energy">    -36.92947462 </i>
    <i name="e_wo_entrp">    -36.92946982 </i>
    <i name="e_0_energy">    -36.92947222 </i>
   </energy>
  </scstep>
  <scstep>
   <time name="dav">    1.55    1.55</time>
   <time name="total">    1.83    1.83</time>
   <energy>
    <i name="e_fr_energy">    -36.92759119 </i>
    <i name="e_wo_entrp">    -36.92758532 </i>
    <i name="e_0_energy">    -36.92758826 </i>
   </energy>
  </scstep>
  <scstep>
   <time name="dav">    1.55    1.55</time>
   <time name="total">    1.82    1.83</time>
   <energy>
    <i name="e_fr_energy">    -36.92864187 </i>
    <i name="e_wo_entrp">    -36.92863650 </i>
    <i name="e_0_energy">    -36.92863918 </i>
   </energy>
  </scstep>
  <scstep>
   <time name="dav">    1.57    1.57</time>
   <time name="total">    1.85    1.85</time>
   <energy>
    <i name="e_fr_energy">    -36.92904725 </i>
    <i name="e_wo_entrp">    -36.92904115 </i>
    <i name="e_0_energy">    -36.92904420 </i>
   </energy>
  </scstep>
  <scstep>
   <time name="dav">    1.51    1.52</time>
   <time name="total">    1.79    1.85</time>
   <energy>
    <i name="e_fr_energy">    -36.92985560 </i>
    <i name="e_wo_entrp">    -36.92984985 </i>
    <i name="e_0_energy">    -36.92985272 </i>
   </energy>
  </scstep>
  <scstep>
   <time name="dav">    1.56    1.56</time>
   <time name="total">    1.84    1.85</time>
   <energy>
    <i name="e_fr_energy">    -36.92994741 </i>
    <i name="e_wo_entrp">    -36.92994143 </i>
    <i name="e_0_energy">    -36.92994442 </i>
   </energy>
  </scstep>
  <scstep>
   <time name="dav">    1.55    1.55</time>
   <time name="total">    1.83    1.83</time>
   <energy>
    <i name="e_fr_energy">    -36.92996331 </i>
    <i name="e_wo_entrp">    -36.92995727 </i>
    <i name="e_0_energy">    -36.92996029 </i>
   </energy>
  </scstep>
  <scstep>
   <time name="dav">    1.57    1.58</time>
   <time name="total">    1.85    1.86</time>
   <energy>
    <i name="e_fr_energy">    -36.92996724 </i>
    <i name="e_wo_entrp">    -36.92996121 </i>
    <i name="e_0_energy">    -36.92996423 </i>
   </energy>
  </scstep>
  <scstep>
   <time name="dav">    1.58    1.58</time>
   <time name="total">    1.85    1.86</time>
   <energy>
    <i name="e_fr_energy">    -36.92996822 </i>
    <i name="e_wo_entrp">    -36.92996218 </i>
    <i name="e_0_energy">    -36.92996520 </i>
   </energy>
  </scstep>
  <scstep>
   <time name="dav">    1.35    1.36</time>
   <time name="total">    1.64    1.64</time>
   <energy>
    <i name="e_fr_energy">    -36.92996844 </i>
    <i name="e_wo_entrp">    -36.92996240 </i>
    <i name="e_0_energy">    -36.92996542 </i>
   </energy>
  </scstep>
  <scstep>
   <time name="dav">    1.28    1.28</time>
   <time name="total">    1.56    1.57</time>
   <energy>
    <i name="e_fr_energy">    -36.92996850 </i>
    <i name="e_wo_entrp">    -36.92996246 </i>
    <i name="e_0_energy">    -36.92996548 </i>
   </energy>
  </scstep>
  <scstep>
   <time name="dav">    1.23    1.24</time>
   <time name="total">    1.52    1.52</time>
   <energy>
    <i name="e_fr_energy">    -36.92996856 </i>
    <i name="e_wo_entrp">    -36.92996252 </i>
    <i name="e_0_energy">    -36.92996554 </i>
   </energy>
  </scstep>
  <scstep>
   <time name="dav">    1.20    1.21</time>
   <time name="total">    1.48    1.49</time>
   <energy>
    <i name="e_fr_energy">    -36.92996857 </i>
    <i name="e_wo_entrp">    -36.92996254 </i>
    <i name="e_0_energy">    -36.92996556 </i>
   </energy>
  </scstep>
  <scstep>
   <time name="dav">    1.23    1.23</time>
   <time name="total">    1.33    1.34</time>
   <energy>
    <i name="alphaZ">     12.54445055 </i>
    <i name="ewald">   2145.51726299 </i>
    <i name="hartreedc">  -2669.89767837 </i>
    <i name="XCdc">     55.18497831 </i>
    <i name="pawpsdc">   1695.61262587 </i>
    <i name="pawaedc">  -1698.33526581 </i>
    <i name="eentropy">     -0.00000603 </i>
    <i name="bandstr">   -166.17402990 </i>
    <i name="atom">    588.61769381 </i>
    <i name="e_fr_energy">    -36.92996858 </i>
    <i name="e_wo_entrp">    -36.92996255 </i>
    <i name="e_0_energy">    -36.92996556 </i>
   </energy>
  </scstep>
  <structure>
   <crystal>
    <varray name="basis" >
     <v>       2.13000000      -1.22975600       0.00000000 </v>
     <v>       2.13000000       1.22975600       0.00000000 </v>
     <v>       0.00000000       0.00000000      20.00000000 </v>
    </varray>
    <i name="volume">    104.77521120 </i>
    <varray name="rec_basis" >
     <v>       0.23474178      -0.40658472       0.00000000 </v>
     <v>       0.23474178       0.40658472       0.00000000 </v>
     <v>       0.00000000       0.00000000       0.05000000 </v>
    </varray>
   </crystal>
   <varray name="positions" >
    <v>       0.00000000       0.00000000       0.00000000 </v>
    <v>       0.33333300       0.33333300       0.00000000 </v>
    <v>       0.00000000       0.00000000       0.25000000 </v>
    <v>       0.33333300       0.33333300       0.25000000 </v>
   </varray>
  </structure>
  <varray name="forces" >
   <v>      -0.00000000      -0.00000000       0.00120785 </v>
   <v>       0.00000000      -0.00000000       0.00120785 </v>
   <v>      -0.00000000       0.00000000      -0.00120785 </v>
   <v>       0.00000000       0.00000000      -0.00120785 </v>
  </varray>
  <varray name="stress" >
   <v>      12.73907190       0.00000000       0.00000000 </v>
   <v>       0.00000000      12.73907038      -0.00000000 </v>
   <v>       0.00000000      -0.00000000      -0.86191947 </v>
  </varray>
  <energy>
   <i name="e_fr_energy">    -36.92996858 </i>
   <i name="e_wo_entrp">    -36.92996556 </i>
   <i name="e_0_energy">     -0.00000603 </i>
  </energy>
  <time name="totalsc">   46.78   47.30</time>
 </calculation>
 <calculation>
  <scstep>
   <time name="dav">    1.51    1.52</time>
   <time name="total">    1.81    1.82</time>
   <energy>
    <i name="alphaZ">     12.54445055 </i>
    <i name="ewald">   2145.54946658 </i>
    <i name="hartreedc">  -2669.92990815 </i>
    <i name="XCdc">     55.18497963 </i>
    <i name="pawpsdc">   1695.61213364 </i>
    <i name="pawaedc">  -1698.33477415 </i>
    <i name="eentropy">     -0.00000603 </i>
    <i name="bandstr">   -166.17400459 </i>
    <i name="atom">    588.61769381 </i>
    <i name="e_fr_energy">    -36.92996872 </i>
    <i name="e_wo_entrp">    -36.92996269 </i>
    <i name="e_0_energy">    -36.92996571 </i>
   </energy>
  </scstep>
  <scstep>
   <time name="dav">    1.54    1.54</time>
   <time name="total">    1.82    1.82</time>
   <energy>
    <i name="e_fr_energy">    -36.92996873 </i>
    <i name="e_wo_entrp">    -36.92996270 </i>
    <i name="e_0_energy">    -36.92996571 </i>
   </energy>
  </scstep>
  <scstep>
   <time name="dav">    1.31    1.31</time>
   <time name="total">    1.59    1.60</time>
   <energy>
    <i name="e_fr_energy">    -36.92996873 </i>
    <i name="e_wo_entrp">    -36.92996270 </i>
    <i name="e_0_energy">    -36.92996571 </i>
   </energy>
  </scstep>
  <scstep>
   <time name="dav">    1.22    1.23</time>
   <time name="total">    1.50    1.51</time>
   <energy>
    <i name="e_fr_energy">    -36.92996873 </i>
    <i name="e_wo_entrp">    -36.92996270 </i>
    <i name="e_0_energy">    -36.92996571 </i>
   </energy>
  </scstep>
  <scstep>
   <time name="dav">    1.25    1.25</time>
   <time name="total">    1.36    1.36</time>
   <energy>
    <i name="alphaZ">     12.54445055 </i>
    <i name="ewald">   2145.54946658 </i>
    <i name="hartreedc">  -2669.92993891 </i>
    <i name="XCdc">     55.18497905 </i>
    <i name="pawpsdc">   1695.61273616 </i>
    <i name="pawaedc">  -1698.33537647 </i>
    <i name="eentropy">     -0.00000603 </i>
    <i name="bandstr">   -166.17397347 </i>
    <i name="atom">    588.61769381 </i>
    <i name="e_fr_energy">    -36.92996873 </i>
    <i name="e_wo_entrp">    -36.92996270 </i>
    <i name="e_0_energy">    -36.92996571 </i>
   </energy>
  </scstep>
  <structure>
   <crystal>
    <varray name="basis" >
     <v>       2.13000000      -1.22975600       0.00000000 </v>
     <v>       2.13000000       1.22975600       0.00000000 </v>
     <v>       0.00000000       0.00000000      20.00000000 </v>
    </varray>
    <i name="volume">    104.77521120 </i>
    <varray name="rec_basis" >
     <v>       0.23474178      -0.40658472       0.00000000 </v>
     <v>       0.23474178       0.40658472       0.00000000 </v>
     <v>       0.00000000       0.00000000       0.05000000 </v>
    </varray>
   </crystal>
   <varray name="positions" >
    <v>       0.00000000       0.00000000       0.00000000 </v>
    <v>       0.33333300       0.33333300       0.00000000 </v>
    <v>       0.00000000       0.00000000       0.24999709 </v>
    <v>       0.33333300       0.33333300       0.24999709 </v>
   </varray>
  </structure>
  <varray name="forces" >
   <v>      -0.00000000       0.00000000       0.00119141 </v>
   <v>      -0.00000000       0.00000000       0.00119141 </v>
   <v>       0.00000000       0.00000000      -0.00119141 </v>
   <v>      -0.00000000      -0.00000000      -0.00119141 </v>
  </varray>
  <varray name="stress" >
   <v>      12.73896939       0.00000000       0.00000000 </v>
   <v>       0.00000000      12.73896787       0.00000000 </v>
   <v>       0.00000000       0.00000000      -0.86235330 </v>
  </varray>
  <energy>
   <i name="e_fr_energy">    -36.92996873 </i>
   <i name="e_wo_entrp">    -36.92996571 </i>
   <i name="e_0_energy">     -0.00000603 </i>
  </energy>
  <time name="totalsc">   10.23   10.34</time>
 </calculation>
 <calculation>
  <scstep>
   <time name="dav">    1.44    1.44</time>
   <time name="total">    1.73    1.75</time>
   <energy>
    <i name="alphaZ">     12.54445055 </i>
    <i name="ewald">   2145.64607962 </i>
    <i name="hartreedc">  -2670.02654948 </i>
    <i name="XCdc">     55.18497946 </i>
    <i name="pawpsdc">   1695.61260498 </i>
    <i name="pawaedc">  -1698.33524527 </i>
    <i name="eentropy">     -0.00000602 </i>
    <i name="bandstr">   -166.17397679 </i>
    <i name="atom">    588.61769381 </i>
    <i name="e_fr_energy">    -36.92996913 </i>
    <i name="e_wo_entrp">    -36.92996311 </i>
    <i name="e_0_energy">    -36.92996612 </i>
   </energy>
  </scstep>
  <scstep>
   <time name="dav">    1.55    1.55</time>
   <time name="total">    1.83    1.83</time>
   <energy>
    <i name="e_fr_energy">    -36.92996918 </i>
    <i name="e_wo_entrp">    -36.92996316 </i>
    <i name="e_0_energy">    -36.92996617 </i>
   </energy>
  </scstep>
  <scstep>
   <time name="dav">    1.60    1.60</time>
   <time name="total">    1.87    1.88</time>
   <energy>
    <i name="e_fr_energy">    -36.92996914 </i>
    <i name="e_wo_entrp">    -36.92996312 </i>
    <i name="e_0_energy">    -36.92996613 </i>
   </energy>
  </scstep>
  <scstep>
   <time name="dav">    1.53    1.53</time>
   <time name="total">    1.81    1.82</time>
   <energy>
    <i name="e_fr_energy">    -36.92996915 </i>
    <i name="e_wo_entrp">    -36.92996313 </i>
    <i name="e_0_energy">    -36.92996614 </i>
   </energy>
  </scstep>
  <scstep>
   <time name="dav">    1.24    1.25</time>
   <time name="total">    1.35    1.36</time>
   <energy>
    <i name="alphaZ">     12.54445055 </i>
    <i name="ewald">   2145.64607962 </i>
    <i name="hartreedc">  -2670.02666751 </i>
    <i name="XCdc">     55.18497908 </i>
    <i name="pawpsdc">   1695.61413629 </i>
    <i name="pawaedc">  -1698.33677695 </i>
    <i name="eentropy">     -0.00000602 </i>
    <i name="bandstr">   -166.17385802 </i>
    <i name="atom">    588.61769381 </i>
    <i name="e_fr_energy">    -36.92996915 </i>
    <i name="e_wo_entrp">    -36.92996313 </i>
    <i name="e_0_energy">    -36.92996614 </i>
   </energy>
  </scstep>
  <structure>
   <crystal>
    <varray name="basis" >
     <v>       2.13000000      -1.22975600       0.00000000 </v>
     <v>       2.13000000       1.22975600       0.00000000 </v>
     <v>       0.00000000       0.00000000      20.00000000 </v>
    </varray>
    <i name="volume">    104.77521120 </i>
    <varray name="rec_basis" >
     <v>       0.23474178      -0.40658472       0.00000000 </v>
     <v>       0.23474178       0.40658472       0.00000000 </v>
     <v>       0.00000000       0.00000000       0.05000000 </v>
    </varray>
   </crystal>
   <varray name="positions" >
    <v>       0.00000000       0.00000000       0.00000000 </v>
    <v>       0.33333300       0.33333300       0.00000000 </v>
    <v>       0.00000000       0.00000000       0.24998835 </v>
    <v>       0.33333300       0.33333300       0.24998835 </v>
   </varray>
  </structure>
  <varray name="forces" >
   <v>       0.00000000      -0.00000000       0.00117665 </v>
   <v>      -0.00000000       0.00000000       0.00117665 </v>
   <v>      -0.00000000      -0.00000000      -0.00117665 </v>
   <v>       0.00000000       0.00000000      -0.00117665 </v>
  </varray>
  <varray name="stress" >
   <v>      12.73887040      -0.00000000      -0.00000000 </v>
   <v>       0.00000000      12.73886888       0.00000000 </v>
   <v>       0.00000000       0.00000000      -0.86270168 </v>
  </varray>
  <energy>
   <i name="e_fr_energy">    -36.92996915 </i>
   <i name="e_wo_entrp">    -36.92996614 </i>
   <i name="e_0_energy">     -0.00000602 </i>
  </energy>
  <time name="totalsc">   10.75   10.85</time>
 </calculation>
 <calculation>
  <scstep>
   <time name="dav">    1.44    1.45</time>
   <time name="total">    1.74    1.76</time>
   <energy>
    <i name="alphaZ">     12.54445055 </i>
    <i name="ewald">   2145.83931584 </i>
    <i name="hartreedc">  -2670.21989230 </i>
    <i name="XCdc">     55.18497997 </i>
    <i name="pawpsdc">   1695.61315418 </i>
    <i name="pawaedc">  -1698.33579474 </i>
    <i name="eentropy">     -0.00000599 </i>
    <i name="bandstr">   -166.17387117 </i>
    <i name="atom">    588.61769381 </i>
    <i name="e_fr_energy">    -36.92996987 </i>
    <i name="e_wo_entrp">    -36.92996388 </i>
    <i name="e_0_energy">    -36.92996688 </i>
   </energy>
  </scstep>
  <scstep>
   <time name="dav">    1.54    1.55</time>
   <time name="total">    1.83    1.83</time>
   <energy>
    <i name="e_fr_energy">    -36.92997010 </i>
    <i name="e_wo_entrp">    -36.92996411 </i>
    <i name="e_0_energy">    -36.92996711 </i>
   </energy>
  </scstep>
  <scstep>
   <time name="dav">    1.60    1.60</time>
   <time name="total">    1.88    1.89</time>
   <energy>
    <i name="e_fr_energy">    -36.92996996 </i>
    <i name="e_wo_entrp">    -36.92996397 </i>
    <i name="e_0_energy">    -36.92996697 </i>
   </energy>
  </scstep>
  <scstep>
   <time name="dav">    1.56    1.57</time>
   <time name="total">    1.85    1.85</time>
   <energy>
    <i name="e_fr_energy">    -36.92996998 </i>
    <i name="e_wo_entrp">    -36.92996399 </i>
    <i name="e_0_energy">    -36.92996699 </i>
   </energy>
  </scstep>
  <scstep>
   <time name="dav">    1.28    1.29</time>
   <time name="total">    1.39    1.39</time>
   <energy>
    <i name="alphaZ">     12.54445055 </i>
    <i name="ewald">   2145.83931584 </i>
    <i name="hartreedc">  -2670.22011576 </i>
    <i name="XCdc">     55.18497896 </i>
    <i name="pawpsdc">   1695.61924784 </i>
    <i name="pawaedc">  -1698.34188878 </i>
    <i name="eentropy">     -0.00000600 </i>
    <i name="bandstr">   -166.17364643 </i>
    <i name="atom">    588.61769381 </i>
    <i name="e_fr_energy">    -36.92996999 </i>
    <i name="e_wo_entrp">    -36.92996399 </i>
    <i name="e_0_energy">    -36.92996699 </i>
   </energy>
  </scstep>
  <structure>
   <crystal>
    <varray name="basis" >
     <v>       2.13000000      -1.22975600       0.00000000 </v>
     <v>       2.13000000       1.22975600       0.00000000 </v>
     <v>       0.00000000       0.00000000      20.00000000 </v>
    </varray>
    <i name="volume">    104.77521120 </i>
    <varray name="rec_basis" >
     <v>       0.23474178      -0.40658472       0.00000000 </v>
     <v>       0.23474178       0.40658472       0.00000000 </v>
     <v>       0.00000000       0.00000000       0.05000000 </v>
    </varray>
   </crystal>
   <varray name="positions" >
    <v>       0.00000000       0.00000000       0.00000000 </v>
    <v>       0.33333300       0.33333300       0.00000000 </v>
    <v>       0.00000000       0.00000000       0.24997087 </v>
    <v>       0.33333300       0.33333300       0.24997087 </v>
   </varray>
  </structure>
  <varray name="forces" >
   <v>      -0.00000000       0.00000000       0.00114973 </v>
   <v>       0.00000000      -0.00000000       0.00114973 </v>
   <v>       0.00000000       0.00000000      -0.00114973 </v>
   <v>      -0.00000000      -0.00000000      -0.00114973 </v>
  </varray>
  <varray name="stress" >
   <v>      12.73867473      -0.00000000       0.00000000 </v>
   <v>      -0.00000000      12.73867321       0.00000000 </v>
   <v>       0.00000000      -0.00000000      -0.86348124 </v>
  </varray>
  <energy>
   <i name="e_fr_energy">    -36.92996999 </i>
   <i name="e_wo_entrp">    -36.92996699 </i>
   <i name="e_0_energy">     -0.00000600 </i>
  </energy>
  <time name="totalsc">   10.83   10.93</time>
 </calculation>
 <calculation>
  <scstep>
   <time name="dav">    1.42    1.43</time>
   <time name="total">    1.72    1.74</time>
   <energy>
    <i name="alphaZ">     12.54445055 </i>
    <i name="ewald">   2146.22582879 </i>
    <i name="hartreedc">  -2670.60658972 </i>
    <i name="XCdc">     55.18498047 </i>
    <i name="pawpsdc">   1695.61525045 </i>
    <i name="pawaedc">  -1698.33789121 </i>
    <i name="eentropy">     -0.00000595 </i>
    <i name="bandstr">   -166.17368838 </i>
    <i name="atom">    588.61769381 </i>
    <i name="e_fr_energy">    -36.92997120 </i>
    <i name="e_wo_entrp">    -36.92996525 </i>
    <i name="e_0_energy">    -36.92996822 </i>
   </energy>
  </scstep>
  <scstep>
   <time name="dav">    1.53    1.53</time>
   <time name="total">    1.81    1.82</time>
   <energy>
    <i name="e_fr_energy">    -36.92997214 </i>
    <i name="e_wo_entrp">    -36.92996619 </i>
    <i name="e_0_energy">    -36.92996917 </i>
   </energy>
  </scstep>
  <scstep>
   <time name="dav">    1.60    1.61</time>
   <time name="total">    1.88    1.89</time>
   <energy>
    <i name="e_fr_energy">    -36.92997158 </i>
    <i name="e_wo_entrp">    -36.92996563 </i>
    <i name="e_0_energy">    -36.92996861 </i>
   </energy>
  </scstep>
  <scstep>
   <time name="dav">    1.56    1.56</time>
   <time name="total">    1.84    1.85</time>
   <energy>
    <i name="e_fr_energy">    -36.92997166 </i>
    <i name="e_wo_entrp">    -36.92996571 </i>
    <i name="e_0_energy">    -36.92996868 </i>
   </energy>
  </scstep>
  <scstep>
   <time name="dav">    1.49    1.50</time>
   <time name="total">    1.60    1.60</time>
   <energy>
    <i name="alphaZ">     12.54445055 </i>
    <i name="ewald">   2146.22582879 </i>
    <i name="hartreedc">  -2670.60704052 </i>
    <i name="XCdc">     55.18497911 </i>
    <i name="pawpsdc">   1695.62787176 </i>
    <i name="pawaedc">  -1698.35051324 </i>
    <i name="eentropy">     -0.00000595 </i>
    <i name="bandstr">   -166.17323598 </i>
    <i name="atom">    588.61769381 </i>
    <i name="e_fr_energy">    -36.92997166 </i>
    <i name="e_wo_entrp">    -36.92996571 </i>
    <i name="e_0_energy">    -36.92996869 </i>
   </energy>
  </scstep>
  <structure>
   <crystal>
    <varray name="basis" >
     <v>       2.13000000      -1.22975600       0.00000000 </v>
     <v>       2.13000000       1.22975600       0.00000000 </v>
     <v>       0.00000000       0.00000000      20.00000000 </v>
    </varray>
    <i name="volume">    104.77521120 </i>
    <varray name="rec_basis" >
     <v>       0.23474178      -0.40658472       0.00000000 </v>
     <v>       0.23474178       0.40658472       0.00000000 </v>
     <v>       0.00000000       0.00000000       0.05000000 </v>
    </varray>
   </crystal>
   <varray name="positions" >
    <v>       0.00000000       0.00000000       0.00000000 </v>
    <v>       0.33333300       0.33333300       0.00000000 </v>
    <v>       0.00000000       0.00000000       0.24993590 </v>
    <v>       0.33333300       0.33333300       0.24993590 </v>
   </varray>
  </structure>
  <varray name="forces" >
   <v>       0.00000000      -0.00000000       0.00110613 </v>
   <v>      -0.00000000       0.00000000       0.00110613 </v>
   <v>      -0.00000000       0.00000000      -0.00110613 </v>
   <v>       0.00000000      -0.00000000      -0.00110613 </v>
  </varray>
  <varray name="stress" >
   <v>      12.73809640      -0.00000000       0.00000000 </v>
   <v>       0.00000000      12.73809488      -0.00000000 </v>
   <v>       0.00000000      -0.00000000      -0.86508053 </v>
  </varray>
  <energy>
   <i name="e_fr_energy">    -36.92997166 </i>
   <i name="e_wo_entrp">    -36.92996869 </i>
   <i name="e_0_energy">     -0.00000595 </i>
  </energy>
  <time name="totalsc">   11.01   11.12</time>
 </calculation>
 <calculation>
  <scstep>
   <time name="dav">    1.43    1.43</time>
   <time name="total">    1.72    1.74</time>
   <energy>
    <i name="alphaZ">     12.54445055 </i>
    <i name="ewald">   2146.99901684 </i>
    <i name="hartreedc">  -2671.38011233 </i>
    <i name="XCdc">     55.18498094 </i>
    <i name="pawpsdc">   1695.61938676 </i>
    <i name="pawaedc">  -1698.34202765 </i>
    <i name="eentropy">     -0.00000586 </i>
    <i name="bandstr">   -166.17335611 </i>
    <i name="atom">    588.61769381 </i>
    <i name="e_fr_energy">    -36.92997305 </i>
    <i name="e_wo_entrp">    -36.92996719 </i>
    <i name="e_0_energy">    -36.92997012 </i>
   </energy>
  </scstep>
  <scstep>
   <time name="dav">    1.52    1.53</time>
   <time name="total">    1.80    1.81</time>
   <energy>
    <i name="e_fr_energy">    -36.92997695 </i>
    <i name="e_wo_entrp">    -36.92997109 </i>
    <i name="e_0_energy">    -36.92997402 </i>
   </energy>
  </scstep>
  <scstep>
   <time name="dav">    1.58    1.59</time>
   <time name="total">    1.86    1.87</time>
   <energy>
    <i name="e_fr_energy">    -36.92997471 </i>
    <i name="e_wo_entrp">    -36.92996884 </i>
    <i name="e_0_energy">    -36.92997177 </i>
   </energy>
  </scstep>
  <scstep>
   <time name="dav">    1.55    1.56</time>
   <time name="total">    1.84    1.84</time>
   <energy>
    <i name="e_fr_energy">    -36.92997500 </i>
    <i name="e_wo_entrp">    -36.92996913 </i>
    <i name="e_0_energy">    -36.92997206 </i>
   </energy>
  </scstep>
  <scstep>
   <time name="dav">    1.68    1.69</time>
   <time name="total">    1.96    1.97</time>
   <energy>
    <i name="e_fr_energy">    -36.92997502 </i>
    <i name="e_wo_entrp">    -36.92996916 </i>
    <i name="e_0_energy">    -36.92997209 </i>
   </energy>
  </scstep>
  <scstep>
   <time name="dav">    1.58    1.58</time>
   <time name="total">    1.68    1.69</time>
   <energy>
    <i name="alphaZ">     12.54445055 </i>
    <i name="ewald">   2146.99901684 </i>
    <i name="hartreedc">  -2671.38093170 </i>
    <i name="XCdc">     55.18497968 </i>
    <i name="pawpsdc">   1695.62733470 </i>
    <i name="pawaedc">  -1698.34997557 </i>
    <i name="eentropy">     -0.00000587 </i>
    <i name="bandstr">   -166.17253747 </i>
    <i name="atom">    588.61769381 </i>
    <i name="e_fr_energy">    -36.92997503 </i>
    <i name="e_wo_entrp">    -36.92996916 </i>
    <i name="e_0_energy">    -36.92997210 </i>
   </energy>
  </scstep>
  <structure>
   <crystal>
    <varray name="basis" >
     <v>       2.13000000      -1.22975600       0.00000000 </v>
     <v>       2.13000000       1.22975600       0.00000000 </v>
     <v>       0.00000000       0.00000000      20.00000000 </v>
    </varray>
    <i name="volume">    104.77521120 </i>
    <varray name="rec_basis" >
     <v>       0.23474178      -0.40658472       0.00000000 </v>
     <v>       0.23474178       0.40658472       0.00000000 </v>
     <v>       0.00000000       0.00000000       0.05000000 </v>
    </varray>
   </crystal>
   <varray name="positions" >
    <v>       0.00000000       0.00000000       0.00000000 </v>
    <v>       0.33333300       0.33333300       0.00000000 </v>
    <v>       0.00000000       0.00000000       0.24986598 </v>
    <v>       0.33333300       0.33333300       0.24986598 </v>
   </varray>
  </structure>
  <varray name="forces" >
   <v>      -0.00000000       0.00000000       0.00108221 </v>
   <v>       0.00000000       0.00000000       0.00108221 </v>
   <v>      -0.00000000      -0.00000000      -0.00108221 </v>
   <v>      -0.00000000       0.00000000      -0.00108221 </v>
  </varray>
  <varray name="stress" >
   <v>      12.73968738       0.00000000       0.00000000 </v>
   <v>       0.00000000      12.73968586      -0.00000000 </v>
   <v>       0.00000000      -0.00000000      -0.86009061 </v>
  </varray>
  <energy>
   <i name="e_fr_energy">    -36.92997503 </i>
   <i name="e_wo_entrp">    -36.92997210 </i>
   <i name="e_0_energy">     -0.00000587 </i>
  </energy>
  <time name="totalsc">   13.02   13.15</time>
 </calculation>
 <calculation>
  <scstep>
   <time name="dav">    1.42    1.43</time>
   <time name="total">    1.72    1.74</time>
   <energy>
    <i name="alphaZ">     12.54445055 </i>
    <i name="ewald">   2148.54604146 </i>
    <i name="hartreedc">  -2672.92767884 </i>
    <i name="XCdc">     55.18498550 </i>
    <i name="pawpsdc">   1695.61663547 </i>
    <i name="pawaedc">  -1698.33927701 </i>
    <i name="eentropy">     -0.00000568 </i>
    <i name="bandstr">   -166.17282063 </i>
    <i name="atom">    588.61769381 </i>
    <i name="e_fr_energy">    -36.92997537 </i>
    <i name="e_wo_entrp">    -36.92996970 </i>
    <i name="e_0_energy">    -36.92997253 </i>
   </energy>
  </scstep>
  <scstep>
   <time name="dav">    1.54    1.54</time>
   <time name="total">    1.82    1.82</time>
   <energy>
    <i name="e_fr_energy">    -36.92998952 </i>
    <i name="e_wo_entrp">    -36.92998383 </i>
    <i name="e_0_energy">    -36.92998667 </i>
   </energy>
  </scstep>
  <scstep>
   <time name="dav">    1.59    1.60</time>
   <time name="total">    1.87    1.88</time>
   <energy>
    <i name="e_fr_energy">    -36.92998060 </i>
    <i name="e_wo_entrp">    -36.92997490 </i>
    <i name="e_0_energy">    -36.92997775 </i>
   </energy>
  </scstep>
  <scstep>
   <time name="dav">    1.56    1.56</time>
   <time name="total">    1.84    1.85</time>
   <energy>
    <i name="e_fr_energy">    -36.92998166 </i>
    <i name="e_wo_entrp">    -36.92997597 </i>
    <i name="e_0_energy">    -36.92997881 </i>
   </energy>
  </scstep>
  <scstep>
   <time name="dav">    1.71    1.71</time>
   <time name="total">    2.00    2.01</time>
   <energy>
    <i name="e_fr_energy">    -36.92998177 </i>
    <i name="e_wo_entrp">    -36.92997608 </i>
    <i name="e_0_energy">    -36.92997892 </i>
   </energy>
  </scstep>
  <scstep>
   <time name="dav">    1.58    1.59</time>
   <time name="total">    1.69    1.69</time>
   <energy>
    <i name="alphaZ">     12.54445055 </i>
    <i name="ewald">   2148.54604146 </i>
    <i name="hartreedc">  -2672.92937981 </i>
    <i name="XCdc">     55.18498333 </i>
    <i name="pawpsdc">   1695.64093061 </i>
    <i name="pawaedc">  -1698.36357198 </i>
    <i name="eentropy">     -0.00000569 </i>
    <i name="bandstr">   -166.17112404 </i>
    <i name="atom">    588.61769381 </i>
    <i name="e_fr_energy">    -36.92998177 </i>
    <i name="e_wo_entrp">    -36.92997608 </i>
    <i name="e_0_energy">    -36.92997892 </i>
   </energy>
  </scstep>
  <structure>
   <crystal>
    <varray name="basis" >
     <v>       2.13000000      -1.22975600       0.00000000 </v>
     <v>       2.13000000       1.22975600       0.00000000 </v>
     <v>       0.00000000       0.00000000      20.00000000 </v>
    </varray>
    <i name="volume">    104.77521120 </i>
    <varray name="rec_basis" >
     <v>       0.23474178      -0.40658472       0.00000000 </v>
     <v>       0.23474178       0.40658472       0.00000000 </v>
     <v>       0.00000000       0.00000000       0.05000000 </v>
    </varray>
   </crystal>
   <varray name="positions" >
    <v>       0.00000000       0.00000000       0.00000000 </v>
    <v>       0.33333300       0.33333300       0.00000000 </v>
    <v>       0.00000000       0.00000000       0.24972613 </v>
    <v>       0.33333300       0.33333300       0.24972613 </v>
   </varray>
  </structure>
  <varray name="forces" >
   <v>      -0.00000000      -0.00000000       0.00098622 </v>
   <v>       0.00000000      -0.00000000       0.00098622 </v>
   <v>      -0.00000000       0.00000000      -0.00098622 </v>
   <v>       0.00000000       0.00000000      -0.00098622 </v>
  </varray>
  <varray name="stress" >
   <v>      12.73991076       0.00000000       0.00000000 </v>
   <v>       0.00000000      12.73990924      -0.00000000 </v>
   <v>      -0.00000000       0.00000000      -0.85925239 </v>
  </varray>
  <energy>
   <i name="e_fr_energy">    -36.92998177 </i>
   <i name="e_wo_entrp">    -36.92997892 </i>
   <i name="e_0_energy">     -0.00000569 </i>
  </energy>
  <time name="totalsc">   13.10   13.22</time>
 </calculation>
 <calculation>
  <scstep>
   <time name="dav">    1.42    1.43</time>
   <time name="total">    1.72    1.74</time>
   <energy>
    <i name="alphaZ">     12.54445055 </i>
    <i name="ewald">   2151.64268479 </i>
    <i name="hartreedc">  -2676.02494250 </i>
    <i name="XCdc">     55.18497917 </i>
    <i name="pawpsdc">   1695.62188258 </i>
    <i name="pawaedc">  -1698.34452416 </i>
    <i name="eentropy">     -0.00000532 </i>
    <i name="bandstr">   -166.17218057 </i>
    <i name="atom">    588.61769381 </i>
    <i name="e_fr_energy">    -36.92996166 </i>
    <i name="e_wo_entrp">    -36.92995633 </i>
    <i name="e_0_energy">    -36.92995899 </i>
   </energy>
  </scstep>
  <scstep>
   <time name="dav">    1.52    1.52</time>
   <time name="total">    1.80    1.80</time>
   <energy>
    <i name="e_fr_energy">    -36.93002694 </i>
    <i name="e_wo_entrp">    -36.93002158 </i>
    <i name="e_0_energy">    -36.93002426 </i>
   </energy>
  </scstep>
  <scstep>
   <time name="dav">    1.58    1.59</time>
   <time name="total">    1.86    1.87</time>
   <energy>
    <i name="e_fr_energy">    -36.92999065 </i>
    <i name="e_wo_entrp">    -36.92998528 </i>
    <i name="e_0_energy">    -36.92998797 </i>
   </energy>
  </scstep>
  <scstep>
   <time name="dav">    1.55    1.55</time>
   <time name="total">    1.83    1.84</time>
   <energy>
    <i name="e_fr_energy">    -36.92999489 </i>
    <i name="e_wo_entrp">    -36.92998952 </i>
    <i name="e_0_energy">    -36.92999220 </i>
   </energy>
  </scstep>
  <scstep>
   <time name="dav">    1.71    1.71</time>
   <time name="total">    1.99    1.99</time>
   <energy>
    <i name="e_fr_energy">    -36.92999522 </i>
    <i name="e_wo_entrp">    -36.92998986 </i>
    <i name="e_0_energy">    -36.92999254 </i>
   </energy>
  </scstep>
  <scstep>
   <time name="dav">    1.59    1.60</time>
   <time name="total">    1.87    1.88</time>
   <energy>
    <i name="e_fr_energy">    -36.92999526 </i>
    <i name="e_wo_entrp">    -36.92998990 </i>
    <i name="e_0_energy">    -36.92999258 </i>
   </energy>
  </scstep>
  <scstep>
   <time name="dav">    1.60    1.61</time>
   <time name="total">    1.71    1.71</time>
   <energy>
    <i name="alphaZ">     12.54445055 </i>
    <i name="ewald">   2151.64268479 </i>
    <i name="hartreedc">  -2676.02865262 </i>
    <i name="XCdc">     55.18499826 </i>
    <i name="pawpsdc">   1695.63509272 </i>
    <i name="pawaedc">  -1698.35773329 </i>
    <i name="eentropy">     -0.00000536 </i>
    <i name="bandstr">   -166.16852411 </i>
    <i name="atom">    588.61769381 </i>
    <i name="e_fr_energy">    -36.92999526 </i>
    <i name="e_wo_entrp">    -36.92998990 </i>
    <i name="e_0_energy">    -36.92999258 </i>
   </energy>
  </scstep>
  <structure>
   <crystal>
    <varray name="basis" >
     <v>       2.13000000      -1.22975600       0.00000000 </v>
     <v>       2.13000000       1.22975600       0.00000000 </v>
     <v>       0.00000000       0.00000000      20.00000000 </v>
    </varray>
    <i name="volume">    104.77521120 </i>
    <varray name="rec_basis" >
     <v>       0.23474178      -0.40658472       0.00000000 </v>
     <v>       0.23474178       0.40658472       0.00000000 </v>
     <v>       0.00000000       0.00000000       0.05000000 </v>
    </varray>
   </crystal>
   <varray name="positions" >
    <v>       0.00000000       0.00000000       0.00000000 </v>
    <v>       0.33333300       0.33333300       0.00000000 </v>
    <v>       0.00000000       0.00000000       0.24944644 </v>
    <v>       0.33333300       0.33333300       0.24944644 </v>
   </varray>
  </structure>
  <varray name="forces" >
   <v>       0.00000000       0.00000000       0.00106233 </v>
   <v>       0.00000000       0.00000000       0.00106233 </v>
   <v>       0.00000000      -0.00000000      -0.00106233 </v>
   <v>      -0.00000000      -0.00000000      -0.00106233 </v>
  </varray>
  <varray name="stress" >
   <v>      12.73805103       0.00000000      -0.00000000 </v>
   <v>       0.00000000      12.73804951       0.00000000 </v>
   <v>       0.00000000       0.00000000      -0.86495717 </v>
  </varray>
  <energy>
   <i name="e_fr_energy">    -36.92999526 </i>
   <i name="e_wo_entrp">    -36.92999258 </i>
   <i name="e_0_energy">     -0.00000536 </i>
  </energy>
  <time name="totalsc">   14.92   15.04</time>
 </calculation>
 <calculation>
  <scstep>
   <time name="dav">    1.43    1.43</time>
   <time name="total">    1.72    1.74</time>
   <energy>
    <i name="alphaZ">     12.54445055 </i>
    <i name="ewald">   2157.84634787 </i>
    <i name="hartreedc">  -2682.22781077 </i>
    <i name="XCdc">     55.18492899 </i>
    <i name="pawpsdc">   1695.61580853 </i>
    <i name="pawaedc">  -1698.33844723 </i>
    <i name="eentropy">     -0.00000467 </i>
    <i name="bandstr">   -166.17280727 </i>
    <i name="atom">    588.61769381 </i>
    <i name="e_fr_energy">    -36.92984020 </i>
    <i name="e_wo_entrp">    -36.92983554 </i>
    <i name="e_0_energy">    -36.92983787 </i>
   </energy>
  </scstep>
  <scstep>
   <time name="dav">    1.53    1.53</time>
   <time name="total">    1.80    1.81</time>
   <energy>
    <i name="e_fr_energy">    -36.93015556 </i>
    <i name="e_wo_entrp">    -36.93015084 </i>
    <i name="e_0_energy">    -36.93015320 </i>
   </energy>
  </scstep>
  <scstep>
   <time name="dav">    1.64    1.64</time>
   <time name="total">    1.92    1.92</time>
   <energy>
    <i name="e_fr_energy">    -36.93000499 </i>
    <i name="e_wo_entrp">    -36.93000025 </i>
    <i name="e_0_energy">    -36.93000262 </i>
   </energy>
  </scstep>
  <scstep>
   <time name="dav">    1.51    1.52</time>
   <time name="total">    1.79    1.80</time>
   <energy>
    <i name="e_fr_energy">    -36.93002137 </i>
    <i name="e_wo_entrp">    -36.93001667 </i>
    <i name="e_0_energy">    -36.93001902 </i>
   </energy>
  </scstep>
  <scstep>
   <time name="dav">    1.70    1.70</time>
   <time name="total">    1.98    1.98</time>
   <energy>
    <i name="e_fr_energy">    -36.93002254 </i>
    <i name="e_wo_entrp">    -36.93001784 </i>
    <i name="e_0_energy">    -36.93002019 </i>
   </energy>
  </scstep>
  <scstep>
   <time name="dav">    1.59    1.59</time>
   <time name="total">    1.87    1.87</time>
   <energy>
    <i name="e_fr_energy">    -36.93002234 </i>
    <i name="e_wo_entrp">    -36.93001761 </i>
    <i name="e_0_energy">    -36.93001997 </i>
   </energy>
  </scstep>
  <scstep>
   <time name="dav">    1.60    1.61</time>
   <time name="total">    1.89    1.89</time>
   <energy>
    <i name="e_fr_energy">    -36.93002229 </i>
    <i name="e_wo_entrp">    -36.93001757 </i>
    <i name="e_0_energy">    -36.93001993 </i>
   </energy>
  </scstep>
  <scstep>
   <time name="dav">    1.64    1.65</time>
   <time name="total">    1.93    1.93</time>
   <energy>
    <i name="e_fr_energy">    -36.93002218 </i>
    <i name="e_wo_entrp">    -36.93001746 </i>
    <i name="e_0_energy">    -36.93001982 </i>
   </energy>
  </scstep>
  <scstep>
   <time name="dav">    1.28    1.29</time>
   <time name="total">    1.56    1.57</time>
   <energy>
    <i name="e_fr_energy">    -36.93002220 </i>
    <i name="e_wo_entrp">    -36.93001748 </i>
    <i name="e_0_energy">    -36.93001984 </i>
   </energy>
  </scstep>
  <scstep>
   <time name="dav">    1.49    1.49</time>
   <time name="total">    1.77    1.77</time>
   <energy>
    <i name="e_fr_energy">    -36.93002241 </i>
    <i name="e_wo_entrp">    -36.93001769 </i>
    <i name="e_0_energy">    -36.93002005 </i>
   </energy>
  </scstep>
  <scstep>
   <time name="dav">    1.41    1.42</time>
   <time name="total">    1.69    1.69</time>
   <energy>
    <i name="e_fr_energy">    -36.93002257 </i>
    <i name="e_wo_entrp">    -36.93001785 </i>
    <i name="e_0_energy">    -36.93002021 </i>
   </energy>
  </scstep>
  <scstep>
   <time name="dav">    1.49    1.49</time>
   <time name="total">    1.76    1.77</time>
   <energy>
    <i name="e_fr_energy">    -36.93002270 </i>
    <i name="e_wo_entrp">    -36.93001798 </i>
    <i name="e_0_energy">    -36.93002034 </i>
   </energy>
  </scstep>
  <scstep>
   <time name="dav">    1.27    1.27</time>
   <time name="total">    1.55    1.55</time>
   <energy>
    <i name="e_fr_energy">    -36.93002274 </i>
    <i name="e_wo_entrp">    -36.93001801 </i>
    <i name="e_0_energy">    -36.93002037 </i>
   </energy>
  </scstep>
  <scstep>
   <time name="dav">    1.28    1.29</time>
   <time name="total">    1.56    1.57</time>
   <energy>
    <i name="e_fr_energy">    -36.93002272 </i>
    <i name="e_wo_entrp">    -36.93001800 </i>
    <i name="e_0_energy">    -36.93002036 </i>
   </energy>
  </scstep>
  <scstep>
   <time name="dav">    1.32    1.33</time>
   <time name="total">    1.42    1.43</time>
   <energy>
    <i name="alphaZ">     12.54445055 </i>
    <i name="ewald">   2157.84634787 </i>
    <i name="hartreedc">  -2682.22798615 </i>
    <i name="XCdc">     55.18498536 </i>
    <i name="pawpsdc">   1695.61116366 </i>
    <i name="pawaedc">  -1698.33380393 </i>
    <i name="eentropy">     -0.00000472 </i>
    <i name="bandstr">   -166.17286916 </i>
    <i name="atom">    588.61769381 </i>
    <i name="e_fr_energy">    -36.93002271 </i>
    <i name="e_wo_entrp">    -36.93001799 </i>
    <i name="e_0_energy">    -36.93002035 </i>
   </energy>
  </scstep>
  <structure>
   <crystal>
    <varray name="basis" >
     <v>       2.13000000      -1.22975600       0.00000000 </v>
     <v>       2.13000000       1.22975600       0.00000000 </v>
     <v>       0.00000000       0.00000000      20.00000000 </v>
    </varray>
    <i name="volume">    104.77521120 </i>
    <varray name="rec_basis" >
     <v>       0.23474178      -0.40658472       0.00000000 </v>
     <v>       0.23474178       0.40658472       0.00000000 </v>
     <v>       0.00000000       0.00000000       0.05000000 </v>
    </varray>
   </crystal>
   <varray name="positions" >
    <v>       0.00000000       0.00000000       0.00000000 </v>
    <v>       0.33333300       0.33333300       0.00000000 </v>
    <v>       0.00000000       0.00000000       0.24888705 </v>
    <v>       0.33333300       0.33333300       0.24888705 </v>
   </varray>
  </structure>
  <varray name="forces" >
   <v>      -0.00000000       0.00000000       0.00121730 </v>
   <v>       0.00000000      -0.00000000       0.00121730 </v>
   <v>       0.00000000      -0.00000000      -0.00121730 </v>
   <v>      -0.00000000       0.00000000      -0.00121730 </v>
  </varray>
  <varray name="stress" >
   <v>      12.73917725       0.00000000       0.00000000 </v>
   <v>      -0.00000000      12.73917573       0.00000000 </v>
   <v>       0.00000000       0.00000000      -0.86293659 </v>
  </varray>
  <energy>
   <i name="e_fr_energy">    -36.93002271 </i>
   <i name="e_wo_entrp">    -36.93002035 </i>
   <i name="e_0_energy">     -0.00000472 </i>
  </energy>
  <time name="totalsc">   28.35   28.51</time>
 </calculation>
 <calculation>
  <scstep>
   <time name="dav">    1.42    1.43</time>
   <time name="total">    1.71    1.73</time>
   <energy>
    <i name="alphaZ">     12.54445055 </i>
    <i name="ewald">   2170.29517965 </i>
    <i name="hartreedc">  -2694.66104910 </i>
    <i name="XCdc">     55.18464561 </i>
    <i name="pawpsdc">   1695.61128133 </i>
    <i name="pawaedc">  -1698.33392140 </i>
    <i name="eentropy">     -0.00000351 </i>
    <i name="bandstr">   -166.18747724 </i>
    <i name="atom">    588.61769381 </i>
    <i name="e_fr_energy">    -36.92920031 </i>
    <i name="e_wo_entrp">    -36.92919680 </i>
    <i name="e_0_energy">    -36.92919855 </i>
   </energy>
  </scstep>
  <scstep>
   <time name="dav">    1.54    1.54</time>
   <time name="total">    1.82    1.82</time>
   <energy>
    <i name="e_fr_energy">    -36.93061548 </i>
    <i name="e_wo_entrp">    -36.93061192 </i>
    <i name="e_0_energy">    -36.93061370 </i>
   </energy>
  </scstep>
  <scstep>
   <time name="dav">    1.59    1.60</time>
   <time name="total">    1.87    1.88</time>
   <energy>
    <i name="e_fr_energy">    -36.93000656 </i>
    <i name="e_wo_entrp">    -36.93000320 </i>
    <i name="e_0_energy">    -36.93000488 </i>
   </energy>
  </scstep>
  <scstep>
   <time name="dav">    1.52    1.52</time>
   <time name="total">    1.80    1.80</time>
   <energy>
    <i name="e_fr_energy">    -36.93007982 </i>
    <i name="e_wo_entrp">    -36.93007666 </i>
    <i name="e_0_energy">    -36.93007824 </i>
   </energy>
  </scstep>
  <scstep>
   <time name="dav">    1.76    1.76</time>
   <time name="total">    2.04    2.04</time>
   <energy>
    <i name="e_fr_energy">    -36.93007562 </i>
    <i name="e_wo_entrp">    -36.93007203 </i>
    <i name="e_0_energy">    -36.93007382 </i>
   </energy>
  </scstep>
  <scstep>
   <time name="dav">    1.59    1.59</time>
   <time name="total">    1.87    1.87</time>
   <energy>
    <i name="e_fr_energy">    -36.93007603 </i>
    <i name="e_wo_entrp">    -36.93007241 </i>
    <i name="e_0_energy">    -36.93007422 </i>
   </energy>
  </scstep>
  <scstep>
   <time name="dav">    1.62    1.62</time>
   <time name="total">    1.91    1.92</time>
   <energy>
    <i name="e_fr_energy">    -36.93007625 </i>
    <i name="e_wo_entrp">    -36.93007263 </i>
    <i name="e_0_energy">    -36.93007444 </i>
   </energy>
  </scstep>
  <scstep>
   <time name="dav">    1.61    1.61</time>
   <time name="total">    1.89    1.90</time>
   <energy>
    <i name="e_fr_energy">    -36.93007606 </i>
    <i name="e_wo_entrp">    -36.93007245 </i>
    <i name="e_0_energy">    -36.93007425 </i>
   </energy>
  </scstep>
  <scstep>
   <time name="dav">    1.58    1.59</time>
   <time name="total">    1.86    1.87</time>
   <energy>
    <i name="e_fr_energy">    -36.93007627 </i>
    <i name="e_wo_entrp">    -36.93007266 </i>
    <i name="e_0_energy">    -36.93007446 </i>
   </energy>
  </scstep>
  <scstep>
   <time name="dav">    1.49    1.49</time>
   <time name="total">    1.77    1.77</time>
   <energy>
    <i name="e_fr_energy">    -36.93007678 </i>
    <i name="e_wo_entrp">    -36.93007317 </i>
    <i name="e_0_energy">    -36.93007498 </i>
   </energy>
  </scstep>
  <scstep>
   <time name="dav">    1.58    1.58</time>
   <time name="total">    1.86    1.86</time>
   <energy>
    <i name="e_fr_energy">    -36.93007727 </i>
    <i name="e_wo_entrp">    -36.93007366 </i>
    <i name="e_0_energy">    -36.93007547 </i>
   </energy>
  </scstep>
  <scstep>
   <time name="dav">    1.58    1.58</time>
   <time name="total">    1.85    1.86</time>
   <energy>
    <i name="e_fr_energy">    -36.93007750 </i>
    <i name="e_wo_entrp">    -36.93007390 </i>
    <i name="e_0_energy">    -36.93007570 </i>
   </energy>
  </scstep>
  <scstep>
   <time name="dav">    1.33    1.34</time>
   <time name="total">    1.61    1.62</time>
   <energy>
    <i name="e_fr_energy">    -36.93007756 </i>
    <i name="e_wo_entrp">    -36.93007395 </i>
    <i name="e_0_energy">    -36.93007575 </i>
   </energy>
  </scstep>
  <scstep>
   <time name="dav">    1.28    1.28</time>
   <time name="total">    1.56    1.56</time>
   <energy>
    <i name="e_fr_energy">    -36.93007754 </i>
    <i name="e_wo_entrp">    -36.93007393 </i>
    <i name="e_0_energy">    -36.93007574 </i>
   </energy>
  </scstep>
  <scstep>
   <time name="dav">    1.29    1.30</time>
   <time name="total">    1.57    1.58</time>
   <energy>
    <i name="e_fr_energy">    -36.93007751 </i>
    <i name="e_wo_entrp">    -36.93007390 </i>
    <i name="e_0_energy">    -36.93007570 </i>
   </energy>
  </scstep>
  <scstep>
   <time name="dav">    1.28    1.28</time>
   <time name="total">    1.56    1.56</time>
   <energy>
    <i name="e_fr_energy">    -36.93007748 </i>
    <i name="e_wo_entrp">    -36.93007387 </i>
    <i name="e_0_energy">    -36.93007567 </i>
   </energy>
  </scstep>
  <scstep>
   <time name="dav">    1.17    1.17</time>
   <time name="total">    1.27    1.27</time>
   <energy>
    <i name="alphaZ">     12.54445055 </i>
    <i name="ewald">   2170.29517965 </i>
    <i name="hartreedc">  -2694.67653919 </i>
    <i name="XCdc">     55.18499381 </i>
    <i name="pawpsdc">   1695.61208761 </i>
    <i name="pawaedc">  -1698.33472664 </i>
    <i name="eentropy">     -0.00000361 </i>
    <i name="bandstr">   -166.17321346 </i>
    <i name="atom">    588.61769381 </i>
    <i name="e_fr_energy">    -36.93007747 </i>
    <i name="e_wo_entrp">    -36.93007386 </i>
    <i name="e_0_energy">    -36.93007567 </i>
   </energy>
  </scstep>
  <structure>
   <crystal>
    <varray name="basis" >
     <v>       2.13000000      -1.22975600       0.00000000 </v>
     <v>       2.13000000       1.22975600       0.00000000 </v>
     <v>       0.00000000       0.00000000      20.00000000 </v>
    </varray>
    <i name="volume">    104.77521120 </i>
    <varray name="rec_basis" >
     <v>       0.23474178      -0.40658472       0.00000000 </v>
     <v>       0.23474178       0.40658472       0.00000000 </v>
     <v>       0.00000000       0.00000000       0.05000000 </v>
    </varray>
   </crystal>
   <varray name="positions" >
    <v>       0.00000000       0.00000000       0.00000000 </v>
    <v>       0.33333300       0.33333300       0.00000000 </v>
    <v>       0.00000000       0.00000000       0.24776826 </v>
    <v>       0.33333300       0.33333300       0.24776826 </v>
   </varray>
  </structure>
  <varray name="forces" >
   <v>       0.00000000      -0.00000000       0.00122352 </v>
   <v>      -0.00000000      -0.00000000       0.00122352 </v>
   <v>       0.00000000       0.00000000      -0.00122352 </v>
   <v>      -0.00000000       0.00000000      -0.00122352 </v>
  </varray>
  <varray name="stress" >
   <v>      12.73929082       0.00000000      -0.00000000 </v>
   <v>       0.00000000      12.73928930       0.00000000 </v>
   <v>       0.00000000       0.00000000      -0.86304665 </v>
  </varray>
  <energy>
   <i name="e_fr_energy">    -36.93007747 </i>
   <i name="e_wo_entrp">    -36.93007567 </i>
   <i name="e_0_energy">     -0.00000361 </i>
  </energy>
  <time name="totalsc">   31.97   32.15</time>
 </calculation>
 <calculation>
  <scstep>
   <time name="dav">    1.41    1.42</time>
   <time name="total">    1.70    1.72</time>
   <energy>
    <i name="alphaZ">     12.54445055 </i>
    <i name="ewald">   2195.35886602 </i>
    <i name="hartreedc">  -2719.67834606 </i>
    <i name="XCdc">     55.18353072 </i>
    <i name="pawpsdc">   1695.61240080 </i>
    <i name="pawaedc">  -1698.33503992 </i>
    <i name="eentropy">     -0.00000183 </i>
    <i name="bandstr">   -166.22946395 </i>
    <i name="atom">    588.61769381 </i>
    <i name="e_fr_energy">    -36.92590986 </i>
    <i name="e_wo_entrp">    -36.92590804 </i>
    <i name="e_0_energy">    -36.92590895 </i>
   </energy>
  </scstep>
  <scstep>
   <time name="dav">    1.48    1.48</time>
   <time name="total">    1.76    1.76</time>
   <energy>
    <i name="e_fr_energy">    -36.93236884 </i>
    <i name="e_wo_entrp">    -36.93236725 </i>
    <i name="e_0_energy">    -36.93236805 </i>
   </energy>
  </scstep>
  <scstep>
   <time name="dav">    1.62    1.62</time>
   <time name="total">    1.90    1.90</time>
   <energy>
    <i name="e_fr_energy">    -36.93005233 </i>
    <i name="e_wo_entrp">    -36.93005112 </i>
    <i name="e_0_energy">    -36.93005173 </i>
   </energy>
  </scstep>
  <scstep>
   <time name="dav">    1.60    1.60</time>
   <time name="total">    1.88    1.88</time>
   <energy>
    <i name="e_fr_energy">    -36.93022135 </i>
    <i name="e_wo_entrp">    -36.93022051 </i>
    <i name="e_0_energy">    -36.93022093 </i>
   </energy>
  </scstep>
  <scstep>
   <time name="dav">    1.66    1.66</time>
   <time name="total">    1.94    1.94</time>
   <energy>
    <i name="e_fr_energy">    -36.93018076 </i>
    <i name="e_wo_entrp">    -36.93017879 </i>
    <i name="e_0_energy">    -36.93017978 </i>
   </energy>
  </scstep>
  <scstep>
   <time name="dav">    1.59    1.60</time>
   <time name="total">    1.87    1.88</time>
   <energy>
    <i name="e_fr_energy">    -36.93018227 </i>
    <i name="e_wo_entrp">    -36.93018030 </i>
    <i name="e_0_energy">    -36.93018128 </i>
   </energy>
  </scstep>
  <scstep>
   <time name="dav">    1.61    1.62</time>
   <time name="total">    1.89    1.90</time>
   <energy>
    <i name="e_fr_energy">    -36.93018279 </i>
    <i name="e_wo_entrp">    -36.93018083 </i>
    <i name="e_0_energy">    -36.93018181 </i>
   </energy>
  </scstep>
  <scstep>
   <time name="dav">    1.60    1.60</time>
   <time name="total">    1.87    1.88</time>
   <energy>
    <i name="e_fr_energy">    -36.93018236 </i>
    <i name="e_wo_entrp">    -36.93018039 </i>
    <i name="e_0_energy">    -36.93018137 </i>
   </energy>
  </scstep>
  <scstep>
   <time name="dav">    1.68    1.68</time>
   <time name="total">    1.96    1.96</time>
   <energy>
    <i name="e_fr_energy">    -36.93018304 </i>
    <i name="e_wo_entrp">    -36.93018108 </i>
    <i name="e_0_energy">    -36.93018206 </i>
   </energy>
  </scstep>
  <scstep>
   <time name="dav">    1.49    1.49</time>
   <time name="total">    1.77    1.77</time>
   <energy>
    <i name="e_fr_energy">    -36.93018520 </i>
    <i name="e_wo_entrp">    -36.93018324 </i>
    <i name="e_0_energy">    -36.93018422 </i>
   </energy>
  </scstep>
  <scstep>
   <time name="dav">    1.60    1.60</time>
   <time name="total">    1.88    1.88</time>
   <energy>
    <i name="e_fr_energy">    -36.93018581 </i>
    <i name="e_wo_entrp">    -36.93018385 </i>
    <i name="e_0_energy">    -36.93018483 </i>
   </energy>
  </scstep>
  <scstep>
   <time name="dav">    1.58    1.58</time>
   <time name="total">    1.86    1.86</time>
   <energy>
    <i name="e_fr_energy">    -36.93018668 </i>
    <i name="e_wo_entrp">    -36.93018472 </i>
    <i name="e_0_energy">    -36.93018570 </i>
   </energy>
  </scstep>
  <scstep>
   <time name="dav">    1.33    1.33</time>
   <time name="total">    1.61    1.61</time>
   <energy>
    <i name="e_fr_energy">    -36.93018675 </i>
    <i name="e_wo_entrp">    -36.93018479 </i>
    <i name="e_0_energy">    -36.93018577 </i>
   </energy>
  </scstep>
  <scstep>
   <time name="dav">    1.54    1.54</time>
   <time name="total">    1.82    1.82</time>
   <energy>
    <i name="e_fr_energy">    -36.93018677 </i>
    <i name="e_wo_entrp">    -36.93018481 </i>
    <i name="e_0_energy">    -36.93018579 </i>
   </energy>
  </scstep>
  <scstep>
   <time name="dav">    1.29    1.29</time>
   <time name="total">    1.57    1.57</time>
   <energy>
    <i name="e_fr_energy">    -36.93018668 </i>
    <i name="e_wo_entrp">    -36.93018472 </i>
    <i name="e_0_energy">    -36.93018570 </i>
   </energy>
  </scstep>
  <scstep>
   <time name="dav">    1.27    1.28</time>
   <time name="total">    1.55    1.55</time>
   <energy>
    <i name="e_fr_energy">    -36.93018663 </i>
    <i name="e_wo_entrp">    -36.93018467 </i>
    <i name="e_0_energy">    -36.93018565 </i>
   </energy>
  </scstep>
  <scstep>
   <time name="dav">    1.18    1.18</time>
   <time name="total">    1.46    1.47</time>
   <energy>
    <i name="e_fr_energy">    -36.93018662 </i>
    <i name="e_wo_entrp">    -36.93018466 </i>
    <i name="e_0_energy">    -36.93018564 </i>
   </energy>
  </scstep>
  <scstep>
   <time name="dav">    1.23    1.23</time>
   <time name="total">    1.51    1.51</time>
   <energy>
    <i name="e_fr_energy">    -36.93018661 </i>
    <i name="e_wo_entrp">    -36.93018465 </i>
    <i name="e_0_energy">    -36.93018563 </i>
   </energy>
  </scstep>
  <scstep>
   <time name="dav">    1.21    1.21</time>
   <time name="total">    1.31    1.32</time>
   <energy>
    <i name="alphaZ">     12.54445055 </i>
    <i name="ewald">   2195.35886602 </i>
    <i name="hartreedc">  -2719.73997891 </i>
    <i name="XCdc">     55.18501167 </i>
    <i name="pawpsdc">   1695.60943907 </i>
    <i name="pawaedc">  -1698.33207770 </i>
    <i name="eentropy">     -0.00000196 </i>
    <i name="bandstr">   -166.17358917 </i>
    <i name="atom">    588.61769381 </i>
    <i name="e_fr_energy">    -36.93018662 </i>
    <i name="e_wo_entrp">    -36.93018466 </i>
    <i name="e_0_energy">    -36.93018564 </i>
   </energy>
  </scstep>
  <structure>
   <crystal>
    <varray name="basis" >
     <v>       2.13000000      -1.22975600       0.00000000 </v>
     <v>       2.13000000       1.22975600       0.00000000 </v>
     <v>       0.00000000       0.00000000      20.00000000 </v>
    </varray>
    <i name="volume">    104.77521120 </i>
    <varray name="rec_basis" >
     <v>       0.23474178      -0.40658472       0.00000000 </v>
     <v>       0.23474178       0.40658472       0.00000000 </v>
     <v>       0.00000000       0.00000000       0.05000000 </v>
    </varray>
   </crystal>
   <varray name="positions" >
    <v>       0.00000000       0.00000000       0.00000000 </v>
    <v>       0.33333300       0.33333300       0.00000000 </v>
    <v>       0.00000000       0.00000000       0.24553070 </v>
    <v>       0.33333300       0.33333300       0.24553070 </v>
   </varray>
  </structure>
  <varray name="forces" >
   <v>       0.00000000      -0.00000000       0.00122449 </v>
[...]
       <r>     9.5784     0.0010    23.8277 </r>
       <r>     9.5841     0.0146    23.8278 </r>
       <r>     9.5897     0.1170    23.8284 </r>
       <r>     9.5954     0.5044    23.8313 </r>
       <r>     9.6011     1.1770    23.8380 </r>
       <r>     9.6068     1.4888    23.8464 </r>
       <r>     9.6125     1.0213    23.8522 </r>
       <r>     9.6181     0.3797    23.8544 </r>
       <r>     9.6238     0.0763    23.8548 </r>
       <r>     9.6295     0.0083    23.8549 </r>
       <r>     9.6352     0.0005    23.8549 </r>
       <r>     9.6409     0.0000    23.8549 </r>
       <r>     9.6466     0.0000    23.8549 </r>
       <r>     9.6522     0.0000    23.8549 </r>
       <r>     9.6579     0.0008    23.8549 </r>
       <r>     9.6636     0.0136    23.8550 </r>
       <r>     9.6693     0.1315    23.8557 </r>
       <r>     9.6750     0.6859    23.8596 </r>
       <r>     9.6807     1.9343    23.8706 </r>
       <r>     9.6863     2.9559    23.8874 </r>
       <r>     9.6920     2.4497    23.9013 </r>
       <r>     9.6977     1.1006    23.9076 </r>
       <r>     9.7034     0.2676    23.9091 </r>
       <r>     9.7091     0.0351    23.9093 </r>
       <r>     9.7147     0.0025    23.9093 </r>
       <r>     9.7204     0.0001    23.9093 </r>
       <r>     9.7261     0.0000    23.9093 </r>
       <r>     9.7318     0.0000    23.9093 </r>
       <r>     9.7375     0.0000    23.9093 </r>
       <r>     9.7432     0.0000    23.9093 </r>
       <r>     9.7488     0.0000    23.9093 </r>
       <r>     9.7545     0.0000    23.9093 </r>
       <r>     9.7602     0.0000    23.9093 </r>
       <r>     9.7659     0.0000    23.9093 </r>
       <r>     9.7716     0.0000    23.9093 </r>
       <r>     9.7772     0.0000    23.9093 </r>
       <r>     9.7829     0.0000    23.9093 </r>
       <r>     9.7886     0.0000    23.9093 </r>
       <r>     9.7943     0.0000    23.9093 </r>
       <r>     9.8000     0.0000    23.9093 </r>
       <r>     9.8057     0.0000    23.9093 </r>
       <r>     9.8113     0.0000    23.9093 </r>
       <r>     9.8170     0.0000    23.9093 </r>
       <r>     9.8227     0.0002    23.9093 </r>
       <r>     9.8284     0.0035    23.9093 </r>
       <r>     9.8341     0.0305    23.9095 </r>
       <r>     9.8398     0.1428    23.9103 </r>
       <r>     9.8454     0.3623    23.9124 </r>
       <r>     9.8511     0.4982    23.9152 </r>
       <r>     9.8568     0.3715    23.9173 </r>
       <r>     9.8625     0.1502    23.9182 </r>
       <r>     9.8682     0.0328    23.9183 </r>
       <r>     9.8738     0.0039    23.9184 </r>
       <r>     9.8795     0.0002    23.9184 </r>
       <r>     9.8852     0.0000    23.9184 </r>
       <r>     9.8909     0.0000    23.9184 </r>
       <r>     9.8966     0.0000    23.9184 </r>
       <r>     9.9023     0.0000    23.9184 </r>
       <r>     9.9079     0.0001    23.9184 </r>
       <r>     9.9136     0.0026    23.9184 </r>
       <r>     9.9193     0.0364    23.9186 </r>
       <r>     9.9250     0.2745    23.9201 </r>
       <r>     9.9307     1.1186    23.9265 </r>
       <r>     9.9363     2.4675    23.9405 </r>
       <r>     9.9420     2.9506    23.9573 </r>
       <r>     9.9477     1.9135    23.9682 </r>
       <r>     9.9534     0.6724    23.9720 </r>
       <r>     9.9591     0.1277    23.9727 </r>
       <r>     9.9648     0.0131    23.9728 </r>
       <r>     9.9704     0.0007    23.9728 </r>
       <r>     9.9761     0.0000    23.9728 </r>
       <r>     9.9818     0.0000    23.9728 </r>
       <r>     9.9875     0.0000    23.9728 </r>
       <r>     9.9932     0.0000    23.9728 </r>
       <r>     9.9989     0.0000    23.9728 </r>
       <r>    10.0045     0.0000    23.9728 </r>
       <r>    10.0102     0.0000    23.9728 </r>
       <r>    10.0159     0.0000    23.9728 </r>
       <r>    10.0216     0.0000    23.9728 </r>
       <r>    10.0273     0.0000    23.9728 </r>
       <r>    10.0329     0.0000    23.9728 </r>
       <r>    10.0386     0.0000    23.9728 </r>
       <r>    10.0443     0.0000    23.9728 </r>
       <r>    10.0500     0.0000    23.9728 </r>
       <r>    10.0557     0.0000    23.9728 </r>
       <r>    10.0614     0.0000    23.9728 </r>
       <r>    10.0670     0.0000    23.9728 </r>
       <r>    10.0727     0.0000    23.9728 </r>
       <r>    10.0784     0.0000    23.9728 </r>
       <r>    10.0841     0.0000    23.9728 </r>
       <r>    10.0898     0.0000    23.9728 </r>
       <r>    10.0955     0.0000    23.9728 </r>
       <r>    10.1011     0.0000    23.9728 </r>
       <r>    10.1068     0.0000    23.9728 </r>
       <r>    10.1125     0.0000    23.9728 </r>
       <r>    10.1182     0.0000    23.9728 </r>
       <r>    10.1239     0.0000    23.9728 </r>
       <r>    10.1295     0.0000    23.9728 </r>
       <r>    10.1352     0.0000    23.9728 </r>
       <r>    10.1409     0.0000    23.9728 </r>
       <r>    10.1466     0.0000    23.9728 </r>
       <r>    10.1523     0.0000    23.9728 </r>
       <r>    10.1580     0.0000    23.9728 </r>
       <r>    10.1636     0.0001    23.9728 </r>
       <r>    10.1693     0.0014    23.9728 </r>
       <r>    10.1750     0.0190    23.9729 </r>
       <r>    10.1807     0.1419    23.9737 </r>
       <r>    10.1864     0.5714    23.9770 </r>
       <r>    10.1920     1.2453    23.9840 </r>
       <r>    10.1977     1.4715    23.9924 </r>
       <r>    10.2034     0.9429    23.9978 </r>
       <r>    10.2091     0.3274    23.9996 </r>
       <r>    10.2148     0.0615    24.0000 </r>
       <r>    10.2205     0.0062    24.0000 </r>
       <r>    10.2261     0.0003    24.0000 </r>
       <r>    10.2318     0.0000    24.0000 </r>
       <r>    10.2375     0.0000    24.0000 </r>
       <r>    10.2432     0.0000    24.0000 </r>
       <r>    10.2489     0.0000    24.0000 </r>
       <r>    10.2546     0.0000    24.0000 </r>
       <r>    10.2602     0.0000    24.0000 </r>
       <r>    10.2659     0.0000    24.0000 </r>
       <r>    10.2716     0.0000    24.0000 </r>
       <r>    10.2773     0.0000    24.0000 </r>
       <r>    10.2830     0.0000    24.0000 </r>
       <r>    10.2886     0.0000    24.0000 </r>
       <r>    10.2943     0.0000    24.0000 </r>
       <r>    10.3000     0.0000    24.0000 </r>
       <r>    10.3057     0.0000    24.0000 </r>
       <r>    10.3114     0.0000    24.0000 </r>
       <r>    10.3171     0.0000    24.0000 </r>
       <r>    10.3227     0.0000    24.0000 </r>
       <r>    10.3284     0.0000    24.0000 </r>
       <r>    10.3341     0.0000    24.0000 </r>
       <r>    10.3398     0.0000    24.0000 </r>
       <r>    10.3455     0.0000    24.0000 </r>
       <r>    10.3512     0.0000    24.0000 </r>
       <r>    10.3568     0.0000    24.0000 </r>
       <r>    10.3625     0.0000    24.0000 </r>
       <r>    10.3682     0.0000    24.0000 </r>
       <r>    10.3739     0.0000    24.0000 </r>
       <r>    10.3796     0.0000    24.0000 </r>
       <r>    10.3852     0.0000    24.0000 </r>
       <r>    10.3909     0.0000    24.0000 </r>
       <r>    10.3966     0.0000    24.0000 </r>
       <r>    10.4023     0.0000    24.0000 </r>
       <r>    10.4080     0.0000    24.0000 </r>
       <r>    10.4137     0.0000    24.0000 </r>
       <r>    10.4193     0.0000    24.0000 </r>
       <r>    10.4250     0.0000    24.0000 </r>
       <r>    10.4307     0.0000    24.0000 </r>
       <r>    10.4364     0.0000    24.0000 </r>
       <r>    10.4421     0.0000    24.0000 </r>
       <r>    10.4477     0.0000    24.0000 </r>
       <r>    10.4534     0.0000    24.0000 </r>
       <r>    10.4591     0.0000    24.0000 </r>
       <r>    10.4648     0.0000    24.0000 </r>
       <r>    10.4705     0.0000    24.0000 </r>
       <r>    10.4762     0.0000    24.0000 </r>
       <r>    10.4818     0.0000    24.0000 </r>
       <r>    10.4875     0.0000    24.0000 </r>
       <r>    10.4932     0.0000    24.0000 </r>
       <r>    10.4989     0.0000    24.0000 </r>
       <r>    10.5046     0.0000    24.0000 </r>
       <r>    10.5103     0.0000    24.0000 </r>
       <r>    10.5159     0.0000    24.0000 </r>
       <r>    10.5216     0.0000    24.0000 </r>
       <r>    10.5273     0.0000    24.0000 </r>
       <r>    10.5330     0.0000    24.0000 </r>
       <r>    10.5387     0.0000    24.0000 </r>
       <r>    10.5443     0.0000    24.0000 </r>
       <r>    10.5500     0.0000    24.0000 </r>
       <r>    10.5557     0.0000    24.0000 </r>
       <r>    10.5614     0.0000    24.0000 </r>
       <r>    10.5671     0.0000    24.0000 </r>
       <r>    10.5728     0.0000    24.0000 </r>
       <r>    10.5784     0.0000    24.0000 </r>
       <r>    10.5841     0.0000    24.0000 </r>
       <r>    10.5898     0.0000    24.0000 </r>
       <r>    10.5955     0.0000    24.0000 </r>
       <r>    10.6012     0.0000    24.0000 </r>
       <r>    10.6068     0.0000    24.0000 </r>
       <r>    10.6125     0.0000    24.0000 </r>
       <r>    10.6182     0.0000    24.0000 </r>
       <r>    10.6239     0.0000    24.0000 </r>
       <r>    10.6296     0.0000    24.0000 </r>
       <r>    10.6353     0.0000    24.0000 </r>
       <r>    10.6409     0.0000    24.0000 </r>
       <r>    10.6466     0.0000    24.0000 </r>
       <r>    10.6523     0.0000    24.0000 </r>
       <r>    10.6580     0.0000    24.0000 </r>
       <r>    10.6637     0.0000    24.0000 </r>
       <r>    10.6694     0.0000    24.0000 </r>
       <r>    10.6750     0.0000    24.0000 </r>
       <r>    10.6807     0.0000    24.0000 </r>
       <r>    10.6864     0.0000    24.0000 </r>
       <r>    10.6921     0.0000    24.0000 </r>
       <r>    10.6978     0.0000    24.0000 </r>
       <r>    10.7034     0.0000    24.0000 </r>
       <r>    10.7091     0.0000    24.0000 </r>
       <r>    10.7148     0.0000    24.0000 </r>
       <r>    10.7205     0.0000    24.0000 </r>
       <r>    10.7262     0.0000    24.0000 </r>
       <r>    10.7319     0.0000    24.0000 </r>
       <r>    10.7375     0.0000    24.0000 </r>
       <r>    10.7432     0.0000    24.0000 </r>
       <r>    10.7489     0.0000    24.0000 </r>
       <r>    10.7546     0.0000    24.0000 </r>
       <r>    10.7603     0.0000    24.0000 </r>
       <r>    10.7660     0.0000    24.0000 </r>
       <r>    10.7716     0.0000    24.0000 </r>
       <r>    10.7773     0.0000    24.0000 </r>
       <r>    10.7830     0.0000    24.0000 </r>
       <r>    10.7887     0.0000    24.0000 </r>
       <r>    10.7944     0.0000    24.0000 </r>
       <r>    10.8000     0.0000    24.0000 </r>
       <r>    10.8057     0.0000    24.0000 </r>
       <r>    10.8114     0.0000    24.0000 </r>
       <r>    10.8171     0.0000    24.0000 </r>
       <r>    10.8228     0.0000    24.0000 </r>
       <r>    10.8285     0.0000    24.0000 </r>
       <r>    10.8341     0.0000    24.0000 </r>
       <r>    10.8398     0.0000    24.0000 </r>
       <r>    10.8455     0.0000    24.0000 </r>
       <r>    10.8512     0.0000    24.0000 </r>
       <r>    10.8569     0.0000    24.0000 </r>
       <r>    10.8625     0.0000    24.0000 </r>
       <r>    10.8682     0.0000    24.0000 </r>
       <r>    10.8739     0.0000    24.0000 </r>
       <r>    10.8796     0.0000    24.0000 </r>
       <r>    10.8853     0.0000    24.0000 </r>
       <r>    10.8910     0.0000    24.0000 </r>
       <r>    10.8966     0.0000    24.0000 </r>
       <r>    10.9023     0.0000    24.0000 </r>
       <r>    10.9080     0.0000    24.0000 </r>
       <r>    10.9137     0.0000    24.0000 </r>
       <r>    10.9194     0.0000    24.0000 </r>
       <r>    10.9251     0.0000    24.0000 </r>
       <r>    10.9307     0.0000    24.0000 </r>
       <r>    10.9364     0.0000    24.0000 </r>
       <r>    10.9421     0.0000    24.0000 </r>
       <r>    10.9478     0.0000    24.0000 </r>
       <r>    10.9535     0.0000    24.0000 </r>
       <r>    10.9591     0.0000    24.0000 </r>
       <r>    10.9648     0.0000    24.0000 </r>
       <r>    10.9705     0.0000    24.0000 </r>
       <r>    10.9762     0.0000    24.0000 </r>
       <r>    10.9819     0.0000    24.0000 </r>
       <r>    10.9876     0.0000    24.0000 </r>
       <r>    10.9932     0.0000    24.0000 </r>
       <r>    10.9989     0.0000    24.0000 </r>
       <r>    11.0046     0.0000    24.0000 </r>
       <r>    11.0103     0.0000    24.0000 </r>
       <r>    11.0160     0.0000    24.0000 </r>
       <r>    11.0217     0.0000    24.0000 </r>
       <r>    11.0273     0.0000    24.0000 </r>
       <r>    11.0330     0.0000    24.0000 </r>
       <r>    11.0387     0.0000    24.0000 </r>
       <r>    11.0444     0.0000    24.0000 </r>
       <r>    11.0501     0.0000    24.0000 </r>
       <r>    11.0557     0.0000    24.0000 </r>
       <r>    11.0614     0.0000    24.0000 </r>
       <r>    11.0671     0.0000    24.0000 </r>
       <r>    11.0728     0.0000    24.0000 </r>
       <r>    11.0785     0.0000    24.0000 </r>
       <r>    11.0842     0.0000    24.0000 </r>
       <r>    11.0898     0.0000    24.0000 </r>
       <r>    11.0955     0.0000    24.0000 </r>
       <r>    11.1012     0.0000    24.0000 </r>
       <r>    11.1069     0.0000    24.0000 </r>
       <r>    11.1126     0.0000    24.0000 </r>
       <r>    11.1182     0.0000    24.0000 </r>
       <r>    11.1239     0.0000    24.0000 </r>
       <r>    11.1296     0.0000    24.0000 </r>
       <r>    11.1353     0.0000    24.0000 </r>
       <r>    11.1410     0.0000    24.0000 </r>
       <r>    11.1467     0.0000    24.0000 </r>
       <r>    11.1523     0.0000    24.0000 </r>
       <r>    11.1580     0.0000    24.0000 </r>
       <r>    11.1637     0.0000    24.0000 </r>
       <r>    11.1694     0.0000    24.0000 </r>
       <r>    11.1751     0.0000    24.0000 </r>
       <r>    11.1808     0.0000    24.0000 </r>
       <r>    11.1864     0.0000    24.0000 </r>
       <r>    11.1921     0.0000    24.0000 </r>
       <r>    11.1978     0.0000    24.0000 </r>
       <r>    11.2035     0.0000    24.0000 </r>
       <r>    11.2092     0.0000    24.0000 </r>
       <r>    11.2148     0.0000    24.0000 </r>
       <r>    11.2205     0.0000    24.0000 </r>
       <r>    11.2262     0.0000    24.0000 </r>
       <r>    11.2319     0.0000    24.0000 </r>
       <r>    11.2376     0.0000    24.0000 </r>
       <r>    11.2433     0.0000    24.0000 </r>
       <r>    11.2489     0.0000    24.0000 </r>
       <r>    11.2546     0.0000    24.0000 </r>
       <r>    11.2603     0.0000    24.0000 </r>
       <r>    11.2660     0.0000    24.0000 </r>
       <r>    11.2717     0.0000    24.0000 </r>
       <r>    11.2773     0.0000    24.0000 </r>
       <r>    11.2830     0.0000    24.0000 </r>
       <r>    11.2887     0.0000    24.0000 </r>
       <r>    11.2944     0.0000    24.0000 </r>
       <r>    11.3001     0.0000    24.0000 </r>
       <r>    11.3058     0.0000    24.0000 </r>
       <r>    11.3114     0.0000    24.0000 </r>
       <r>    11.3171     0.0000    24.0000 </r>
       <r>    11.3228     0.0000    24.0000 </r>
       <r>    11.3285     0.0000    24.0000 </r>
       <r>    11.3342     0.0000    24.0000 </r>
       <r>    11.3399     0.0000    24.0000 </r>
       <r>    11.3455     0.0000    24.0000 </r>
       <r>    11.3512     0.0000    24.0000 </r>
       <r>    11.3569     0.0000    24.0000 </r>
       <r>    11.3626     0.0000    24.0000 </r>
       <r>    11.3683     0.0000    24.0000 </r>
       <r>    11.3739     0.0000    24.0000 </r>
       <r>    11.3796     0.0000    24.0000 </r>
       <r>    11.3853     0.0000    24.0000 </r>
       <r>    11.3910     0.0000    24.0000 </r>
       <r>    11.3967     0.0000    24.0000 </r>
       <r>    11.4024     0.0000    24.0000 </r>
       <r>    11.4080     0.0000    24.0000 </r>
       <r>    11.4137     0.0000    24.0000 </r>
       <r>    11.4194     0.0000    24.0000 </r>
       <r>    11.4251     0.0000    24.0000 </r>
       <r>    11.4308     0.0000    24.0000 </r>
       <r>    11.4365     0.0000    24.0000 </r>
       <r>    11.4421     0.0000    24.0000 </r>
       <r>    11.4478     0.0000    24.0000 </r>
       <r>    11.4535     0.0000    24.0000 </r>
       <r>    11.4592     0.0000    24.0000 </r>
       <r>    11.4649     0.0000    24.0000 </r>
       <r>    11.4705     0.0000    24.0000 </r>
       <r>    11.4762     0.0000    24.0000 </r>
       <r>    11.4819     0.0000    24.0000 </r>
       <r>    11.4876     0.0000    24.0000 </r>
       <r>    11.4933     0.0000    24.0000 </r>
       <r>    11.4990     0.0000    24.0000 </r>
       <r>    11.5046     0.0000    24.0000 </r>
       <r>    11.5103     0.0000    24.0000 </r>
       <r>    11.5160     0.0000    24.0000 </r>
       <r>    11.5217     0.0000    24.0000 </r>
       <r>    11.5274     0.0000    24.0000 </r>
       <r>    11.5330     0.0000    24.0000 </r>
       <r>    11.5387     0.0000    24.0000 </r>
       <r>    11.5444     0.0000    24.0000 </r>
       <r>    11.5501     0.0000    24.0000 </r>
       <r>    11.5558     0.0000    24.0000 </r>
       <r>    11.5615     0.0000    24.0000 </r>
       <r>    11.5671     0.0000    24.0000 </r>
       <r>    11.5728     0.0000    24.0000 </r>
       <r>    11.5785     0.0000    24.0000 </r>
       <r>    11.5842     0.0000    24.0000 </r>
       <r>    11.5899     0.0000    24.0000 </r>
       <r>    11.5956     0.0000    24.0000 </r>
       <r>    11.6012     0.0000    24.0000 </r>
       <r>    11.6069     0.0000    24.0000 </r>
       <r>    11.6126     0.0000    24.0000 </r>
       <r>    11.6183     0.0000    24.0000 </r>
       <r>    11.6240     0.0000    24.0000 </r>
       <r>    11.6296     0.0000    24.0000 </r>
       <r>    11.6353     0.0000    24.0000 </r>
       <r>    11.6410     0.0000    24.0000 </r>
       <r>    11.6467     0.0000    24.0000 </r>
       <r>    11.6524     0.0000    24.0000 </r>
       <r>    11.6581     0.0000    24.0000 </r>
       <r>    11.6637     0.0000    24.0000 </r>
       <r>    11.6694     0.0000    24.0000 </r>
       <r>    11.6751     0.0000    24.0000 </r>
       <r>    11.6808     0.0000    24.0000 </r>
       <r>    11.6865     0.0000    24.0000 </r>
       <r>    11.6921     0.0000    24.0000 </r>
       <r>    11.6978     0.0000    24.0000 </r>
       <r>    11.7035     0.0000    24.0000 </r>
       <r>    11.7092     0.0000    24.0000 </r>
       <r>    11.7149     0.0000    24.0000 </r>
       <r>    11.7206     0.0000    24.0000 </r>
       <r>    11.7262     0.0000    24.0000 </r>
       <r>    11.7319     0.0000    24.0000 </r>
       <r>    11.7376     0.0000    24.0000 </r>
       <r>    11.7433     0.0000    24.0000 </r>
      </set>
     </set>
    </array>
   </total>
  </dos>
 </calculation>
 <structure name="finalpos" >
  <crystal>
   <varray name="basis" >
    <v>       2.13000000      -1.22975600       0.00000000 </v>
    <v>       2.13000000       1.22975600       0.00000000 </v>
    <v>       0.00000000       0.00000000      20.00000000 </v>
   </varray>
   <i name="volume">    104.77521120 </i>
   <varray name="rec_basis" >
    <v>       0.23474178      -0.40658472       0.00000000 </v>
    <v>       0.23474178       0.40658472       0.00000000 </v>
    <v>       0.00000000       0.00000000       0.05000000 </v>
   </varray>
  </crystal>
  <varray name="positions" >
   <v>       0.00000000       0.00000000       0.00000000 </v>
   <v>       0.33333300       0.33333300       0.00000000 </v>
   <v>       0.00000000       0.00000000       0.22206301 </v>
   <v>       0.33333300       0.33333300       0.22206301 </v>
  </varray>
  <varray name="selective"  type="logical" >
   <v type="logical" >  F  F  F </v>
   <v type="logical" >  F  F  F </v>
   <v type="logical" >  F  F  T </v>
   <v type="logical" >  F  F  T </v>
  </varray>
  <nose>
   <v>      -3.00000000       0.00000000       0.00010000       0.00010000 </v>
  </nose>
 </structure>
</modeling>
