<?xml version="1.0" encoding="ISO-8859-1"?>
<modeling>
 <generator>
  <i name="program" type="string">vasp </i>
  <i name="version" type="string">5.4.4.18Apr17-6-g9f103f2a35  </i>
  <i name="subversion" type="string">(build May 31 2018 21:15:54) complex            parallel </i>
  <i name="platform" type="string">c7_intel_O1 </i>
  <i name="date" type="string">2020 07 28 </i>
  <i name="time" type="string">12:01:28 </i>
 </generator>
 <incar>
  <i type="string" name="SYSTEM"> C:graphene</i>
  <i type="int" name="ISTART">     0</i>
  <i type="string" name="PREC">accurate</i>
  <i type="string" name="ALGO"> N</i>
  <i type="logical" name="ADDGRID"> T  </i>
  <i name="AMIN">      0.01000000</i>
  <i type="int" name="NELMIN">     5</i>
  <i type="int" name="IBRION">     2</i>
  <i name="EDIFF">      0.00000001</i>
  <i name="EDIFFG">      0.00000010</i>
  <i type="int" name="NSW">    80</i>
  <i name="SYMPREC">      0.00010000</i>
  <i name="ENCUT">    800.00000000</i>
  <i type="int" name="NEDOS">  9001</i>
  <i type="logical" name="LREAL"> F  </i>
  <i type="int" name="ISMEAR">     0</i>
  <i name="SIGMA">      0.01000000</i>
  <i type="logical" name="LWAVE"> F  </i>
  <v type="int" name="KPOINT_BSE">    -1     0     0     0</v>
 </incar>
 <structure name="primitive_cell" >
  <crystal>
   <varray name="basis" >
    <v>       2.13000000      -1.22975600       0.00000000 </v>
    <v>       2.13000000       1.22975600       0.00000000 </v>
    <v>       0.00000000       0.00000000      20.00000000 </v>
   </varray>
   <i name="volume">    104.77521120 </i>
   <varray name="rec_basis" >
    <v>       0.23474178      -0.40658472       0.00000000 </v>
    <v>       0.23474178       0.40658472       0.00000000 </v>
    <v>       0.00000000       0.00000000       0.05000000 </v>
   </varray>
  </crystal>
  <varray name="positions" >
   <v>       0.01000000       0.02000000       0.00000000 </v>
   <v>       0.33333300       0.33333300       0.00000000 </v>
  </varray>
 </structure>
 <varray name="primitive_index" >
  <v type="int" >        1 </v>
  <v type="int" >        2 </v>
 </varray>
 <kpoints>
  <generation param="Gamma">
   <v type="int" name="divisions">      21       21        1 </v>
   <v name="usershift">      0.00000000       0.00000000       0.00000000 </v>
   <v name="genvec1">      0.04761905       0.00000000       0.00000000 </v>
   <v name="genvec2">      0.00000000       0.04761905       0.00000000 </v>
   <v name="genvec3">      0.00000000       0.00000000       1.00000000 </v>
   <v name="shift">      0.00000000       0.00000000       0.00000000 </v>
  </generation>
  <varray name="kpointlist" >
   <v>       0.00000000       0.00000000       0.00000000 </v>
   <v>       0.04761905       0.00000000       0.00000000 </v>
   <v>       0.09523810       0.00000000       0.00000000 </v>
   <v>       0.14285714       0.00000000       0.00000000 </v>
   <v>       0.19047619       0.00000000       0.00000000 </v>
   <v>       0.23809524       0.00000000       0.00000000 </v>
   <v>       0.28571429       0.00000000       0.00000000 </v>
   <v>       0.33333333       0.00000000       0.00000000 </v>
   <v>       0.38095238       0.00000000       0.00000000 </v>
   <v>       0.42857143       0.00000000       0.00000000 </v>
   <v>       0.47619048       0.00000000       0.00000000 </v>
   <v>       0.00000000       0.04761905       0.00000000 </v>
   <v>       0.04761905       0.04761905       0.00000000 </v>
   <v>       0.09523810       0.04761905       0.00000000 </v>
   <v>       0.14285714       0.04761905       0.00000000 </v>
   <v>       0.19047619       0.04761905       0.00000000 </v>
   <v>       0.23809524       0.04761905       0.00000000 </v>
   <v>       0.28571429       0.04761905       0.00000000 </v>
   <v>       0.33333333       0.04761905       0.00000000 </v>
   <v>       0.38095238       0.04761905       0.00000000 </v>
   <v>       0.42857143       0.04761905       0.00000000 </v>
   <v>       0.47619048       0.04761905       0.00000000 </v>
   <v>      -0.47619048       0.04761905       0.00000000 </v>
   <v>      -0.42857143       0.04761905       0.00000000 </v>
   <v>      -0.38095238       0.04761905       0.00000000 </v>
   <v>      -0.33333333       0.04761905       0.00000000 </v>
   <v>      -0.28571429       0.04761905       0.00000000 </v>
   <v>      -0.23809524       0.04761905       0.00000000 </v>
   <v>      -0.19047619       0.04761905       0.00000000 </v>
   <v>      -0.14285714       0.04761905       0.00000000 </v>
   <v>      -0.09523810       0.04761905       0.00000000 </v>
   <v>      -0.04761905       0.04761905       0.00000000 </v>
   <v>       0.00000000       0.09523810       0.00000000 </v>
   <v>       0.04761905       0.09523810       0.00000000 </v>
   <v>       0.09523810       0.09523810       0.00000000 </v>
   <v>       0.14285714       0.09523810       0.00000000 </v>
   <v>       0.19047619       0.09523810       0.00000000 </v>
   <v>       0.23809524       0.09523810       0.00000000 </v>
   <v>       0.28571429       0.09523810       0.00000000 </v>
   <v>       0.33333333       0.09523810       0.00000000 </v>
   <v>       0.38095238       0.09523810       0.00000000 </v>
   <v>       0.42857143       0.09523810       0.00000000 </v>
   <v>       0.47619048       0.09523810       0.00000000 </v>
   <v>      -0.47619048       0.09523810       0.00000000 </v>
   <v>      -0.42857143       0.09523810       0.00000000 </v>
   <v>      -0.38095238       0.09523810       0.00000000 </v>
   <v>      -0.33333333       0.09523810       0.00000000 </v>
   <v>      -0.28571429       0.09523810       0.00000000 </v>
   <v>      -0.23809524       0.09523810       0.00000000 </v>
   <v>      -0.19047619       0.09523810       0.00000000 </v>
   <v>      -0.14285714       0.09523810       0.00000000 </v>
   <v>      -0.09523810       0.09523810       0.00000000 </v>
   <v>      -0.04761905       0.09523810       0.00000000 </v>
   <v>       0.00000000       0.14285714       0.00000000 </v>
   <v>       0.04761905       0.14285714       0.00000000 </v>
   <v>       0.09523810       0.14285714       0.00000000 </v>
   <v>       0.14285714       0.14285714       0.00000000 </v>
   <v>       0.19047619       0.14285714       0.00000000 </v>
   <v>       0.23809524       0.14285714       0.00000000 </v>
   <v>       0.28571429       0.14285714       0.00000000 </v>
   <v>       0.33333333       0.14285714       0.00000000 </v>
   <v>       0.38095238       0.14285714       0.00000000 </v>
   <v>       0.42857143       0.14285714       0.00000000 </v>
   <v>       0.47619048       0.14285714       0.00000000 </v>
   <v>      -0.47619048       0.14285714       0.00000000 </v>
   <v>      -0.42857143       0.14285714       0.00000000 </v>
   <v>      -0.38095238       0.14285714       0.00000000 </v>
   <v>      -0.33333333       0.14285714       0.00000000 </v>
   <v>      -0.28571429       0.14285714       0.00000000 </v>
   <v>      -0.23809524       0.14285714       0.00000000 </v>
   <v>      -0.19047619       0.14285714       0.00000000 </v>
   <v>      -0.14285714       0.14285714       0.00000000 </v>
   <v>      -0.09523810       0.14285714       0.00000000 </v>
   <v>      -0.04761905       0.14285714       0.00000000 </v>
   <v>       0.00000000       0.19047619       0.00000000 </v>
   <v>       0.04761905       0.19047619       0.00000000 </v>
   <v>       0.09523810       0.19047619       0.00000000 </v>
   <v>       0.14285714       0.19047619       0.00000000 </v>
   <v>       0.19047619       0.19047619       0.00000000 </v>
   <v>       0.23809524       0.19047619       0.00000000 </v>
   <v>       0.28571429       0.19047619       0.00000000 </v>
   <v>       0.33333333       0.19047619       0.00000000 </v>
   <v>       0.38095238       0.19047619       0.00000000 </v>
   <v>       0.42857143       0.19047619       0.00000000 </v>
   <v>       0.47619048       0.19047619       0.00000000 </v>
   <v>      -0.47619048       0.19047619       0.00000000 </v>
   <v>      -0.42857143       0.19047619       0.00000000 </v>
   <v>      -0.38095238       0.19047619       0.00000000 </v>
   <v>      -0.33333333       0.19047619       0.00000000 </v>
   <v>      -0.28571429       0.19047619       0.00000000 </v>
   <v>      -0.23809524       0.19047619       0.00000000 </v>
   <v>      -0.19047619       0.19047619       0.00000000 </v>
   <v>      -0.14285714       0.19047619       0.00000000 </v>
   <v>      -0.09523810       0.19047619       0.00000000 </v>
   <v>      -0.04761905       0.19047619       0.00000000 </v>
   <v>       0.00000000       0.23809524       0.00000000 </v>
   <v>       0.04761905       0.23809524       0.00000000 </v>
   <v>       0.09523810       0.23809524       0.00000000 </v>
   <v>       0.14285714       0.23809524       0.00000000 </v>
   <v>       0.19047619       0.23809524       0.00000000 </v>
   <v>       0.23809524       0.23809524       0.00000000 </v>
   <v>       0.28571429       0.23809524       0.00000000 </v>
   <v>       0.33333333       0.23809524       0.00000000 </v>
   <v>       0.38095238       0.23809524       0.00000000 </v>
   <v>       0.42857143       0.23809524       0.00000000 </v>
   <v>       0.47619048       0.23809524       0.00000000 </v>
   <v>      -0.47619048       0.23809524       0.00000000 </v>
   <v>      -0.42857143       0.23809524       0.00000000 </v>
   <v>      -0.38095238       0.23809524       0.00000000 </v>
   <v>      -0.33333333       0.23809524       0.00000000 </v>
   <v>      -0.28571429       0.23809524       0.00000000 </v>
   <v>      -0.23809524       0.23809524       0.00000000 </v>
   <v>      -0.19047619       0.23809524       0.00000000 </v>
   <v>      -0.14285714       0.23809524       0.00000000 </v>
   <v>      -0.09523810       0.23809524       0.00000000 </v>
   <v>      -0.04761905       0.23809524       0.00000000 </v>
   <v>       0.00000000       0.28571429       0.00000000 </v>
   <v>       0.04761905       0.28571429       0.00000000 </v>
   <v>       0.09523810       0.28571429       0.00000000 </v>
   <v>       0.14285714       0.28571429       0.00000000 </v>
   <v>       0.19047619       0.28571429       0.00000000 </v>
   <v>       0.23809524       0.28571429       0.00000000 </v>
   <v>       0.28571429       0.28571429       0.00000000 </v>
   <v>       0.33333333       0.28571429       0.00000000 </v>
   <v>       0.38095238       0.28571429       0.00000000 </v>
   <v>       0.42857143       0.28571429       0.00000000 </v>
   <v>       0.47619048       0.28571429       0.00000000 </v>
   <v>      -0.47619048       0.28571429       0.00000000 </v>
   <v>      -0.42857143       0.28571429       0.00000000 </v>
   <v>      -0.38095238       0.28571429       0.00000000 </v>
   <v>      -0.33333333       0.28571429       0.00000000 </v>
   <v>      -0.28571429       0.28571429       0.00000000 </v>
   <v>      -0.23809524       0.28571429       0.00000000 </v>
   <v>      -0.19047619       0.28571429       0.00000000 </v>
   <v>      -0.14285714       0.28571429       0.00000000 </v>
   <v>      -0.09523810       0.28571429       0.00000000 </v>
   <v>      -0.04761905       0.28571429       0.00000000 </v>
   <v>       0.00000000       0.33333333       0.00000000 </v>
   <v>       0.04761905       0.33333333       0.00000000 </v>
   <v>       0.09523810       0.33333333       0.00000000 </v>
   <v>       0.14285714       0.33333333       0.00000000 </v>
   <v>       0.19047619       0.33333333       0.00000000 </v>
   <v>       0.23809524       0.33333333       0.00000000 </v>
   <v>       0.28571429       0.33333333       0.00000000 </v>
   <v>       0.33333333       0.33333333       0.00000000 </v>
   <v>       0.38095238       0.33333333       0.00000000 </v>
   <v>       0.42857143       0.33333333       0.00000000 </v>
   <v>       0.47619048       0.33333333       0.00000000 </v>
   <v>      -0.47619048       0.33333333       0.00000000 </v>
   <v>      -0.42857143       0.33333333       0.00000000 </v>
   <v>      -0.38095238       0.33333333       0.00000000 </v>
   <v>      -0.33333333       0.33333333       0.00000000 </v>
   <v>      -0.28571429       0.33333333       0.00000000 </v>
   <v>      -0.23809524       0.33333333       0.00000000 </v>
   <v>      -0.19047619       0.33333333       0.00000000 </v>
   <v>      -0.14285714       0.33333333       0.00000000 </v>
   <v>      -0.09523810       0.33333333       0.00000000 </v>
   <v>      -0.04761905       0.33333333       0.00000000 </v>
   <v>       0.00000000       0.38095238       0.00000000 </v>
   <v>       0.04761905       0.38095238       0.00000000 </v>
   <v>       0.09523810       0.38095238       0.00000000 </v>
   <v>       0.14285714       0.38095238       0.00000000 </v>
   <v>       0.19047619       0.38095238       0.00000000 </v>
   <v>       0.23809524       0.38095238       0.00000000 </v>
   <v>       0.28571429       0.38095238       0.00000000 </v>
   <v>       0.33333333       0.38095238       0.00000000 </v>
   <v>       0.38095238       0.38095238       0.00000000 </v>
   <v>       0.42857143       0.38095238       0.00000000 </v>
   <v>       0.47619048       0.38095238       0.00000000 </v>
   <v>      -0.47619048       0.38095238       0.00000000 </v>
   <v>      -0.42857143       0.38095238       0.00000000 </v>
   <v>      -0.38095238       0.38095238       0.00000000 </v>
   <v>      -0.33333333       0.38095238       0.00000000 </v>
   <v>      -0.28571429       0.38095238       0.00000000 </v>
   <v>      -0.23809524       0.38095238       0.00000000 </v>
   <v>      -0.19047619       0.38095238       0.00000000 </v>
   <v>      -0.14285714       0.38095238       0.00000000 </v>
   <v>      -0.09523810       0.38095238       0.00000000 </v>
   <v>      -0.04761905       0.38095238       0.00000000 </v>
   <v>       0.00000000       0.42857143       0.00000000 </v>
   <v>       0.04761905       0.42857143       0.00000000 </v>
   <v>       0.09523810       0.42857143       0.00000000 </v>
   <v>       0.14285714       0.42857143       0.00000000 </v>
   <v>       0.19047619       0.42857143       0.00000000 </v>
   <v>       0.23809524       0.42857143       0.00000000 </v>
   <v>       0.28571429       0.42857143       0.00000000 </v>
   <v>       0.33333333       0.42857143       0.00000000 </v>
   <v>       0.38095238       0.42857143       0.00000000 </v>
   <v>       0.42857143       0.42857143       0.00000000 </v>
   <v>       0.47619048       0.42857143       0.00000000 </v>
   <v>      -0.47619048       0.42857143       0.00000000 </v>
   <v>      -0.42857143       0.42857143       0.00000000 </v>
   <v>      -0.38095238       0.42857143       0.00000000 </v>
   <v>      -0.33333333       0.42857143       0.00000000 </v>
   <v>      -0.28571429       0.42857143       0.00000000 </v>
   <v>      -0.23809524       0.42857143       0.00000000 </v>
   <v>      -0.19047619       0.42857143       0.00000000 </v>
   <v>      -0.14285714       0.42857143       0.00000000 </v>
   <v>      -0.09523810       0.42857143       0.00000000 </v>
   <v>      -0.04761905       0.42857143       0.00000000 </v>
   <v>       0.00000000       0.47619048       0.00000000 </v>
   <v>       0.04761905       0.47619048       0.00000000 </v>
   <v>       0.09523810       0.47619048       0.00000000 </v>
   <v>       0.14285714       0.47619048       0.00000000 </v>
   <v>       0.19047619       0.47619048       0.00000000 </v>
   <v>       0.23809524       0.47619048       0.00000000 </v>
   <v>       0.28571429       0.47619048       0.00000000 </v>
   <v>       0.33333333       0.47619048       0.00000000 </v>
   <v>       0.38095238       0.47619048       0.00000000 </v>
   <v>       0.42857143       0.47619048       0.00000000 </v>
   <v>       0.47619048       0.47619048       0.00000000 </v>
   <v>      -0.47619048       0.47619048       0.00000000 </v>
   <v>      -0.42857143       0.47619048       0.00000000 </v>
   <v>      -0.38095238       0.47619048       0.00000000 </v>
   <v>      -0.33333333       0.47619048       0.00000000 </v>
   <v>      -0.28571429       0.47619048       0.00000000 </v>
   <v>      -0.23809524       0.47619048       0.00000000 </v>
   <v>      -0.19047619       0.47619048       0.00000000 </v>
   <v>      -0.14285714       0.47619048       0.00000000 </v>
   <v>      -0.09523810       0.47619048       0.00000000 </v>
   <v>      -0.04761905       0.47619048       0.00000000 </v>
  </varray>
  <varray name="weights" >
   <v>       0.00226757 </v>
   <v>       0.00453515 </v>
   <v>       0.00453515 </v>
   <v>       0.00453515 </v>
   <v>       0.00453515 </v>
   <v>       0.00453515 </v>
   <v>       0.00453515 </v>
   <v>       0.00453515 </v>
   <v>       0.00453515 </v>
   <v>       0.00453515 </v>
   <v>       0.00453515 </v>
   <v>       0.00453515 </v>
   <v>       0.00453515 </v>
   <v>       0.00453515 </v>
   <v>       0.00453515 </v>
   <v>       0.00453515 </v>
   <v>       0.00453515 </v>
   <v>       0.00453515 </v>
   <v>       0.00453515 </v>
   <v>       0.00453515 </v>
   <v>       0.00453515 </v>
   <v>       0.00453515 </v>
   <v>       0.00453515 </v>
   <v>       0.00453515 </v>
   <v>       0.00453515 </v>
   <v>       0.00453515 </v>
   <v>       0.00453515 </v>
   <v>       0.00453515 </v>
   <v>       0.00453515 </v>
   <v>       0.00453515 </v>
   <v>       0.00453515 </v>
   <v>       0.00453515 </v>
   <v>       0.00453515 </v>
   <v>       0.00453515 </v>
   <v>       0.00453515 </v>
   <v>       0.00453515 </v>
   <v>       0.00453515 </v>
   <v>       0.00453515 </v>
   <v>       0.00453515 </v>
   <v>       0.00453515 </v>
   <v>       0.00453515 </v>
   <v>       0.00453515 </v>
   <v>       0.00453515 </v>
   <v>       0.00453515 </v>
   <v>       0.00453515 </v>
   <v>       0.00453515 </v>
   <v>       0.00453515 </v>
   <v>       0.00453515 </v>
   <v>       0.00453515 </v>
   <v>       0.00453515 </v>
   <v>       0.00453515 </v>
   <v>       0.00453515 </v>
   <v>       0.00453515 </v>
   <v>       0.00453515 </v>
   <v>       0.00453515 </v>
   <v>       0.00453515 </v>
   <v>       0.00453515 </v>
   <v>       0.00453515 </v>
   <v>       0.00453515 </v>
   <v>       0.00453515 </v>
   <v>       0.00453515 </v>
   <v>       0.00453515 </v>
   <v>       0.00453515 </v>
   <v>       0.00453515 </v>
   <v>       0.00453515 </v>
   <v>       0.00453515 </v>
   <v>       0.00453515 </v>
   <v>       0.00453515 </v>
   <v>       0.00453515 </v>
   <v>       0.00453515 </v>
   <v>       0.00453515 </v>
   <v>       0.00453515 </v>
   <v>       0.00453515 </v>
   <v>       0.00453515 </v>
   <v>       0.00453515 </v>
   <v>       0.00453515 </v>
   <v>       0.00453515 </v>
   <v>       0.00453515 </v>
   <v>       0.00453515 </v>
   <v>       0.00453515 </v>
   <v>       0.00453515 </v>
   <v>       0.00453515 </v>
   <v>       0.00453515 </v>
   <v>       0.00453515 </v>
   <v>       0.00453515 </v>
   <v>       0.00453515 </v>
   <v>       0.00453515 </v>
   <v>       0.00453515 </v>
   <v>       0.00453515 </v>
   <v>       0.00453515 </v>
   <v>       0.00453515 </v>
   <v>       0.00453515 </v>
   <v>       0.00453515 </v>
   <v>       0.00453515 </v>
   <v>       0.00453515 </v>
   <v>       0.00453515 </v>
   <v>       0.00453515 </v>
   <v>       0.00453515 </v>
   <v>       0.00453515 </v>
   <v>       0.00453515 </v>
   <v>       0.00453515 </v>
   <v>       0.00453515 </v>
   <v>       0.00453515 </v>
   <v>       0.00453515 </v>
   <v>       0.00453515 </v>
   <v>       0.00453515 </v>
   <v>       0.00453515 </v>
   <v>       0.00453515 </v>
   <v>       0.00453515 </v>
   <v>       0.00453515 </v>
   <v>       0.00453515 </v>
   <v>       0.00453515 </v>
   <v>       0.00453515 </v>
   <v>       0.00453515 </v>
   <v>       0.00453515 </v>
   <v>       0.00453515 </v>
   <v>       0.00453515 </v>
   <v>       0.00453515 </v>
   <v>       0.00453515 </v>
   <v>       0.00453515 </v>
   <v>       0.00453515 </v>
   <v>       0.00453515 </v>
   <v>       0.00453515 </v>
   <v>       0.00453515 </v>
   <v>       0.00453515 </v>
   <v>       0.00453515 </v>
   <v>       0.00453515 </v>
   <v>       0.00453515 </v>
   <v>       0.00453515 </v>
   <v>       0.00453515 </v>
   <v>       0.00453515 </v>
   <v>       0.00453515 </v>
   <v>       0.00453515 </v>
   <v>       0.00453515 </v>
   <v>       0.00453515 </v>
   <v>       0.00453515 </v>
   <v>       0.00453515 </v>
   <v>       0.00453515 </v>
   <v>       0.00453515 </v>
   <v>       0.00453515 </v>
   <v>       0.00453515 </v>
   <v>       0.00453515 </v>
   <v>       0.00453515 </v>
   <v>       0.00453515 </v>
   <v>       0.00453515 </v>
   <v>       0.00453515 </v>
   <v>       0.00453515 </v>
   <v>       0.00453515 </v>
   <v>       0.00453515 </v>
   <v>       0.00453515 </v>
   <v>       0.00453515 </v>
   <v>       0.00453515 </v>
   <v>       0.00453515 </v>
   <v>       0.00453515 </v>
   <v>       0.00453515 </v>
   <v>       0.00453515 </v>
   <v>       0.00453515 </v>
   <v>       0.00453515 </v>
   <v>       0.00453515 </v>
   <v>       0.00453515 </v>
   <v>       0.00453515 </v>
   <v>       0.00453515 </v>
   <v>       0.00453515 </v>
   <v>       0.00453515 </v>
   <v>       0.00453515 </v>
   <v>       0.00453515 </v>
   <v>       0.00453515 </v>
   <v>       0.00453515 </v>
   <v>       0.00453515 </v>
   <v>       0.00453515 </v>
   <v>       0.00453515 </v>
   <v>       0.00453515 </v>
   <v>       0.00453515 </v>
   <v>       0.00453515 </v>
   <v>       0.00453515 </v>
   <v>       0.00453515 </v>
   <v>       0.00453515 </v>
   <v>       0.00453515 </v>
   <v>       0.00453515 </v>
   <v>       0.00453515 </v>
   <v>       0.00453515 </v>
   <v>       0.00453515 </v>
   <v>       0.00453515 </v>
   <v>       0.00453515 </v>
   <v>       0.00453515 </v>
   <v>       0.00453515 </v>
   <v>       0.00453515 </v>
   <v>       0.00453515 </v>
   <v>       0.00453515 </v>
   <v>       0.00453515 </v>
   <v>       0.00453515 </v>
   <v>       0.00453515 </v>
   <v>       0.00453515 </v>
   <v>       0.00453515 </v>
   <v>       0.00453515 </v>
   <v>       0.00453515 </v>
   <v>       0.00453515 </v>
   <v>       0.00453515 </v>
   <v>       0.00453515 </v>
   <v>       0.00453515 </v>
   <v>       0.00453515 </v>
   <v>       0.00453515 </v>
   <v>       0.00453515 </v>
   <v>       0.00453515 </v>
   <v>       0.00453515 </v>
   <v>       0.00453515 </v>
   <v>       0.00453515 </v>
   <v>       0.00453515 </v>
   <v>       0.00453515 </v>
   <v>       0.00453515 </v>
   <v>       0.00453515 </v>
   <v>       0.00453515 </v>
   <v>       0.00453515 </v>
   <v>       0.00453515 </v>
   <v>       0.00453515 </v>
   <v>       0.00453515 </v>
   <v>       0.00453515 </v>
   <v>       0.00453515 </v>
   <v>       0.00453515 </v>
   <v>       0.00453515 </v>
   <v>       0.00453515 </v>
  </varray>
 </kpoints>
 <parameters>
  <separator name="general" >
   <i type="string" name="SYSTEM">C:graphene</i>
   <i type="logical" name="LCOMPAT"> F  </i>
  </separator>
  <separator name="electronic" >
   <i type="string" name="PREC">accura</i>
   <i name="ENMAX">    800.00000000</i>
   <i name="ENAUG">    644.87300000</i>
   <i name="EDIFF">      0.00000001</i>
   <i type="int" name="IALGO">    38</i>
   <i type="int" name="IWAVPR">    11</i>
   <i type="int" name="NBANDS">     8</i>
   <i name="NELECT">      8.00000000</i>
   <i type="int" name="TURBO">     0</i>
   <i type="int" name="IRESTART">     0</i>
   <i type="int" name="NREBOOT">     0</i>
   <i type="int" name="NMIN">     0</i>
   <i name="EREF">      0.00000000</i>
   <separator name="electronic smearing" >
    <i type="int" name="ISMEAR">     0</i>
    <i name="SIGMA">      0.01000000</i>
    <i name="KSPACING">      0.50000000</i>
    <i type="logical" name="KGAMMA"> T  </i>
   </separator>
   <separator name="electronic projectors" >
    <i type="logical" name="LREAL"> F  </i>
    <v name="ROPT">      0.00000000</v>
    <i type="int" name="LMAXPAW">  -100</i>
    <i type="int" name="LMAXMIX">     2</i>
    <i type="logical" name="NLSPLINE"> F  </i>
   </separator>
   <separator name="electronic startup" >
    <i type="int" name="ISTART">     0</i>
    <i type="int" name="ICHARG">     2</i>
    <i type="int" name="INIWAV">     1</i>
   </separator>
   <separator name="electronic spin" >
    <i type="int" name="ISPIN">     1</i>
    <i type="logical" name="LNONCOLLINEAR"> F  </i>
    <v name="MAGMOM">      1.00000000      1.00000000</v>
    <i name="NUPDOWN">     -1.00000000</i>
    <i type="logical" name="LSORBIT"> F  </i>
    <v name="SAXIS">      0.00000000      0.00000000      1.00000000</v>
    <i type="logical" name="LSPIRAL"> F  </i>
    <v name="QSPIRAL">      0.00000000      0.00000000      0.00000000</v>
    <i type="logical" name="LZEROZ"> F  </i>
   </separator>
   <separator name="electronic exchange-correlation" >
    <i type="logical" name="LASPH"> F  </i>
    <i type="logical" name="LMETAGGA"> F  </i>
   </separator>
   <separator name="electronic convergence" >
    <i type="int" name="NELM">    60</i>
    <i type="int" name="NELMDL">    -5</i>
    <i type="int" name="NELMIN">     5</i>
    <i name="ENINI">    800.00000000</i>
    <separator name="electronic convergence detail" >
     <i type="logical" name="LDIAG"> T  </i>
     <i type="logical" name="LSUBROT"> F  </i>
     <i name="WEIMIN">      0.00100000</i>
     <i name="EBREAK">      0.00000000</i>
     <i name="DEPER">      0.30000000</i>
     <i type="int" name="NRMM">     4</i>
     <i name="TIME">      0.40000000</i>
    </separator>
   </separator>
   <separator name="electronic mixer" >
    <i name="AMIX">      0.40000000</i>
    <i name="BMIX">      1.00000000</i>
    <i name="AMIN">      0.01000000</i>
    <i name="AMIX_MAG">      1.60000000</i>
    <i name="BMIX_MAG">      1.00000000</i>
    <separator name="electronic mixer details" >
     <i type="int" name="IMIX">     4</i>
     <i type="logical" name="MIXFIRST"> F  </i>
     <i type="int" name="MAXMIX">   -45</i>
     <i name="WC">    100.00000000</i>
     <i type="int" name="INIMIX">     1</i>
     <i type="int" name="MIXPRE">     1</i>
     <i type="int" name="MREMOVE">     5</i>
    </separator>
   </separator>
   <separator name="electronic dipolcorrection" >
    <i type="logical" name="LDIPOL"> F  </i>
    <i type="logical" name="LMONO"> F  </i>
    <i type="int" name="IDIPOL">     0</i>
    <i name="EPSILON">      1.00000000</i>
    <v name="DIPOL">   -100.00000000   -100.00000000   -100.00000000</v>
    <i name="EFIELD">      0.00000000</i>
   </separator>
  </separator>
  <separator name="grids" >
   <i type="int" name="NGX">    24</i>
   <i type="int" name="NGY">    24</i>
   <i type="int" name="NGZ">   192</i>
   <i type="int" name="NGXF">    48</i>
   <i type="int" name="NGYF">    48</i>
   <i type="int" name="NGZF">   384</i>
   <i type="logical" name="ADDGRID"> T  </i>
  </separator>
  <separator name="ionic" >
   <i type="int" name="NSW">    80</i>
   <i type="int" name="IBRION">     2</i>
   <i type="int" name="MDALGO">     0</i>
   <i type="int" name="ISIF">     2</i>
   <i name="PSTRESS">      0.00000000</i>
   <i name="EDIFFG">      0.00000010</i>
   <i type="int" name="NFREE">     1</i>
   <i name="POTIM">      0.50000000</i>
   <i name="SMASS">     -3.00000000</i>
   <i name="SCALEE">      1.00000000</i>
  </separator>
  <separator name="ionic md" >
   <i name="TEBEG">      0.00010000</i>
   <i name="TEEND">      0.00010000</i>
   <i type="int" name="NBLOCK">     1</i>
   <i type="int" name="KBLOCK">    80</i>
   <i type="int" name="NPACO">   256</i>
   <i name="APACO">     16.00000000</i>
  </separator>
  <separator name="symmetry" >
   <i type="int" name="ISYM">     2</i>
   <i name="SYMPREC">      0.00010000</i>
  </separator>
  <separator name="dos" >
   <i type="int" name="LORBIT">     0</i>
   <v name="RWIGS">     -1.00000000</v>
   <i type="int" name="NEDOS">  9001</i>
   <i name="EMIN">     10.00000000</i>
   <i name="EMAX">    -10.00000000</i>
   <i name="EFERMI">      0.00000000</i>
  </separator>
  <separator name="writing" >
   <i type="int" name="NWRITE">     2</i>
   <i type="logical" name="LWAVE"> F  </i>
   <i type="logical" name="LDOWNSAMPLE"> F  </i>
   <i type="logical" name="LCHARG"> T  </i>
   <i type="logical" name="LPARD"> F  </i>
   <i type="logical" name="LVTOT"> F  </i>
   <i type="logical" name="LVHAR"> F  </i>
   <i type="logical" name="LELF"> F  </i>
   <i type="logical" name="LOPTICS"> F  </i>
   <v name="STM">      0.00000000      0.00000000      0.00000000      0.00000000      0.00000000      0.00000000      0.00000000</v>
  </separator>
  <separator name="performance" >
   <i type="int" name="NPAR">     4</i>
   <i type="int" name="NSIM">     4</i>
   <i type="int" name="NBLK">    -1</i>
   <i type="logical" name="LPLANE"> T  </i>
   <i type="logical" name="LSCALAPACK"> T  </i>
   <i type="logical" name="LSCAAWARE"> F  </i>
   <i type="logical" name="LSCALU"> F  </i>
   <i type="logical" name="LASYNC"> F  </i>
   <i type="logical" name="LORBITALREAL"> F  </i>
  </separator>
  <separator name="miscellaneous" >
   <i type="int" name="IDIOT">     3</i>
   <i type="int" name="ISPECIAL">     0</i>
   <i type="logical" name="LMUSIC"> F  </i>
   <v name="POMASS">     12.01100000</v>
   <v name="DARWINR">      0.00000000</v>
   <v name="DARWINV">      1.00000000</v>
   <i type="logical" name="LCORR"> T  </i>
  </separator>
  <i type="logical" name="GGA_COMPAT"> T  </i>
  <i type="logical" name="LBERRY"> F  </i>
  <i type="int" name="ICORELEVEL">     0</i>
  <i type="logical" name="LDAU"> F  </i>
  <i type="int" name="I_CONSTRAINED_M">     0</i>
  <separator name="electronic exchange-correlation" >
   <i type="string" name="GGA">--</i>
   <i type="int" name="VOSKOWN">     0</i>
   <i type="logical" name="LHFCALC"> F  </i>
   <i type="string" name="PRECFOCK"></i>
   <i type="logical" name="LSYMGRAD"> F  </i>
   <i type="logical" name="LHFONE"> F  </i>
   <i type="logical" name="LRHFCALC"> F  </i>
   <i type="logical" name="LTHOMAS"> F  </i>
   <i type="logical" name="LMODELHF"> F  </i>
   <i name="ENCUT4O">     -1.00000000</i>
   <i type="int" name="EXXOEP">     0</i>
   <i type="int" name="FOURORBIT">     0</i>
   <i name="AEXX">      0.00000000</i>
   <i name="HFALPHA">      0.00000000</i>
   <i name="MCALPHA">      0.00000000</i>
   <i name="ALDAX">      1.00000000</i>
   <i name="AGGAX">      1.00000000</i>
   <i name="ALDAC">      1.00000000</i>
   <i name="AGGAC">      1.00000000</i>
   <i type="int" name="NKREDX">     1</i>
   <i type="int" name="NKREDY">     1</i>
   <i type="int" name="NKREDZ">     1</i>
   <i type="logical" name="SHIFTRED"> F  </i>
   <i type="logical" name="ODDONLY"> F  </i>
   <i type="logical" name="EVENONLY"> F  </i>
   <i type="int" name="LMAXFOCK">     0</i>
   <i type="int" name="NMAXFOCKAE">     0</i>
   <i type="logical" name="LFOCKAEDFT"> F  </i>
   <i name="HFSCREEN">      0.00000000</i>
   <i name="HFSCREENC">      0.00000000</i>
   <i type="int" name="NBANDSGWLOW">     0</i>
  </separator>
  <separator name="vdW DFT" >
   <i type="logical" name="LUSE_VDW"> F  </i>
   <i name="Zab_VDW">     -0.84910000</i>
   <i name="PARAM1">      0.12340000</i>
   <i name="PARAM2">      1.00000000</i>
   <i name="PARAM3">      0.00000000</i>
  </separator>
  <separator name="model GW" >
   <i type="int" name="MODEL_GW">     0</i>
   <i name="MODEL_EPS0">     31.43256336</i>
   <i name="MODEL_ALPHA">      1.00000000</i>
  </separator>
  <separator name="linear response parameters" >
   <i type="logical" name="LEPSILON"> F  </i>
   <i type="logical" name="LRPA"> F  </i>
   <i type="logical" name="LNABLA"> F  </i>
   <i type="logical" name="LVEL"> F  </i>
   <i type="int" name="KINTER">     0</i>
   <i name="CSHIFT">      0.10000000</i>
   <i name="OMEGAMAX">     -1.00000000</i>
   <i name="DEG_THRESHOLD">      0.00200000</i>
   <i name="RTIME">     -0.10000000</i>
   <i name="WPLASMAI">      0.00000000</i>
   <v name="DFIELD">      0.00000000      0.00000000      0.00000000</v>
   <v name="WPLASMA">      0.00000000      0.00000000      0.00000000      0.00000000      0.00000000      0.00000000      0.00000000      0.00000000      0.00000000</v>
  </separator>
  <separator name="orbital magnetization" >
   <i type="logical" name="NUCIND"> F  </i>
   <v name="MAGPOS">      0.00000000      0.00000000      0.00000000</v>
   <i type="logical" name="LNICSALL"> T  </i>
   <i type="logical" name="ORBITALMAG"> F  </i>
   <i type="logical" name="LMAGBLOCH"> F  </i>
   <i type="logical" name="LCHIMAG"> F  </i>
   <i type="logical" name="LGAUGE"> T  </i>
   <i type="int" name="MAGATOM">     0</i>
   <v name="MAGDIPOL">      0.00000000      0.00000000      0.00000000</v>
   <v name="AVECCONST">      0.00000000      0.00000000      0.00000000</v>
  </separator>
  <separator name="response functions" >
   <i type="logical" name="LADDER"> F  </i>
   <i type="logical" name="LRPAFORCE"> F  </i>
   <i type="logical" name="LFXC"> F  </i>
   <i type="logical" name="LHARTREE"> T  </i>
   <i type="int" name="IBSE">     0</i>
   <v type="int" name="KPOINT">    -1     0     0     0</v>
   <i type="logical" name="LTCTE"> F  </i>
   <i type="logical" name="LTETE"> F  </i>
   <i type="logical" name="LTRIPLET"> F  </i>
   <i type="logical" name="LFXCEPS"> F  </i>
   <i type="logical" name="LFXHEG"> F  </i>
   <i type="int" name="NATURALO">     2</i>
   <i type="logical" name="L2ORDER"> F  </i>
   <i type="logical" name="LMP2LT"> F  </i>
   <i type="logical" name="LUSEW"> F  </i>
   <i name="ENCUTGW">     -2.00000000</i>
   <i name="ENCUTGWSOFT">     -2.00000000</i>
   <i name="ENCUTLF">     -1.00000000</i>
   <i type="int" name="LMAXMP2">    -1</i>
   <i name="SCISSOR">      0.00000000</i>
   <i type="int" name="NOMEGA">     0</i>
   <i type="int" name="NOMEGAR">     0</i>
   <i type="int" name="NBANDSGW">    -1</i>
   <i type="int" name="NBANDSO">    -1</i>
   <i type="int" name="NBANDSV">    -1</i>
   <i type="int" name="NELM">     1</i>
   <i type="int" name="NELMHF">     1</i>
   <i type="int" name="DIM">     3</i>
   <i type="int" name="ANTIRES">     0</i>
   <i name="OMEGAMAX">    -30.00000000</i>
   <i name="OMEGAMIN">    -30.00000000</i>
   <i name="OMEGATL">   -200.00000000</i>
   <i type="int" name="OMEGAGRID">   140</i>
   <i name="CSHIFT">     -0.10000000</i>
   <i type="logical" name="SELFENERGY"> F  </i>
   <i type="logical" name="LSPECTRAL"> F  </i>
   <i type="logical" name="LSPECTRALGW"> F  </i>
   <i type="logical" name="LSINGLES"> F  </i>
   <i type="logical" name="LFERMIGW"> F  </i>
   <i type="logical" name="ODDONLYGW"> F  </i>
   <i type="logical" name="EVENONLYGW"> F  </i>
   <i type="int" name="NKREDLFX">     1</i>
   <i type="int" name="NKREDLFY">     1</i>
   <i type="int" name="NKREDLFZ">     1</i>
   <i type="int" name="MAXMEM">  2800</i>
   <i type="int" name="TELESCOPE">     0</i>
   <i type="int" name="TAUPAR">     1</i>
   <i type="int" name="OMEGAPAR">    -1</i>
   <i name="LAMBDA">      1.00000000</i>
  </separator>
  <separator name="External order field" >
   <i name="OFIELD_KAPPA">      0.00000000</i>
   <v name="OFIELD_K">      0.00000000      0.00000000      0.00000000</v>
   <i name="OFIELD_Q6_NEAR">      0.00000000</i>
   <i name="OFIELD_Q6_FAR">      0.00000000</i>
   <i name="OFIELD_A">      0.00000000</i>
  </separator>
 </parameters>
 <atominfo>
  <atoms>       2 </atoms>
  <types>       1 </types>
  <array name="atoms" >
   <dimension dim="1">ion</dimension>
   <field type="string">element</field>
   <field type="int">atomtype</field>
   <set>
    <rc><c>C </c><c>   1</c></rc>
    <rc><c>C </c><c>   1</c></rc>
   </set>
  </array>
  <array name="atomtypes" >
   <dimension dim="1">type</dimension>
   <field type="int">atomspertype</field>
   <field type="string">element</field>
   <field>mass</field>
   <field>valence</field>
   <field type="string">pseudopotential</field>
   <set>
    <rc><c>   2</c><c>C </c><c>     12.01100000</c><c>      4.00000000</c><c>  PAW_PBE C 08Apr2002                   </c></rc>
   </set>
  </array>
 </atominfo>
 <structure name="initialpos" >
  <crystal>
   <varray name="basis" >
    <v>       2.13000000      -1.22975600       0.00000000 </v>
    <v>       2.13000000       1.22975600       0.00000000 </v>
    <v>       0.00000000       0.00000000      20.00000000 </v>
   </varray>
   <i name="volume">    104.77521120 </i>
   <varray name="rec_basis" >
    <v>       0.23474178      -0.40658472       0.00000000 </v>
    <v>       0.23474178       0.40658472       0.00000000 </v>
    <v>       0.00000000       0.00000000       0.05000000 </v>
   </varray>
  </crystal>
  <varray name="positions" >
   <v>       0.01000000       0.02000000       0.00000000 </v>
   <v>       0.33333300       0.33333300       0.00000000 </v>
  </varray>
 </structure>
 <calculation>
  <scstep>
   <time name="dav">    3.71    3.76</time>
   <time name="total">    3.84    3.94</time>
   <energy>
    <i name="alphaZ">      3.13611264 </i>
    <i name="ewald">   1303.43657780 </i>
    <i name="hartreedc">  -1515.29224648 </i>
    <i name="XCdc">     26.40098624 </i>
    <i name="pawpsdc">    217.04409276 </i>
    <i name="pawaedc">   -218.18290438 </i>
    <i name="eentropy">     -0.00009962 </i>
    <i name="bandstr">    -54.41624555 </i>
    <i name="atom">    294.30884690 </i>
    <i name="e_fr_energy">     56.43512032 </i>
    <i name="e_wo_entrp">     56.43521994 </i>
    <i name="e_0_energy">     56.43517013 </i>
   </energy>
  </scstep>
  <scstep>
   <time name="dav">    4.92    4.94</time>
   <time name="total">    4.93    4.94</time>
   <energy>
    <i name="e_fr_energy">    -14.87896231 </i>
    <i name="e_wo_entrp">    -14.87896231 </i>
    <i name="e_0_energy">    -14.87896231 </i>
   </energy>
  </scstep>
  <scstep>
   <time name="dav">    4.82    4.83</time>
   <time name="total">    4.82    4.83</time>
   <energy>
    <i name="e_fr_energy">    -19.63996333 </i>
    <i name="e_wo_entrp">    -19.63996333 </i>
    <i name="e_0_energy">    -19.63996333 </i>
   </energy>
  </scstep>
  <scstep>
   <time name="dav">    5.14    5.15</time>
   <time name="total">    5.14    5.16</time>
   <energy>
    <i name="e_fr_energy">    -19.67788605 </i>
    <i name="e_wo_entrp">    -19.67788605 </i>
    <i name="e_0_energy">    -19.67788605 </i>
   </energy>
  </scstep>
  <scstep>
   <time name="dav">    4.92    4.94</time>
   <time name="total">    5.24    5.26</time>
   <energy>
    <i name="e_fr_energy">    -19.67816922 </i>
    <i name="e_wo_entrp">    -19.67816922 </i>
    <i name="e_0_energy">    -19.67816922 </i>
   </energy>
  </scstep>
  <scstep>
   <time name="dav">    4.55    4.56</time>
   <time name="total">    4.97    4.99</time>
   <energy>
    <i name="e_fr_energy">    -18.72540439 </i>
    <i name="e_wo_entrp">    -18.72540439 </i>
    <i name="e_0_energy">    -18.72540439 </i>
   </energy>
  </scstep>
  <scstep>
   <time name="dav">    4.98    4.99</time>
   <time name="total">    5.40    5.42</time>
   <energy>
    <i name="e_fr_energy">    -18.35963855 </i>
    <i name="e_wo_entrp">    -18.35963855 </i>
    <i name="e_0_energy">    -18.35963855 </i>
   </energy>
  </scstep>
  <scstep>
   <time name="dav">    5.48    5.49</time>
   <time name="total">    5.90    5.92</time>
   <energy>
    <i name="e_fr_energy">    -18.35033501 </i>
    <i name="e_wo_entrp">    -18.35033501 </i>
    <i name="e_0_energy">    -18.35033501 </i>
   </energy>
  </scstep>
  <scstep>
   <time name="dav">    4.99    5.00</time>
   <time name="total">    5.41    5.43</time>
   <energy>
    <i name="e_fr_energy">    -18.34909815 </i>
    <i name="e_wo_entrp">    -18.34909815 </i>
    <i name="e_0_energy">    -18.34909815 </i>
   </energy>
  </scstep>
  <scstep>
   <time name="dav">    4.92    4.93</time>
   <time name="total">    5.34    5.36</time>
   <energy>
    <i name="e_fr_energy">    -18.34460938 </i>
    <i name="e_wo_entrp">    -18.34460938 </i>
    <i name="e_0_energy">    -18.34460938 </i>
   </energy>
  </scstep>
  <scstep>
   <time name="dav">    4.62    4.64</time>
   <time name="total">    5.05    5.07</time>
   <energy>
    <i name="e_fr_energy">    -18.34319089 </i>
    <i name="e_wo_entrp">    -18.34319089 </i>
    <i name="e_0_energy">    -18.34319089 </i>
   </energy>
  </scstep>
  <scstep>
   <time name="dav">    4.32    4.33</time>
   <time name="total">    4.74    4.75</time>
   <energy>
    <i name="e_fr_energy">    -18.34274031 </i>
    <i name="e_wo_entrp">    -18.34274031 </i>
    <i name="e_0_energy">    -18.34274031 </i>
   </energy>
  </scstep>
  <scstep>
   <time name="dav">    4.74    4.75</time>
   <time name="total">    5.15    5.16</time>
   <energy>
    <i name="e_fr_energy">    -18.34392642 </i>
    <i name="e_wo_entrp">    -18.34392642 </i>
    <i name="e_0_energy">    -18.34392642 </i>
   </energy>
  </scstep>
  <scstep>
   <time name="dav">    4.24    4.25</time>
   <time name="total">    4.65    4.67</time>
   <energy>
    <i name="e_fr_energy">    -18.34376489 </i>
    <i name="e_wo_entrp">    -18.34376489 </i>
    <i name="e_0_energy">    -18.34376489 </i>
   </energy>
  </scstep>
  <scstep>
   <time name="dav">    4.36    4.37</time>
   <time name="total">    4.78    4.79</time>
   <energy>
    <i name="e_fr_energy">    -18.34396587 </i>
    <i name="e_wo_entrp">    -18.34396587 </i>
    <i name="e_0_energy">    -18.34396587 </i>
   </energy>
  </scstep>
  <scstep>
   <time name="dav">    4.65    4.66</time>
   <time name="total">    5.07    5.17</time>
   <energy>
    <i name="e_fr_energy">    -18.34416130 </i>
    <i name="e_wo_entrp">    -18.34416130 </i>
    <i name="e_0_energy">    -18.34416130 </i>
   </energy>
  </scstep>
  <scstep>
   <time name="dav">    4.25    4.26</time>
   <time name="total">    4.68    4.70</time>
   <energy>
    <i name="e_fr_energy">    -18.34428008 </i>
    <i name="e_wo_entrp">    -18.34428008 </i>
    <i name="e_0_energy">    -18.34428008 </i>
   </energy>
  </scstep>
  <scstep>
   <time name="dav">    4.09    4.10</time>
   <time name="total">    4.50    4.51</time>
   <energy>
    <i name="e_fr_energy">    -18.34439548 </i>
    <i name="e_wo_entrp">    -18.34439548 </i>
    <i name="e_0_energy">    -18.34439548 </i>
   </energy>
  </scstep>
  <scstep>
   <time name="dav">    4.60    4.61</time>
   <time name="total">    5.01    5.02</time>
   <energy>
    <i name="e_fr_energy">    -18.34440234 </i>
    <i name="e_wo_entrp">    -18.34440234 </i>
    <i name="e_0_energy">    -18.34440234 </i>
   </energy>
  </scstep>
  <scstep>
   <time name="dav">    4.22    4.23</time>
   <time name="total">    4.63    4.64</time>
   <energy>
    <i name="e_fr_energy">    -18.34441099 </i>
    <i name="e_wo_entrp">    -18.34441099 </i>
    <i name="e_0_energy">    -18.34441099 </i>
   </energy>
  </scstep>
  <scstep>
   <time name="dav">    5.23    5.25</time>
   <time name="total">    5.65    5.67</time>
   <energy>
    <i name="e_fr_energy">    -18.34441126 </i>
    <i name="e_wo_entrp">    -18.34441126 </i>
    <i name="e_0_energy">    -18.34441126 </i>
   </energy>
  </scstep>
  <scstep>
   <time name="dav">    4.44    4.45</time>
   <time name="total">    4.86    4.87</time>
   <energy>
    <i name="e_fr_energy">    -18.34441160 </i>
    <i name="e_wo_entrp">    -18.34441160 </i>
    <i name="e_0_energy">    -18.34441160 </i>
   </energy>
  </scstep>
  <scstep>
   <time name="dav">    5.40    5.41</time>
   <time name="total">    5.81    5.83</time>
   <energy>
    <i name="e_fr_energy">    -18.34441161 </i>
    <i name="e_wo_entrp">    -18.34441161 </i>
    <i name="e_0_energy">    -18.34441161 </i>
   </energy>
  </scstep>
  <scstep>
   <time name="dav">    4.52    4.53</time>
   <time name="total">    4.94    4.96</time>
   <energy>
    <i name="e_fr_energy">    -18.34441162 </i>
    <i name="e_wo_entrp">    -18.34441162 </i>
    <i name="e_0_energy">    -18.34441162 </i>
   </energy>
  </scstep>
  <scstep>
   <time name="dav">    4.66    4.67</time>
   <time name="total">    4.76    4.77</time>
   <energy>
    <i name="alphaZ">      3.13611264 </i>
    <i name="ewald">   1303.43657780 </i>
    <i name="hartreedc">  -1550.35463586 </i>
    <i name="XCdc">     27.60779632 </i>
    <i name="pawpsdc">    854.04662494 </i>
    <i name="pawaedc">   -855.41153803 </i>
    <i name="eentropy">     -0.00000000 </i>
    <i name="bandstr">    -95.11419633 </i>
    <i name="atom">    294.30884690 </i>
    <i name="e_fr_energy">    -18.34441162 </i>
    <i name="e_wo_entrp">    -18.34441162 </i>
    <i name="e_0_energy">    -18.34441162 </i>
   </energy>
  </scstep>
  <structure>
   <crystal>
    <varray name="basis" >
     <v>       2.13000000      -1.22975600       0.00000000 </v>
     <v>       2.13000000       1.22975600       0.00000000 </v>
     <v>       0.00000000       0.00000000      20.00000000 </v>
    </varray>
    <i name="volume">    104.77521120 </i>
    <varray name="rec_basis" >
     <v>       0.23474178      -0.40658472       0.00000000 </v>
     <v>       0.23474178       0.40658472       0.00000000 </v>
     <v>       0.00000000       0.00000000       0.05000000 </v>
    </varray>
   </crystal>
   <varray name="positions" >
    <v>       0.01000000       0.02000000       0.00000000 </v>
    <v>       0.33333300       0.33333300       0.00000000 </v>
   </varray>
  </structure>
  <varray name="forces" >
   <v>      -3.78081259      -0.57419918       0.00000000 </v>
   <v>       3.78081259       0.57419918      -0.00000000 </v>
  </varray>
  <varray name="stress" >
   <v>      24.59322387      -2.14116595       0.00000000 </v>
   <v>      -2.14116595      -1.56448805       0.00000000 </v>
   <v>       0.00000000       0.00000000      -0.34475159 </v>
  </varray>
  <energy>
   <i name="e_fr_energy">    -18.34441162 </i>
   <i name="e_wo_entrp">    -18.34441162 </i>
   <i name="e_0_energy">     -0.00000000 </i>
  </energy>
  <time name="totalsc">  129.83  130.65</time>
 </calculation>
 <calculation>
  <scstep>
   <time name="dav">    3.83    3.84</time>
   <time name="total">    4.27    4.30</time>
   <energy>
    <i name="alphaZ">      3.13611264 </i>
    <i name="ewald">   1308.83471481 </i>
    <i name="hartreedc">  -1550.89862745 </i>
    <i name="XCdc">     27.63699402 </i>
    <i name="pawpsdc">    854.04676653 </i>
    <i name="pawaedc">   -855.41167962 </i>
    <i name="eentropy">     -0.00002559 </i>
    <i name="bandstr">    -98.33261416 </i>
    <i name="atom">    294.30884690 </i>
    <i name="e_fr_energy">    -16.67951192 </i>
    <i name="e_wo_entrp">    -16.67948633 </i>
    <i name="e_0_energy">    -16.67949912 </i>
   </energy>
  </scstep>
  <scstep>
   <time name="dav">    5.14    5.15</time>
   <time name="total">    5.56    5.57</time>
   <energy>
    <i name="e_fr_energy">    -16.75019759 </i>
    <i name="e_wo_entrp">    -16.75017200 </i>
    <i name="e_0_energy">    -16.75018480 </i>
   </energy>
  </scstep>
  <scstep>
   <time name="dav">    4.18    4.19</time>
   <time name="total">    4.61    4.62</time>
   <energy>
    <i name="e_fr_energy">    -16.65402317 </i>
    <i name="e_wo_entrp">    -16.65399757 </i>
    <i name="e_0_energy">    -16.65401037 </i>
   </energy>
  </scstep>
  <scstep>
   <time name="dav">    5.24    5.26</time>
   <time name="total">    5.68    5.70</time>
   <energy>
    <i name="e_fr_energy">    -16.65242862 </i>
    <i name="e_wo_entrp">    -16.65240280 </i>
    <i name="e_0_energy">    -16.65241571 </i>
   </energy>
  </scstep>
  <scstep>
   <time name="dav">    4.41    4.43</time>
   <time name="total">    4.85    4.86</time>
   <energy>
    <i name="e_fr_energy">    -16.65220339 </i>
    <i name="e_wo_entrp">    -16.65217779 </i>
    <i name="e_0_energy">    -16.65219059 </i>
   </energy>
  </scstep>
  <scstep>
   <time name="dav">    4.93    4.94</time>
   <time name="total">    5.36    5.38</time>
   <energy>
    <i name="e_fr_energy">    -16.65221331 </i>
    <i name="e_wo_entrp">    -16.65218772 </i>
    <i name="e_0_energy">    -16.65220051 </i>
   </energy>
  </scstep>
  <scstep>
   <time name="dav">    4.46    4.47</time>
   <time name="total">    4.89    4.90</time>
   <energy>
    <i name="e_fr_energy">    -16.65221864 </i>
    <i name="e_wo_entrp">    -16.65219305 </i>
    <i name="e_0_energy">    -16.65220584 </i>
   </energy>
  </scstep>
  <scstep>
   <time name="dav">    4.22    4.23</time>
   <time name="total">    4.65    4.66</time>
   <energy>
    <i name="e_fr_energy">    -16.65222147 </i>
    <i name="e_wo_entrp">    -16.65219587 </i>
    <i name="e_0_energy">    -16.65220867 </i>
   </energy>
  </scstep>
  <scstep>
   <time name="dav">    4.05    4.06</time>
   <time name="total">    4.49    4.50</time>
   <energy>
    <i name="e_fr_energy">    -16.65222542 </i>
    <i name="e_wo_entrp">    -16.65219982 </i>
    <i name="e_0_energy">    -16.65221262 </i>
   </energy>
  </scstep>
  <scstep>
   <time name="dav">    4.42    4.43</time>
   <time name="total">    4.85    4.86</time>
   <energy>
    <i name="e_fr_energy">    -16.65222739 </i>
    <i name="e_wo_entrp">    -16.65220180 </i>
    <i name="e_0_energy">    -16.65221459 </i>
   </energy>
  </scstep>
  <scstep>
   <time name="dav">    4.22    4.23</time>
   <time name="total">    4.66    4.68</time>
   <energy>
    <i name="e_fr_energy">    -16.65222559 </i>
    <i name="e_wo_entrp">    -16.65219999 </i>
    <i name="e_0_energy">    -16.65221279 </i>
   </energy>
  </scstep>
  <scstep>
   <time name="dav">    5.07    5.08</time>
   <time name="total">    5.50    5.51</time>
   <energy>
    <i name="e_fr_energy">    -16.65222892 </i>
    <i name="e_wo_entrp">    -16.65220332 </i>
    <i name="e_0_energy">    -16.65221612 </i>
   </energy>
  </scstep>
  <scstep>
   <time name="dav">    4.56    4.57</time>
   <time name="total">    4.99    5.00</time>
   <energy>
    <i name="e_fr_energy">    -16.65223553 </i>
    <i name="e_wo_entrp">    -16.65220993 </i>
    <i name="e_0_energy">    -16.65222273 </i>
   </energy>
  </scstep>
  <scstep>
   <time name="dav">    4.37    4.38</time>
   <time name="total">    4.80    4.81</time>
   <energy>
    <i name="e_fr_energy">    -16.65223864 </i>
    <i name="e_wo_entrp">    -16.65221304 </i>
    <i name="e_0_energy">    -16.65222584 </i>
   </energy>
  </scstep>
  <scstep>
   <time name="dav">    4.41    4.42</time>
   <time name="total">    4.83    4.85</time>
   <energy>
    <i name="e_fr_energy">    -16.65223933 </i>
    <i name="e_wo_entrp">    -16.65221374 </i>
    <i name="e_0_energy">    -16.65222654 </i>
   </energy>
  </scstep>
  <scstep>
   <time name="dav">    4.13    4.14</time>
   <time name="total">    4.56    4.57</time>
   <energy>
    <i name="e_fr_energy">    -16.65223995 </i>
    <i name="e_wo_entrp">    -16.65221435 </i>
    <i name="e_0_energy">    -16.65222715 </i>
   </energy>
  </scstep>
  <scstep>
   <time name="dav">    4.58    4.60</time>
   <time name="total">    5.01    5.03</time>
   <energy>
    <i name="e_fr_energy">    -16.65224000 </i>
    <i name="e_wo_entrp">    -16.65221440 </i>
    <i name="e_0_energy">    -16.65222720 </i>
   </energy>
  </scstep>
  <scstep>
   <time name="dav">    4.30    4.31</time>
   <time name="total">    4.73    4.74</time>
   <energy>
    <i name="e_fr_energy">    -16.65224001 </i>
    <i name="e_wo_entrp">    -16.65221441 </i>
    <i name="e_0_energy">    -16.65222721 </i>
   </energy>
  </scstep>
  <scstep>
   <time name="dav">    4.00    4.01</time>
   <time name="total">    4.43    4.44</time>
   <energy>
    <i name="e_fr_energy">    -16.65224002 </i>
    <i name="e_wo_entrp">    -16.65221442 </i>
    <i name="e_0_energy">    -16.65222722 </i>
   </energy>
  </scstep>
  <scstep>
   <time name="dav">    4.66    4.67</time>
   <time name="total">    4.76    4.77</time>
   <energy>
    <i name="alphaZ">      3.13611264 </i>
    <i name="ewald">   1308.83471481 </i>
    <i name="hartreedc">  -1552.83607060 </i>
    <i name="XCdc">     27.76019821 </i>
    <i name="pawpsdc">    933.32930847 </i>
    <i name="pawaedc">   -934.73882519 </i>
    <i name="eentropy">     -0.00002560 </i>
    <i name="bandstr">    -96.44649967 </i>
    <i name="atom">    294.30884690 </i>
    <i name="e_fr_energy">    -16.65224002 </i>
    <i name="e_wo_entrp">    -16.65221443 </i>
    <i name="e_0_energy">    -16.65222723 </i>
   </energy>
  </scstep>
  <structure>
   <crystal>
    <varray name="basis" >
     <v>       2.13000000      -1.22975600       0.00000000 </v>
     <v>       2.13000000       1.22975600       0.00000000 </v>
     <v>       0.00000000       0.00000000      20.00000000 </v>
    </varray>
    <i name="volume">    104.77521120 </i>
    <varray name="rec_basis" >
     <v>       0.23474178      -0.40658472       0.00000000 </v>
     <v>       0.23474178       0.40658472       0.00000000 </v>
     <v>       0.00000000       0.00000000       0.05000000 </v>
    </varray>
   </crystal>
   <varray name="positions" >
    <v>      -0.02155330      -0.03407882       0.00000000 </v>
    <v>       0.36488630       0.38741182      -0.00000000 </v>
   </varray>
  </structure>
  <varray name="forces" >
   <v>       8.23127079       3.72520003       0.00000000 </v>
   <v>      -8.23127079      -3.72520003      -0.00000000 </v>
  </varray>
  <varray name="stress" >
   <v>      30.27326060      16.56796646       0.00000000 </v>
   <v>      16.56796644     124.35035073       0.00000000 </v>
   <v>       0.00000000       0.00000000      -0.37245589 </v>
  </varray>
  <energy>
   <i name="e_fr_energy">    -16.65224002 </i>
   <i name="e_wo_entrp">    -16.65222723 </i>
   <i name="e_0_energy">     -0.00002560 </i>
  </energy>
  <time name="totalsc">  101.48  101.83</time>
 </calculation>
 <calculation>
  <scstep>
   <time name="dav">    3.80    3.81</time>
   <time name="total">    4.24    4.26</time>
   <energy>
    <i name="alphaZ">      3.13611264 </i>
    <i name="ewald">   1303.03554300 </i>
    <i name="hartreedc">  -1550.61271855 </i>
    <i name="XCdc">     27.61652806 </i>
    <i name="pawpsdc">    933.32935485 </i>
    <i name="pawaedc">   -934.73887152 </i>
    <i name="eentropy">     -0.00000000 </i>
    <i name="bandstr">    -94.65211379 </i>
    <i name="atom">    294.30884690 </i>
    <i name="e_fr_energy">    -18.57731841 </i>
    <i name="e_wo_entrp">    -18.57731841 </i>
    <i name="e_0_energy">    -18.57731841 </i>
   </energy>
  </scstep>
  <scstep>
   <time name="dav">    5.18    5.19</time>
   <time name="total">    5.60    5.61</time>
   <energy>
    <i name="e_fr_energy">    -18.52472156 </i>
    <i name="e_wo_entrp">    -18.52472156 </i>
    <i name="e_0_energy">    -18.52472156 </i>
   </energy>
  </scstep>
  <scstep>
   <time name="dav">    4.70    4.72</time>
   <time name="total">    5.12    5.14</time>
   <energy>
    <i name="e_fr_energy">    -18.46577376 </i>
    <i name="e_wo_entrp">    -18.46577376 </i>
    <i name="e_0_energy">    -18.46577376 </i>
   </energy>
  </scstep>
  <scstep>
   <time name="dav">    5.02    5.03</time>
   <time name="total">    5.43    5.44</time>
   <energy>
    <i name="e_fr_energy">    -18.46379810 </i>
    <i name="e_wo_entrp">    -18.46379809 </i>
    <i name="e_0_energy">    -18.46379810 </i>
   </energy>
  </scstep>
  <scstep>
   <time name="dav">    4.68    4.69</time>
   <time name="total">    5.09    5.10</time>
   <energy>
    <i name="e_fr_energy">    -18.46381176 </i>
    <i name="e_wo_entrp">    -18.46381176 </i>
    <i name="e_0_energy">    -18.46381176 </i>
   </energy>
  </scstep>
  <scstep>
   <time name="dav">    4.45    4.46</time>
   <time name="total">    4.86    4.87</time>
   <energy>
    <i name="e_fr_energy">    -18.46381350 </i>
    <i name="e_wo_entrp">    -18.46381350 </i>
    <i name="e_0_energy">    -18.46381350 </i>
   </energy>
  </scstep>
  <scstep>
   <time name="dav">    4.51    4.52</time>
   <time name="total">    4.92    4.93</time>
   <energy>
    <i name="e_fr_energy">    -18.46381480 </i>
    <i name="e_wo_entrp">    -18.46381480 </i>
    <i name="e_0_energy">    -18.46381480 </i>
   </energy>
  </scstep>
  <scstep>
   <time name="dav">    4.07    4.08</time>
   <time name="total">    4.48    4.49</time>
   <energy>
    <i name="e_fr_energy">    -18.46381855 </i>
    <i name="e_wo_entrp">    -18.46381855 </i>
    <i name="e_0_energy">    -18.46381855 </i>
   </energy>
  </scstep>
  <scstep>
   <time name="dav">    4.03    4.04</time>
   <time name="total">    4.44    4.46</time>
   <energy>
    <i name="e_fr_energy">    -18.46382124 </i>
    <i name="e_wo_entrp">    -18.46382124 </i>
    <i name="e_0_energy">    -18.46382124 </i>
   </energy>
  </scstep>
  <scstep>
   <time name="dav">    4.16    4.17</time>
   <time name="total">    4.57    4.58</time>
   <energy>
    <i name="e_fr_energy">    -18.46381916 </i>
    <i name="e_wo_entrp">    -18.46381916 </i>
    <i name="e_0_energy">    -18.46381916 </i>
   </energy>
  </scstep>
  <scstep>
   <time name="dav">    4.61    4.62</time>
   <time name="total">    5.02    5.04</time>
   <energy>
    <i name="e_fr_energy">    -18.46381666 </i>
    <i name="e_wo_entrp">    -18.46381666 </i>
    <i name="e_0_energy">    -18.46381666 </i>
   </energy>
  </scstep>
  <scstep>
   <time name="dav">    4.76    4.77</time>
   <time name="total">    5.18    5.19</time>
   <energy>
    <i name="e_fr_energy">    -18.46381551 </i>
    <i name="e_wo_entrp">    -18.46381551 </i>
    <i name="e_0_energy">    -18.46381551 </i>
   </energy>
  </scstep>
  <scstep>
   <time name="dav">    4.20    4.21</time>
   <time name="total">    4.62    4.63</time>
   <energy>
    <i name="e_fr_energy">    -18.46381577 </i>
    <i name="e_wo_entrp">    -18.46381577 </i>
    <i name="e_0_energy">    -18.46381577 </i>
   </energy>
  </scstep>
  <scstep>
   <time name="dav">    4.06    4.07</time>
   <time name="total">    4.49    4.50</time>
   <energy>
    <i name="e_fr_energy">    -18.46381729 </i>
    <i name="e_wo_entrp">    -18.46381729 </i>
    <i name="e_0_energy">    -18.46381729 </i>
   </energy>
  </scstep>
  <scstep>
   <time name="dav">    4.43    4.44</time>
   <time name="total">    4.86    4.87</time>
   <energy>
    <i name="e_fr_energy">    -18.46381815 </i>
    <i name="e_wo_entrp">    -18.46381815 </i>
    <i name="e_0_energy">    -18.46381815 </i>
   </energy>
  </scstep>
  <scstep>
   <time name="dav">    4.66    4.67</time>
   <time name="total">    5.08    5.10</time>
   <energy>
    <i name="e_fr_energy">    -18.46381863 </i>
    <i name="e_wo_entrp">    -18.46381863 </i>
    <i name="e_0_energy">    -18.46381863 </i>
   </energy>
  </scstep>
  <scstep>
   <time name="dav">    4.58    4.59</time>
   <time name="total">    5.00    5.02</time>
   <energy>
    <i name="e_fr_energy">    -18.46381874 </i>
    <i name="e_wo_entrp">    -18.46381874 </i>
    <i name="e_0_energy">    -18.46381874 </i>
   </energy>
  </scstep>
  <scstep>
   <time name="dav">    4.35    4.36</time>
   <time name="total">    4.77    4.79</time>
   <energy>
    <i name="e_fr_energy">    -18.46381880 </i>
    <i name="e_wo_entrp">    -18.46381880 </i>
    <i name="e_0_energy">    -18.46381880 </i>
   </energy>
  </scstep>
  <scstep>
   <time name="dav">    4.05    4.06</time>
   <time name="total">    4.47    4.48</time>
   <energy>
    <i name="e_fr_energy">    -18.46381881 </i>
    <i name="e_wo_entrp">    -18.46381881 </i>
    <i name="e_0_energy">    -18.46381881 </i>
   </energy>
  </scstep>
  <scstep>
   <time name="dav">    4.32    4.33</time>
   <time name="total">    4.43    4.44</time>
   <energy>
    <i name="alphaZ">      3.13611264 </i>
    <i name="ewald">   1303.03554300 </i>
    <i name="hartreedc">  -1550.05021094 </i>
    <i name="XCdc">     27.59295944 </i>
    <i name="pawpsdc">    847.87106600 </i>
    <i name="pawaedc">   -849.23241902 </i>
    <i name="eentropy">     -0.00000000 </i>
    <i name="bandstr">    -95.12571683 </i>
    <i name="atom">    294.30884690 </i>
    <i name="e_fr_energy">    -18.46381881 </i>
    <i name="e_wo_entrp">    -18.46381881 </i>
    <i name="e_0_energy">    -18.46381881 </i>
   </energy>
  </scstep>
  <structure>
   <crystal>
    <varray name="basis" >
     <v>       2.13000000      -1.22975600       0.00000000 </v>
     <v>       2.13000000       1.22975600       0.00000000 </v>
     <v>       0.00000000       0.00000000      20.00000000 </v>
    </varray>
    <i name="volume">    104.77521120 </i>
    <varray name="rec_basis" >
     <v>       0.23474178      -0.40658472       0.00000000 </v>
     <v>       0.23474178       0.40658472       0.00000000 </v>
     <v>       0.00000000       0.00000000       0.05000000 </v>
    </varray>
   </crystal>
   <varray name="positions" >
    <v>       0.00482174       0.01112505       0.00000000 </v>
    <v>       0.33851126       0.34220795      -0.00000000 </v>
   </varray>
  </structure>
  <varray name="forces" >
   <v>      -0.17864086      -0.14055617      -0.00000000 </v>
   <v>       0.17864086       0.14055617       0.00000000 </v>
  </varray>
  <varray name="stress" >
   <v>       6.49128319      -0.08730131       0.00000000 </v>
   <v>      -0.08730129       6.26058318       0.00000000 </v>
   <v>       0.00000000       0.00000000      -0.34354327 </v>
  </varray>
  <energy>
   <i name="e_fr_energy">    -18.46381881 </i>
   <i name="e_wo_entrp">    -18.46381881 </i>
   <i name="e_0_energy">     -0.00000000 </i>
  </energy>
  <time name="totalsc">  100.68  101.04</time>
 </calculation>
 <calculation>
  <scstep>
   <time name="dav">    3.97    3.98</time>
   <time name="total">    4.40    4.43</time>
   <energy>
    <i name="alphaZ">      3.13611264 </i>
    <i name="ewald">   1303.03426984 </i>
    <i name="hartreedc">  -1550.04939308 </i>
    <i name="XCdc">     27.59290299 </i>
    <i name="pawpsdc">    847.87112887 </i>
    <i name="pawaedc">   -849.23248187 </i>
    <i name="eentropy">     -0.00000004 </i>
    <i name="bandstr">    -95.12563521 </i>
    <i name="atom">    294.30884690 </i>
    <i name="e_fr_energy">    -18.46424895 </i>
    <i name="e_wo_entrp">    -18.46424891 </i>
    <i name="e_0_energy">    -18.46424893 </i>
   </energy>
  </scstep>
  <scstep>
   <time name="dav">    4.64    4.65</time>
   <time name="total">    5.06    5.08</time>
   <energy>
    <i name="e_fr_energy">    -18.46416510 </i>
    <i name="e_wo_entrp">    -18.46416500 </i>
    <i name="e_0_energy">    -18.46416505 </i>
   </energy>
  </scstep>
  <scstep>
   <time name="dav">    4.79    4.80</time>
   <time name="total">    5.21    5.23</time>
   <energy>
    <i name="e_fr_energy">    -18.46411601 </i>
    <i name="e_wo_entrp">    -18.46411576 </i>
    <i name="e_0_energy">    -18.46411589 </i>
   </energy>
  </scstep>
  <scstep>
   <time name="dav">    4.65    4.67</time>
   <time name="total">    5.07    5.09</time>
   <energy>
    <i name="e_fr_energy">    -18.46411758 </i>
    <i name="e_wo_entrp">    -18.46411734 </i>
    <i name="e_0_energy">    -18.46411746 </i>
   </energy>
  </scstep>
  <scstep>
   <time name="dav">    4.61    4.62</time>
   <time name="total">    5.03    5.04</time>
   <energy>
    <i name="e_fr_energy">    -18.46411760 </i>
    <i name="e_wo_entrp">    -18.46411736 </i>
    <i name="e_0_energy">    -18.46411748 </i>
   </energy>
  </scstep>
  <scstep>
   <time name="dav">    4.19    4.20</time>
   <time name="total">    4.30    4.31</time>
   <energy>
    <i name="alphaZ">      3.13611264 </i>
    <i name="ewald">   1303.03426984 </i>
    <i name="hartreedc">  -1550.04920948 </i>
    <i name="XCdc">     27.59290796 </i>
    <i name="pawpsdc">    847.84331321 </i>
    <i name="pawaedc">   -849.20465392 </i>
    <i name="eentropy">     -0.00000023 </i>
    <i name="bandstr">    -95.12570452 </i>
    <i name="atom">    294.30884690 </i>
    <i name="e_fr_energy">    -18.46411759 </i>
    <i name="e_wo_entrp">    -18.46411736 </i>
    <i name="e_0_energy">    -18.46411748 </i>
   </energy>
  </scstep>
  <structure>
   <crystal>
    <varray name="basis" >
     <v>       2.13000000      -1.22975600       0.00000000 </v>
     <v>       2.13000000       1.22975600       0.00000000 </v>
     <v>       0.00000000       0.00000000      20.00000000 </v>
    </varray>
    <i name="volume">    104.77521120 </i>
    <varray name="rec_basis" >
     <v>       0.23474178      -0.40658472       0.00000000 </v>
     <v>       0.23474178       0.40658472       0.00000000 </v>
     <v>       0.00000000       0.00000000       0.05000000 </v>
    </varray>
   </crystal>
   <varray name="positions" >
    <v>       0.00423547       0.01012024       0.00000000 </v>
    <v>       0.33909753       0.34321276      -0.00000000 </v>
   </varray>
  </structure>
  <varray name="forces" >
   <v>       0.10584224      -0.08455891      -0.00000000 </v>
   <v>      -0.10584224       0.08455891       0.00000000 </v>
  </varray>
  <varray name="stress" >
   <v>       6.50951238       0.11540617       0.00000000 </v>
   <v>       0.11540617       6.21143128       0.00000000 </v>
   <v>       0.00000000       0.00000000      -0.34288641 </v>
  </varray>
  <energy>
   <i name="e_fr_energy">    -18.46411759 </i>
   <i name="e_wo_entrp">    -18.46411748 </i>
   <i name="e_0_energy">     -0.00000023 </i>
  </energy>
  <time name="totalsc">   33.07   33.25</time>
 </calculation>
 <calculation>
  <scstep>
   <time name="dav">    3.97    3.98</time>
   <time name="total">    4.40    4.43</time>
   <energy>
    <i name="alphaZ">      3.13611264 </i>
    <i name="ewald">   1303.03376301 </i>
    <i name="hartreedc">  -1550.04903932 </i>
    <i name="XCdc">     27.59289610 </i>
    <i name="pawpsdc">    847.84922989 </i>
    <i name="pawaedc">   -849.21057174 </i>
    <i name="eentropy">     -0.00000286 </i>
    <i name="bandstr">    -95.12546898 </i>
    <i name="atom">    294.30884690 </i>
    <i name="e_fr_energy">    -18.46423437 </i>
    <i name="e_wo_entrp">    -18.46423151 </i>
    <i name="e_0_energy">    -18.46423294 </i>
   </energy>
  </scstep>
  <scstep>
   <time name="dav">    4.69    4.70</time>
   <time name="total">    5.11    5.12</time>
   <energy>
    <i name="e_fr_energy">    -18.46422447 </i>
    <i name="e_wo_entrp">    -18.46422156 </i>
    <i name="e_0_energy">    -18.46422302 </i>
   </energy>
  </scstep>
  <scstep>
   <time name="dav">    4.63    4.64</time>
   <time name="total">    5.05    5.06</time>
   <energy>
    <i name="e_fr_energy">    -18.46421934 </i>
    <i name="e_wo_entrp">    -18.46421643 </i>
    <i name="e_0_energy">    -18.46421788 </i>
   </energy>
  </scstep>
  <scstep>
   <time name="dav">    4.99    5.00</time>
   <time name="total">    5.41    5.43</time>
   <energy>
    <i name="e_fr_energy">    -18.46421951 </i>
    <i name="e_wo_entrp">    -18.46421661 </i>
    <i name="e_0_energy">    -18.46421806 </i>
   </energy>
  </scstep>
  <scstep>
   <time name="dav">    4.63    4.64</time>
   <time name="total">    4.73    4.74</time>
   <energy>
    <i name="alphaZ">      3.13611264 </i>
    <i name="ewald">   1303.03376301 </i>
    <i name="hartreedc">  -1550.04884066 </i>
    <i name="XCdc">     27.59288860 </i>
    <i name="pawpsdc">    847.84572145 </i>
    <i name="pawaedc">   -849.20705917 </i>
    <i name="eentropy">     -0.00000290 </i>
    <i name="bandstr">    -95.12564938 </i>
    <i name="atom">    294.30884690 </i>
    <i name="e_fr_energy">    -18.46421952 </i>
    <i name="e_wo_entrp">    -18.46421662 </i>
    <i name="e_0_energy">    -18.46421807 </i>
   </energy>
  </scstep>
  <structure>
   <crystal>
    <varray name="basis" >
     <v>       2.13000000      -1.22975600       0.00000000 </v>
     <v>       2.13000000       1.22975600       0.00000000 </v>
     <v>       0.00000000       0.00000000      20.00000000 </v>
    </varray>
    <i name="volume">    104.77521120 </i>
    <varray name="rec_basis" >
     <v>       0.23474178      -0.40658472       0.00000000 </v>
     <v>       0.23474178       0.40658472       0.00000000 </v>
     <v>       0.00000000       0.00000000       0.05000000 </v>
    </varray>
   </crystal>
   <varray name="positions" >
    <v>       0.00442157       0.01043919       0.00000000 </v>
    <v>       0.33891143       0.34289381      -0.00000000 </v>
   </varray>
  </structure>
  <varray name="forces" >
   <v>       0.01934559      -0.08198673      -0.00000000 </v>
   <v>      -0.01934559       0.08198673       0.00000000 </v>
  </varray>
  <varray name="stress" >
   <v>       6.44317370       0.35426148       0.00000000 </v>
   <v>       0.35426147       6.26645942       0.00000000 </v>
   <v>       0.00000000       0.00000000      -0.34371420 </v>
  </varray>
  <energy>
   <i name="e_fr_energy">    -18.46421952 </i>
   <i name="e_wo_entrp">    -18.46421807 </i>
   <i name="e_0_energy">     -0.00000290 </i>
  </energy>
  <time name="totalsc">   28.70   28.86</time>
 </calculation>
 <calculation>
  <scstep>
   <time name="dav">    4.03    4.03</time>
   <time name="total">    4.46    4.48</time>
   <energy>
    <i name="alphaZ">      3.13611264 </i>
    <i name="ewald">   1303.03375895 </i>
    <i name="hartreedc">  -1550.04882696 </i>
    <i name="XCdc">     27.59288853 </i>
    <i name="pawpsdc">    847.84396367 </i>
    <i name="pawaedc">   -849.20530151 </i>
    <i name="eentropy">     -0.00000296 </i>
    <i name="bandstr">    -95.12565959 </i>
    <i name="atom">    294.30884690 </i>
    <i name="e_fr_energy">    -18.46422033 </i>
    <i name="e_wo_entrp">    -18.46421737 </i>
    <i name="e_0_energy">    -18.46421885 </i>
   </energy>
  </scstep>
  <scstep>
   <time name="dav">    4.41    4.43</time>
   <time name="total">    4.84    4.85</time>
   <energy>
    <i name="e_fr_energy">    -18.46422026 </i>
    <i name="e_wo_entrp">    -18.46421730 </i>
    <i name="e_0_energy">    -18.46421878 </i>
   </energy>
  </scstep>
  <scstep>
   <time name="dav">    4.55    4.56</time>
   <time name="total">    4.97    4.98</time>
   <energy>
    <i name="e_fr_energy">    -18.46422023 </i>
    <i name="e_wo_entrp">    -18.46421727 </i>
    <i name="e_0_energy">    -18.46421875 </i>
   </energy>
  </scstep>
  <scstep>
   <time name="dav">    4.39    4.40</time>
   <time name="total">    4.81    4.82</time>
   <energy>
    <i name="e_fr_energy">    -18.46422023 </i>
    <i name="e_wo_entrp">    -18.46421727 </i>
    <i name="e_0_energy">    -18.46421875 </i>
   </energy>
  </scstep>
  <scstep>
   <time name="dav">    4.29    4.30</time>
   <time name="total">    4.39    4.41</time>
   <energy>
    <i name="alphaZ">      3.13611264 </i>
    <i name="ewald">   1303.03375895 </i>
    <i name="hartreedc">  -1550.04879600 </i>
    <i name="XCdc">     27.59288818 </i>
    <i name="pawpsdc">    847.84447286 </i>
    <i name="pawaedc">   -849.20581061 </i>
    <i name="eentropy">     -0.00000296 </i>
    <i name="bandstr">    -95.12569018 </i>
    <i name="atom">    294.30884690 </i>
    <i name="e_fr_energy">    -18.46422023 </i>
    <i name="e_wo_entrp">    -18.46421727 </i>
    <i name="e_0_energy">    -18.46421875 </i>
   </energy>
  </scstep>
  <structure>
   <crystal>
    <varray name="basis" >
     <v>       2.13000000      -1.22975600       0.00000000 </v>
     <v>       2.13000000       1.22975600       0.00000000 </v>
     <v>       0.00000000       0.00000000      20.00000000 </v>
    </varray>
    <i name="volume">    104.77521120 </i>
    <varray name="rec_basis" >
     <v>       0.23474178      -0.40658472       0.00000000 </v>
     <v>       0.23474178       0.40658472       0.00000000 </v>
     <v>       0.00000000       0.00000000       0.05000000 </v>
    </varray>
   </crystal>
   <varray name="positions" >
    <v>       0.00443597       0.01046387       0.00000000 </v>
    <v>       0.33889703       0.34286913      -0.00000000 </v>
   </varray>
  </structure>
  <varray name="forces" >
   <v>       0.01401266      -0.08257743      -0.00000000 </v>
   <v>      -0.01401266       0.08257743       0.00000000 </v>
  </varray>
  <varray name="stress" >
   <v>       6.41509908       0.36164361       0.00000000 </v>
   <v>       0.36164360       6.29429375       0.00000000 </v>
   <v>       0.00000000       0.00000000      -0.34357020 </v>
  </varray>
  <energy>
   <i name="e_fr_energy">    -18.46422023 </i>
   <i name="e_wo_entrp">    -18.46421875 </i>
   <i name="e_0_energy">     -0.00000296 </i>
  </energy>
  <time name="totalsc">   27.46   27.61</time>
 </calculation>
 <calculation>
  <scstep>
   <time name="dav">    3.98    3.99</time>
   <time name="total">    4.41    4.44</time>
   <energy>
    <i name="alphaZ">      3.13611264 </i>
    <i name="ewald">   1303.03474024 </i>
    <i name="hartreedc">  -1550.04856819 </i>
    <i name="XCdc">     27.59286969 </i>
    <i name="pawpsdc">    847.84313815 </i>
    <i name="pawaedc">   -849.20447591 </i>
    <i name="eentropy">     -0.00000000 </i>
    <i name="bandstr">    -95.12682123 </i>
    <i name="atom">    294.30884690 </i>
    <i name="e_fr_energy">    -18.46415772 </i>
    <i name="e_wo_entrp">    -18.46415771 </i>
    <i name="e_0_energy">    -18.46415771 </i>
   </energy>
  </scstep>
  <scstep>
   <time name="dav">    4.67    4.69</time>
   <time name="total">    5.10    5.12</time>
   <energy>
    <i name="e_fr_energy">    -18.46406270 </i>
    <i name="e_wo_entrp">    -18.46406270 </i>
    <i name="e_0_energy">    -18.46406270 </i>
   </energy>
  </scstep>
  <scstep>
   <time name="dav">    4.62    4.63</time>
   <time name="total">    5.04    5.05</time>
   <energy>
    <i name="e_fr_energy">    -18.46400973 </i>
    <i name="e_wo_entrp">    -18.46400971 </i>
    <i name="e_0_energy">    -18.46400972 </i>
   </energy>
  </scstep>
  <scstep>
   <time name="dav">    4.67    4.68</time>
   <time name="total">    5.09    5.10</time>
   <energy>
    <i name="e_fr_energy">    -18.46401163 </i>
    <i name="e_wo_entrp">    -18.46401160 </i>
    <i name="e_0_energy">    -18.46401161 </i>
   </energy>
  </scstep>
  <scstep>
   <time name="dav">    4.39    4.40</time>
   <time name="total">    4.81    4.82</time>
   <energy>
    <i name="e_fr_energy">    -18.46401168 </i>
    <i name="e_wo_entrp">    -18.46401165 </i>
    <i name="e_0_energy">    -18.46401166 </i>
   </energy>
  </scstep>
  <scstep>
   <time name="dav">    4.93    4.95</time>
   <time name="total">    5.04    5.05</time>
   <energy>
    <i name="alphaZ">      3.13611264 </i>
    <i name="ewald">   1303.03474024 </i>
    <i name="hartreedc">  -1550.04946846 </i>
    <i name="XCdc">     27.59292602 </i>
    <i name="pawpsdc">    847.85602601 </i>
    <i name="pawaedc">   -849.21737118 </i>
    <i name="eentropy">     -0.00000002 </i>
    <i name="bandstr">    -95.12582382 </i>
    <i name="atom">    294.30884690 </i>
    <i name="e_fr_energy">    -18.46401168 </i>
    <i name="e_wo_entrp">    -18.46401166 </i>
    <i name="e_0_energy">    -18.46401167 </i>
   </energy>
  </scstep>
  <structure>
   <crystal>
    <varray name="basis" >
     <v>       2.13000000      -1.22975600       0.00000000 </v>
     <v>       2.13000000       1.22975600       0.00000000 </v>
     <v>       0.00000000       0.00000000      20.00000000 </v>
    </varray>
    <i name="volume">    104.77521120 </i>
    <varray name="rec_basis" >
     <v>       0.23474178      -0.40658472       0.00000000 </v>
     <v>       0.23474178       0.40658472       0.00000000 </v>
     <v>       0.00000000       0.00000000       0.05000000 </v>
    </varray>
   </crystal>
   <varray name="positions" >
    <v>       0.00589876       0.00920466      -0.00000000 </v>
    <v>       0.33743424       0.34412834       0.00000000 </v>
   </varray>
  </structure>
  <varray name="forces" >
   <v>      -0.01763881       0.17255045      -0.00000000 </v>
   <v>       0.01763881      -0.17255045       0.00000000 </v>
  </varray>
  <varray name="stress" >
   <v>       6.35817105      -0.05302651       0.00000000 </v>
   <v>      -0.05302650       6.37408360       0.00000000 </v>
   <v>       0.00000000       0.00000000      -0.34248302 </v>
  </varray>
  <energy>
   <i name="e_fr_energy">    -18.46401168 </i>
   <i name="e_wo_entrp">    -18.46401167 </i>
   <i name="e_0_energy">     -0.00000002 </i>
  </energy>
  <time name="totalsc">   33.48   33.66</time>
 </calculation>
 <calculation>
  <scstep>
   <time name="dav">    3.98    3.99</time>
   <time name="total">    4.41    4.44</time>
   <energy>
    <i name="alphaZ">      3.13611264 </i>
    <i name="ewald">   1303.03317236 </i>
    <i name="hartreedc">  -1550.04892140 </i>
    <i name="XCdc">     27.59288665 </i>
    <i name="pawpsdc">    847.85903544 </i>
    <i name="pawaedc">   -849.22038191 </i>
    <i name="eentropy">     -0.00004961 </i>
    <i name="bandstr">    -95.12504893 </i>
    <i name="atom">    294.30884690 </i>
    <i name="e_fr_energy">    -18.46434785 </i>
    <i name="e_wo_entrp">    -18.46429825 </i>
    <i name="e_0_energy">    -18.46432305 </i>
   </energy>
  </scstep>
  <scstep>
   <time name="dav">    4.60    4.61</time>
   <time name="total">    5.02    5.04</time>
   <energy>
    <i name="e_fr_energy">    -18.46431549 </i>
    <i name="e_wo_entrp">    -18.46426455 </i>
    <i name="e_0_energy">    -18.46429002 </i>
   </energy>
  </scstep>
  <scstep>
   <time name="dav">    4.72    4.73</time>
   <time name="total">    5.14    5.16</time>
   <energy>
    <i name="e_fr_energy">    -18.46429979 </i>
    <i name="e_wo_entrp">    -18.46424947 </i>
    <i name="e_0_energy">    -18.46427463 </i>
   </energy>
  </scstep>
  <scstep>
   <time name="dav">    5.10    5.11</time>
   <time name="total">    5.52    5.53</time>
   <energy>
    <i name="e_fr_energy">    -18.46430030 </i>
    <i name="e_wo_entrp">    -18.46424996 </i>
    <i name="e_0_energy">    -18.46427513 </i>
   </energy>
  </scstep>
  <scstep>
   <time name="dav">    4.85    4.86</time>
   <time name="total">    4.96    4.97</time>
   <energy>
    <i name="alphaZ">      3.13611264 </i>
    <i name="ewald">   1303.03317236 </i>
    <i name="hartreedc">  -1550.04830492 </i>
    <i name="XCdc">     27.59286013 </i>
    <i name="pawpsdc">    847.83543024 </i>
    <i name="pawaedc">   -849.19676306 </i>
    <i name="eentropy">     -0.00005038 </i>
    <i name="bandstr">    -95.12560421 </i>
    <i name="atom">    294.30884690 </i>
    <i name="e_fr_energy">    -18.46430029 </i>
    <i name="e_wo_entrp">    -18.46424991 </i>
    <i name="e_0_energy">    -18.46427510 </i>
   </energy>
  </scstep>
  <structure>
   <crystal>
    <varray name="basis" >
     <v>       2.13000000      -1.22975600       0.00000000 </v>
     <v>       2.13000000       1.22975600       0.00000000 </v>
     <v>       0.00000000       0.00000000      20.00000000 </v>
    </varray>
    <i name="volume">    104.77521120 </i>
    <varray name="rec_basis" >
     <v>       0.23474178      -0.40658472       0.00000000 </v>
     <v>       0.23474178       0.40658472       0.00000000 </v>
     <v>       0.00000000       0.00000000       0.05000000 </v>
    </varray>
   </crystal>
   <varray name="positions" >
    <v>       0.00502689       0.00995519      -0.00000000 </v>
    <v>       0.33830611       0.34337781       0.00000000 </v>
   </varray>
  </structure>
  <varray name="forces" >
   <v>       0.00092546       0.00184106      -0.00000000 </v>
   <v>      -0.00092546      -0.00184106       0.00000000 </v>
  </varray>
  <varray name="stress" >
   <v>       6.38134117      -0.08787118       0.00000000 </v>
   <v>      -0.08787121       6.31622509       0.00000000 </v>
   <v>       0.00000000       0.00000000      -0.34405740 </v>
  </varray>
  <energy>
   <i name="e_fr_energy">    -18.46430029 </i>
   <i name="e_wo_entrp">    -18.46427510 </i>
   <i name="e_0_energy">     -0.00005038 </i>
[...]
       <r>    10.2939     0.0000    16.0000 </r>
       <r>    10.2979     0.0000    16.0000 </r>
       <r>    10.3019     0.0000    16.0000 </r>
       <r>    10.3058     0.0000    16.0000 </r>
       <r>    10.3098     0.0000    16.0000 </r>
       <r>    10.3138     0.0000    16.0000 </r>
       <r>    10.3178     0.0000    16.0000 </r>
       <r>    10.3217     0.0000    16.0000 </r>
       <r>    10.3257     0.0000    16.0000 </r>
       <r>    10.3297     0.0000    16.0000 </r>
       <r>    10.3337     0.0000    16.0000 </r>
       <r>    10.3376     0.0000    16.0000 </r>
       <r>    10.3416     0.0000    16.0000 </r>
       <r>    10.3456     0.0000    16.0000 </r>
       <r>    10.3496     0.0000    16.0000 </r>
       <r>    10.3535     0.0000    16.0000 </r>
       <r>    10.3575     0.0000    16.0000 </r>
       <r>    10.3615     0.0000    16.0000 </r>
       <r>    10.3655     0.0000    16.0000 </r>
       <r>    10.3694     0.0000    16.0000 </r>
       <r>    10.3734     0.0000    16.0000 </r>
       <r>    10.3774     0.0000    16.0000 </r>
       <r>    10.3814     0.0000    16.0000 </r>
       <r>    10.3853     0.0000    16.0000 </r>
       <r>    10.3893     0.0000    16.0000 </r>
       <r>    10.3933     0.0000    16.0000 </r>
       <r>    10.3973     0.0000    16.0000 </r>
       <r>    10.4012     0.0000    16.0000 </r>
       <r>    10.4052     0.0000    16.0000 </r>
       <r>    10.4092     0.0000    16.0000 </r>
       <r>    10.4132     0.0000    16.0000 </r>
       <r>    10.4171     0.0000    16.0000 </r>
       <r>    10.4211     0.0000    16.0000 </r>
       <r>    10.4251     0.0000    16.0000 </r>
       <r>    10.4291     0.0000    16.0000 </r>
       <r>    10.4330     0.0000    16.0000 </r>
       <r>    10.4370     0.0000    16.0000 </r>
       <r>    10.4410     0.0000    16.0000 </r>
       <r>    10.4449     0.0000    16.0000 </r>
       <r>    10.4489     0.0000    16.0000 </r>
       <r>    10.4529     0.0000    16.0000 </r>
       <r>    10.4569     0.0000    16.0000 </r>
       <r>    10.4608     0.0000    16.0000 </r>
       <r>    10.4648     0.0000    16.0000 </r>
       <r>    10.4688     0.0000    16.0000 </r>
       <r>    10.4728     0.0000    16.0000 </r>
       <r>    10.4767     0.0000    16.0000 </r>
       <r>    10.4807     0.0000    16.0000 </r>
       <r>    10.4847     0.0000    16.0000 </r>
       <r>    10.4887     0.0000    16.0000 </r>
       <r>    10.4926     0.0000    16.0000 </r>
       <r>    10.4966     0.0000    16.0000 </r>
       <r>    10.5006     0.0000    16.0000 </r>
       <r>    10.5046     0.0000    16.0000 </r>
       <r>    10.5085     0.0000    16.0000 </r>
       <r>    10.5125     0.0000    16.0000 </r>
       <r>    10.5165     0.0000    16.0000 </r>
       <r>    10.5205     0.0000    16.0000 </r>
       <r>    10.5244     0.0000    16.0000 </r>
       <r>    10.5284     0.0000    16.0000 </r>
       <r>    10.5324     0.0000    16.0000 </r>
       <r>    10.5364     0.0000    16.0000 </r>
       <r>    10.5403     0.0000    16.0000 </r>
       <r>    10.5443     0.0000    16.0000 </r>
       <r>    10.5483     0.0000    16.0000 </r>
       <r>    10.5523     0.0000    16.0000 </r>
       <r>    10.5562     0.0000    16.0000 </r>
       <r>    10.5602     0.0000    16.0000 </r>
       <r>    10.5642     0.0000    16.0000 </r>
       <r>    10.5682     0.0000    16.0000 </r>
       <r>    10.5721     0.0000    16.0000 </r>
       <r>    10.5761     0.0000    16.0000 </r>
       <r>    10.5801     0.0000    16.0000 </r>
       <r>    10.5841     0.0000    16.0000 </r>
       <r>    10.5880     0.0000    16.0000 </r>
       <r>    10.5920     0.0000    16.0000 </r>
       <r>    10.5960     0.0000    16.0000 </r>
       <r>    10.5999     0.0000    16.0000 </r>
       <r>    10.6039     0.0000    16.0000 </r>
       <r>    10.6079     0.0000    16.0000 </r>
       <r>    10.6119     0.0000    16.0000 </r>
       <r>    10.6158     0.0000    16.0000 </r>
       <r>    10.6198     0.0000    16.0000 </r>
       <r>    10.6238     0.0000    16.0000 </r>
       <r>    10.6278     0.0000    16.0000 </r>
       <r>    10.6317     0.0000    16.0000 </r>
       <r>    10.6357     0.0000    16.0000 </r>
       <r>    10.6397     0.0000    16.0000 </r>
       <r>    10.6437     0.0000    16.0000 </r>
       <r>    10.6476     0.0000    16.0000 </r>
       <r>    10.6516     0.0000    16.0000 </r>
       <r>    10.6556     0.0000    16.0000 </r>
       <r>    10.6596     0.0000    16.0000 </r>
       <r>    10.6635     0.0000    16.0000 </r>
       <r>    10.6675     0.0000    16.0000 </r>
       <r>    10.6715     0.0000    16.0000 </r>
       <r>    10.6755     0.0000    16.0000 </r>
       <r>    10.6794     0.0000    16.0000 </r>
       <r>    10.6834     0.0000    16.0000 </r>
       <r>    10.6874     0.0000    16.0000 </r>
       <r>    10.6914     0.0000    16.0000 </r>
       <r>    10.6953     0.0000    16.0000 </r>
       <r>    10.6993     0.0000    16.0000 </r>
       <r>    10.7033     0.0000    16.0000 </r>
       <r>    10.7073     0.0000    16.0000 </r>
       <r>    10.7112     0.0000    16.0000 </r>
       <r>    10.7152     0.0000    16.0000 </r>
       <r>    10.7192     0.0000    16.0000 </r>
       <r>    10.7232     0.0000    16.0000 </r>
       <r>    10.7271     0.0000    16.0000 </r>
       <r>    10.7311     0.0000    16.0000 </r>
       <r>    10.7351     0.0000    16.0000 </r>
       <r>    10.7390     0.0000    16.0000 </r>
       <r>    10.7430     0.0000    16.0000 </r>
       <r>    10.7470     0.0000    16.0000 </r>
       <r>    10.7510     0.0000    16.0000 </r>
       <r>    10.7549     0.0000    16.0000 </r>
       <r>    10.7589     0.0000    16.0000 </r>
       <r>    10.7629     0.0000    16.0000 </r>
       <r>    10.7669     0.0000    16.0000 </r>
       <r>    10.7708     0.0000    16.0000 </r>
       <r>    10.7748     0.0000    16.0000 </r>
       <r>    10.7788     0.0000    16.0000 </r>
       <r>    10.7828     0.0000    16.0000 </r>
       <r>    10.7867     0.0000    16.0000 </r>
       <r>    10.7907     0.0000    16.0000 </r>
       <r>    10.7947     0.0000    16.0000 </r>
       <r>    10.7987     0.0000    16.0000 </r>
       <r>    10.8026     0.0000    16.0000 </r>
       <r>    10.8066     0.0000    16.0000 </r>
       <r>    10.8106     0.0000    16.0000 </r>
       <r>    10.8146     0.0000    16.0000 </r>
       <r>    10.8185     0.0000    16.0000 </r>
       <r>    10.8225     0.0000    16.0000 </r>
       <r>    10.8265     0.0000    16.0000 </r>
       <r>    10.8305     0.0000    16.0000 </r>
       <r>    10.8344     0.0000    16.0000 </r>
       <r>    10.8384     0.0000    16.0000 </r>
       <r>    10.8424     0.0000    16.0000 </r>
       <r>    10.8464     0.0000    16.0000 </r>
       <r>    10.8503     0.0000    16.0000 </r>
       <r>    10.8543     0.0000    16.0000 </r>
       <r>    10.8583     0.0000    16.0000 </r>
       <r>    10.8623     0.0000    16.0000 </r>
       <r>    10.8662     0.0000    16.0000 </r>
       <r>    10.8702     0.0000    16.0000 </r>
       <r>    10.8742     0.0000    16.0000 </r>
       <r>    10.8782     0.0000    16.0000 </r>
       <r>    10.8821     0.0000    16.0000 </r>
       <r>    10.8861     0.0000    16.0000 </r>
       <r>    10.8901     0.0000    16.0000 </r>
       <r>    10.8940     0.0000    16.0000 </r>
       <r>    10.8980     0.0000    16.0000 </r>
       <r>    10.9020     0.0000    16.0000 </r>
       <r>    10.9060     0.0000    16.0000 </r>
       <r>    10.9099     0.0000    16.0000 </r>
       <r>    10.9139     0.0000    16.0000 </r>
       <r>    10.9179     0.0000    16.0000 </r>
       <r>    10.9219     0.0000    16.0000 </r>
       <r>    10.9258     0.0000    16.0000 </r>
       <r>    10.9298     0.0000    16.0000 </r>
       <r>    10.9338     0.0000    16.0000 </r>
       <r>    10.9378     0.0000    16.0000 </r>
       <r>    10.9417     0.0000    16.0000 </r>
       <r>    10.9457     0.0000    16.0000 </r>
       <r>    10.9497     0.0000    16.0000 </r>
       <r>    10.9537     0.0000    16.0000 </r>
       <r>    10.9576     0.0000    16.0000 </r>
       <r>    10.9616     0.0000    16.0000 </r>
       <r>    10.9656     0.0000    16.0000 </r>
       <r>    10.9696     0.0000    16.0000 </r>
       <r>    10.9735     0.0000    16.0000 </r>
       <r>    10.9775     0.0000    16.0000 </r>
       <r>    10.9815     0.0000    16.0000 </r>
       <r>    10.9855     0.0000    16.0000 </r>
       <r>    10.9894     0.0000    16.0000 </r>
       <r>    10.9934     0.0000    16.0000 </r>
       <r>    10.9974     0.0000    16.0000 </r>
       <r>    11.0014     0.0000    16.0000 </r>
       <r>    11.0053     0.0000    16.0000 </r>
       <r>    11.0093     0.0000    16.0000 </r>
       <r>    11.0133     0.0000    16.0000 </r>
       <r>    11.0173     0.0000    16.0000 </r>
       <r>    11.0212     0.0000    16.0000 </r>
       <r>    11.0252     0.0000    16.0000 </r>
       <r>    11.0292     0.0000    16.0000 </r>
       <r>    11.0331     0.0000    16.0000 </r>
       <r>    11.0371     0.0000    16.0000 </r>
       <r>    11.0411     0.0000    16.0000 </r>
       <r>    11.0451     0.0000    16.0000 </r>
       <r>    11.0490     0.0000    16.0000 </r>
       <r>    11.0530     0.0000    16.0000 </r>
       <r>    11.0570     0.0000    16.0000 </r>
       <r>    11.0610     0.0000    16.0000 </r>
       <r>    11.0649     0.0000    16.0000 </r>
       <r>    11.0689     0.0000    16.0000 </r>
       <r>    11.0729     0.0000    16.0000 </r>
       <r>    11.0769     0.0000    16.0000 </r>
       <r>    11.0808     0.0000    16.0000 </r>
       <r>    11.0848     0.0000    16.0000 </r>
       <r>    11.0888     0.0000    16.0000 </r>
       <r>    11.0928     0.0000    16.0000 </r>
       <r>    11.0967     0.0000    16.0000 </r>
       <r>    11.1007     0.0000    16.0000 </r>
       <r>    11.1047     0.0000    16.0000 </r>
       <r>    11.1087     0.0000    16.0000 </r>
       <r>    11.1126     0.0000    16.0000 </r>
       <r>    11.1166     0.0000    16.0000 </r>
       <r>    11.1206     0.0000    16.0000 </r>
       <r>    11.1246     0.0000    16.0000 </r>
       <r>    11.1285     0.0000    16.0000 </r>
       <r>    11.1325     0.0000    16.0000 </r>
       <r>    11.1365     0.0000    16.0000 </r>
       <r>    11.1405     0.0000    16.0000 </r>
       <r>    11.1444     0.0000    16.0000 </r>
       <r>    11.1484     0.0000    16.0000 </r>
       <r>    11.1524     0.0000    16.0000 </r>
       <r>    11.1564     0.0000    16.0000 </r>
       <r>    11.1603     0.0000    16.0000 </r>
       <r>    11.1643     0.0000    16.0000 </r>
       <r>    11.1683     0.0000    16.0000 </r>
       <r>    11.1723     0.0000    16.0000 </r>
       <r>    11.1762     0.0000    16.0000 </r>
       <r>    11.1802     0.0000    16.0000 </r>
       <r>    11.1842     0.0000    16.0000 </r>
       <r>    11.1881     0.0000    16.0000 </r>
       <r>    11.1921     0.0000    16.0000 </r>
       <r>    11.1961     0.0000    16.0000 </r>
       <r>    11.2001     0.0000    16.0000 </r>
       <r>    11.2040     0.0000    16.0000 </r>
       <r>    11.2080     0.0000    16.0000 </r>
       <r>    11.2120     0.0000    16.0000 </r>
       <r>    11.2160     0.0000    16.0000 </r>
       <r>    11.2199     0.0000    16.0000 </r>
       <r>    11.2239     0.0000    16.0000 </r>
       <r>    11.2279     0.0000    16.0000 </r>
       <r>    11.2319     0.0000    16.0000 </r>
       <r>    11.2358     0.0000    16.0000 </r>
       <r>    11.2398     0.0000    16.0000 </r>
       <r>    11.2438     0.0000    16.0000 </r>
       <r>    11.2478     0.0000    16.0000 </r>
       <r>    11.2517     0.0000    16.0000 </r>
       <r>    11.2557     0.0000    16.0000 </r>
       <r>    11.2597     0.0000    16.0000 </r>
       <r>    11.2637     0.0000    16.0000 </r>
       <r>    11.2676     0.0000    16.0000 </r>
       <r>    11.2716     0.0000    16.0000 </r>
       <r>    11.2756     0.0000    16.0000 </r>
       <r>    11.2796     0.0000    16.0000 </r>
       <r>    11.2835     0.0000    16.0000 </r>
       <r>    11.2875     0.0000    16.0000 </r>
       <r>    11.2915     0.0000    16.0000 </r>
       <r>    11.2955     0.0000    16.0000 </r>
       <r>    11.2994     0.0000    16.0000 </r>
       <r>    11.3034     0.0000    16.0000 </r>
       <r>    11.3074     0.0000    16.0000 </r>
       <r>    11.3114     0.0000    16.0000 </r>
       <r>    11.3153     0.0000    16.0000 </r>
       <r>    11.3193     0.0000    16.0000 </r>
       <r>    11.3233     0.0000    16.0000 </r>
       <r>    11.3272     0.0000    16.0000 </r>
       <r>    11.3312     0.0000    16.0000 </r>
       <r>    11.3352     0.0000    16.0000 </r>
       <r>    11.3392     0.0000    16.0000 </r>
       <r>    11.3431     0.0000    16.0000 </r>
       <r>    11.3471     0.0000    16.0000 </r>
       <r>    11.3511     0.0000    16.0000 </r>
       <r>    11.3551     0.0000    16.0000 </r>
       <r>    11.3590     0.0000    16.0000 </r>
       <r>    11.3630     0.0000    16.0000 </r>
       <r>    11.3670     0.0000    16.0000 </r>
       <r>    11.3710     0.0000    16.0000 </r>
       <r>    11.3749     0.0000    16.0000 </r>
       <r>    11.3789     0.0000    16.0000 </r>
       <r>    11.3829     0.0000    16.0000 </r>
       <r>    11.3869     0.0000    16.0000 </r>
       <r>    11.3908     0.0000    16.0000 </r>
       <r>    11.3948     0.0000    16.0000 </r>
       <r>    11.3988     0.0000    16.0000 </r>
       <r>    11.4028     0.0000    16.0000 </r>
       <r>    11.4067     0.0000    16.0000 </r>
       <r>    11.4107     0.0000    16.0000 </r>
       <r>    11.4147     0.0000    16.0000 </r>
       <r>    11.4187     0.0000    16.0000 </r>
       <r>    11.4226     0.0000    16.0000 </r>
       <r>    11.4266     0.0000    16.0000 </r>
       <r>    11.4306     0.0000    16.0000 </r>
       <r>    11.4346     0.0000    16.0000 </r>
       <r>    11.4385     0.0000    16.0000 </r>
       <r>    11.4425     0.0000    16.0000 </r>
       <r>    11.4465     0.0000    16.0000 </r>
       <r>    11.4505     0.0000    16.0000 </r>
       <r>    11.4544     0.0000    16.0000 </r>
       <r>    11.4584     0.0000    16.0000 </r>
       <r>    11.4624     0.0000    16.0000 </r>
       <r>    11.4664     0.0000    16.0000 </r>
       <r>    11.4703     0.0000    16.0000 </r>
       <r>    11.4743     0.0000    16.0000 </r>
       <r>    11.4783     0.0000    16.0000 </r>
       <r>    11.4822     0.0000    16.0000 </r>
       <r>    11.4862     0.0000    16.0000 </r>
       <r>    11.4902     0.0000    16.0000 </r>
       <r>    11.4942     0.0000    16.0000 </r>
       <r>    11.4981     0.0000    16.0000 </r>
       <r>    11.5021     0.0000    16.0000 </r>
       <r>    11.5061     0.0000    16.0000 </r>
       <r>    11.5101     0.0000    16.0000 </r>
       <r>    11.5140     0.0000    16.0000 </r>
       <r>    11.5180     0.0000    16.0000 </r>
       <r>    11.5220     0.0000    16.0000 </r>
       <r>    11.5260     0.0000    16.0000 </r>
       <r>    11.5299     0.0000    16.0000 </r>
       <r>    11.5339     0.0000    16.0000 </r>
       <r>    11.5379     0.0000    16.0000 </r>
       <r>    11.5419     0.0000    16.0000 </r>
       <r>    11.5458     0.0000    16.0000 </r>
       <r>    11.5498     0.0000    16.0000 </r>
       <r>    11.5538     0.0000    16.0000 </r>
       <r>    11.5578     0.0000    16.0000 </r>
       <r>    11.5617     0.0000    16.0000 </r>
       <r>    11.5657     0.0000    16.0000 </r>
       <r>    11.5697     0.0000    16.0000 </r>
       <r>    11.5737     0.0000    16.0000 </r>
       <r>    11.5776     0.0000    16.0000 </r>
       <r>    11.5816     0.0000    16.0000 </r>
       <r>    11.5856     0.0000    16.0000 </r>
       <r>    11.5896     0.0000    16.0000 </r>
       <r>    11.5935     0.0000    16.0000 </r>
       <r>    11.5975     0.0000    16.0000 </r>
       <r>    11.6015     0.0000    16.0000 </r>
       <r>    11.6055     0.0000    16.0000 </r>
       <r>    11.6094     0.0000    16.0000 </r>
       <r>    11.6134     0.0000    16.0000 </r>
       <r>    11.6174     0.0000    16.0000 </r>
       <r>    11.6213     0.0000    16.0000 </r>
       <r>    11.6253     0.0000    16.0000 </r>
       <r>    11.6293     0.0000    16.0000 </r>
       <r>    11.6333     0.0000    16.0000 </r>
       <r>    11.6372     0.0000    16.0000 </r>
       <r>    11.6412     0.0000    16.0000 </r>
       <r>    11.6452     0.0000    16.0000 </r>
       <r>    11.6492     0.0000    16.0000 </r>
       <r>    11.6531     0.0000    16.0000 </r>
       <r>    11.6571     0.0000    16.0000 </r>
       <r>    11.6611     0.0000    16.0000 </r>
       <r>    11.6651     0.0000    16.0000 </r>
       <r>    11.6690     0.0000    16.0000 </r>
       <r>    11.6730     0.0000    16.0000 </r>
       <r>    11.6770     0.0000    16.0000 </r>
       <r>    11.6810     0.0000    16.0000 </r>
       <r>    11.6849     0.0000    16.0000 </r>
       <r>    11.6889     0.0000    16.0000 </r>
       <r>    11.6929     0.0000    16.0000 </r>
       <r>    11.6969     0.0000    16.0000 </r>
       <r>    11.7008     0.0000    16.0000 </r>
       <r>    11.7048     0.0000    16.0000 </r>
       <r>    11.7088     0.0000    16.0000 </r>
       <r>    11.7128     0.0000    16.0000 </r>
       <r>    11.7167     0.0000    16.0000 </r>
       <r>    11.7207     0.0000    16.0000 </r>
       <r>    11.7247     0.0000    16.0000 </r>
       <r>    11.7287     0.0000    16.0000 </r>
       <r>    11.7326     0.0000    16.0000 </r>
       <r>    11.7366     0.0000    16.0000 </r>
       <r>    11.7406     0.0000    16.0000 </r>
       <r>    11.7446     0.0000    16.0000 </r>
       <r>    11.7485     0.0000    16.0000 </r>
       <r>    11.7525     0.0000    16.0000 </r>
       <r>    11.7565     0.0000    16.0000 </r>
       <r>    11.7605     0.0000    16.0000 </r>
       <r>    11.7644     0.0000    16.0000 </r>
       <r>    11.7684     0.0000    16.0000 </r>
       <r>    11.7724     0.0000    16.0000 </r>
       <r>    11.7763     0.0000    16.0000 </r>
       <r>    11.7803     0.0000    16.0000 </r>
       <r>    11.7843     0.0000    16.0000 </r>
       <r>    11.7883     0.0000    16.0000 </r>
       <r>    11.7922     0.0000    16.0000 </r>
       <r>    11.7962     0.0000    16.0000 </r>
       <r>    11.8002     0.0000    16.0000 </r>
       <r>    11.8042     0.0000    16.0000 </r>
       <r>    11.8081     0.0000    16.0000 </r>
       <r>    11.8121     0.0000    16.0000 </r>
       <r>    11.8161     0.0000    16.0000 </r>
       <r>    11.8201     0.0000    16.0000 </r>
       <r>    11.8240     0.0000    16.0000 </r>
       <r>    11.8280     0.0000    16.0000 </r>
       <r>    11.8320     0.0000    16.0000 </r>
       <r>    11.8360     0.0000    16.0000 </r>
       <r>    11.8399     0.0000    16.0000 </r>
       <r>    11.8439     0.0000    16.0000 </r>
      </set>
     </set>
    </array>
   </total>
  </dos>
 </calculation>
 <structure name="finalpos" >
  <crystal>
   <varray name="basis" >
    <v>       2.13000000      -1.22975600       0.00000000 </v>
    <v>       2.13000000       1.22975600       0.00000000 </v>
    <v>       0.00000000       0.00000000      20.00000000 </v>
   </varray>
   <i name="volume">    104.77521120 </i>
   <varray name="rec_basis" >
    <v>       0.23474178      -0.40658472       0.00000000 </v>
    <v>       0.23474178       0.40658472       0.00000000 </v>
    <v>       0.00000000       0.00000000       0.05000000 </v>
   </varray>
  </crystal>
  <varray name="positions" >
   <v>       0.00500175       0.01000089      -0.00000000 </v>
   <v>       0.33833125       0.34333211       0.00000000 </v>
  </varray>
 </structure>
</modeling>
