18   
1    

1    
  0.0029975141742964  -0.0017306155121718   0.0093818909993627
  -0.1864760500    0.1065414700   -0.1333848700
   0.0128063700   -0.0118440600   -0.0048083100
   0.0163619500   -0.0048627400   -0.0046386800
   0.0053258000    0.0145028400   -0.0047406200
   0.0071930100   -0.0041068800    0.0020286000
  -0.0100341700   -0.0115483100   -0.0047061000
   0.0012899900    0.0075616300   -0.0046554800
  -0.0062037800   -0.0053040200   -0.0047905800
   0.0068748700   -0.0041055200    0.0020286600
   0.0748299200   -0.0188044500    0.0575786100
   0.0000893300   -0.0001682800   -0.0086711200
   0.0535527800   -0.0549206300    0.0583994600
  -0.0026367700    0.0049001600   -0.0086511000
  -0.0052331000    0.0000049800   -0.0086915200
   0.0069686600   -0.0037586700    0.0032359700
   0.0329652000   -0.0183523000    0.0579951900
  -0.0001522600    0.0082073100    0.0032298600
  -0.0075217500   -0.0039425300    0.0032420200