       N       E                     dE             d eps       ncg     rms          rms(c)
DAV:   1     0.141502820785E+04    0.14150E+04   -0.68446E+04 45084   0.167E+03
DAV:   2     0.197151208290E+02   -0.13953E+04   -0.13485E+04 74424   0.255E+02
DAV:   3    -0.195070142489E+03   -0.21479E+03   -0.21316E+03 53472   0.105E+02
DAV:   4    -0.203869053353E+03   -0.87989E+01   -0.87482E+01 60384   0.242E+01
DAV:   5    -0.204167683096E+03   -0.29863E+00   -0.29815E+00 69528   0.380E+00    0.161E+01
DAV:   6    -0.196819083503E+03    0.73486E+01   -0.41406E+01 65658   0.148E+01    0.606E+00
DAV:   7    -0.195220000036E+03    0.15991E+01   -0.82563E+00 62976   0.781E+00    0.383E+00
DAV:   8    -0.194746171345E+03    0.47383E+00   -0.15675E+00 53820   0.328E+00    0.799E-01
DAV:   9    -0.194730087846E+03    0.16083E-01   -0.26217E-01 65808   0.129E+00    0.479E-01
DAV:  10    -0.194701208945E+03    0.28879E-01   -0.11530E-01 65136   0.807E-01    0.284E-01
DAV:  11    -0.194695177800E+03    0.60311E-02   -0.88486E-03 65436   0.306E-01    0.141E-01
DAV:  12    -0.194690159305E+03    0.50185E-02   -0.73828E-03 66252   0.201E-01    0.110E-01
DAV:  13    -0.194680210154E+03    0.99492E-02   -0.98044E-03 55656   0.202E-01    0.831E-02
DAV:  14    -0.194678043017E+03    0.21671E-02   -0.24643E-03 66288   0.117E-01    0.671E-02
DAV:  15    -0.194673935343E+03    0.41077E-02   -0.19341E-03 55932   0.101E-01    0.650E-02
DAV:  16    -0.194674783581E+03   -0.84824E-03   -0.75979E-04 58740   0.672E-02    0.533E-02
DAV:  17    -0.194681277615E+03   -0.64940E-02   -0.20803E-03 57828   0.812E-02    0.424E-02
DAV:  18    -0.194686148893E+03   -0.48713E-02   -0.81021E-04 57828   0.586E-02    0.285E-02
DAV:  19    -0.194688564275E+03   -0.24154E-02   -0.32385E-04 58416   0.377E-02    0.158E-02
DAV:  20    -0.194689552986E+03   -0.98871E-03   -0.83322E-05 59256   0.215E-02    0.834E-03
DAV:  21    -0.194690294766E+03   -0.74178E-03   -0.53927E-05 57048   0.135E-02    0.484E-03
DAV:  22    -0.194690444885E+03   -0.15012E-03   -0.64459E-06 58752   0.551E-03    0.290E-03
DAV:  23    -0.194690496851E+03   -0.51965E-04   -0.16935E-06 56160   0.308E-03    0.162E-03
DAV:  24    -0.194690529421E+03   -0.32571E-04   -0.14140E-06 57108   0.223E-03    0.546E-04
DAV:  25    -0.194690537444E+03   -0.80226E-05   -0.20931E-07 58368   0.973E-04    0.311E-04
DAV:  26    -0.194690541871E+03   -0.44269E-05   -0.11997E-07 56220   0.592E-04    0.220E-04
DAV:  27    -0.194690542752E+03   -0.88159E-06   -0.88293E-09 54504   0.240E-04    0.166E-04
DAV:  28    -0.194690543426E+03   -0.67391E-06   -0.56500E-09 47940   0.165E-04    0.931E-05
DAV:  29    -0.194690543865E+03   -0.43818E-06   -0.73100E-09 51696   0.149E-04    0.201E-05
DAV:  30    -0.194690543923E+03   -0.58169E-07    0.56897E-09 42564   0.508E-05    0.133E-05
DAV:  31    -0.194690543951E+03   -0.28338E-07    0.61889E-09 38088   0.259E-05    0.119E-05
DAV:  32    -0.194690543963E+03   -0.11611E-07    0.63304E-09 38940   0.174E-05    0.884E-06
DAV:  33    -0.194690543969E+03   -0.61000E-08    0.63640E-09 38676   0.172E-05
   1 F= -.19469054E+03 E0= -.19469054E+03  d E =-.133609E-15
