<?xml version="1.0" encoding="ISO-8859-1"?>
<modeling>
 <generator>
  <i name="program" type="string">vasp </i>
  <i name="version" type="string">5.4.4.18Apr17-6-g9f103f2a35  </i>
  <i name="subversion" type="string">(build May 31 2018 21:15:54) complex            parallel </i>
  <i name="platform" type="string">c7_intel_O1 </i>
  <i name="date" type="string">2020 08 12 </i>
  <i name="time" type="string">15:18:09 </i>
 </generator>
 <incar>
  <i type="string" name="SYSTEM"> W-1, se-2</i>
  <i type="int" name="ISTART">     0</i>
  <i type="string" name="PREC">accurate</i>
  <i type="string" name="ALGO"> N</i>
  <i type="logical" name="ADDGRID"> T  </i>
  <i name="AMIN">      0.01000000</i>
  <i type="int" name="ICHARG">     2</i>
  <i type="int" name="NELMIN">     5</i>
  <i type="int" name="IBRION">    -1</i>
  <i name="EDIFF">      0.00000001</i>
  <i name="EDIFFG">     -0.00000001</i>
  <i type="int" name="NSW">     0</i>
  <i name="SYMPREC">      0.00010000</i>
  <i name="ENCUT">    800.00000000</i>
  <i type="logical" name="LREAL"> F  </i>
  <i type="int" name="ISMEAR">     0</i>
  <i name="SIGMA">      0.01000000</i>
  <i type="logical" name="LWAVE"> F  </i>
  <i type="logical" name="LCHARG"> F  </i>
  <v type="int" name="KPOINT_BSE">    -1     0     0     0</v>
 </incar>
 <structure name="primitive_cell" >
  <crystal>
   <varray name="basis" >
    <v>       9.84600000       0.00000000       0.00000000 </v>
    <v>       4.92300000       8.52144000       0.00000000 </v>
    <v>       0.00000000       0.00000000      20.00000000 </v>
   </varray>
   <i name="volume">   1678.04196480 </i>
   <varray name="rec_basis" >
    <v>       0.10156409      -0.05867553       0.00000000 </v>
    <v>       0.00000000       0.11735106       0.00000000 </v>
    <v>       0.00000000       0.00000000       0.05000000 </v>
   </varray>
  </crystal>
  <varray name="positions" >
   <v>       0.33330000      -0.00038200      -0.00044900 </v>
   <v>       0.44442600      -0.22218500      -0.08454100 </v>
   <v>       0.11109200       0.11114900      -0.08454100 </v>
   <v>       0.44442600       0.11114900      -0.08454100 </v>
   <v>       0.44442600      -0.22218500       0.08454100 </v>
   <v>       0.11109200       0.11114900       0.08454100 </v>
   <v>       0.44442600       0.11114900       0.08454100 </v>
   <v>       0.33330000      -0.33326700       0.00000000 </v>
   <v>      -0.33336700      -0.33326700       0.00000000 </v>
   <v>      -0.00003300       0.00006700       0.00000000 </v>
   <v>      -0.00003300       0.33340000       0.00000000 </v>
   <v>      -0.33336700       0.00006700       0.00000000 </v>
   <v>       0.33330000       0.33340000       0.00000000 </v>
   <v>       0.11109200      -0.22218500      -0.08454100 </v>
   <v>      -0.22224100      -0.22218500      -0.08454100 </v>
   <v>       0.11109200       0.44448200      -0.08454100 </v>
   <v>       0.11109200      -0.22218500       0.08454100 </v>
   <v>      -0.22224100      -0.22218500       0.08454100 </v>
   <v>       0.11109200       0.44448200       0.08454100 </v>
   <v>       0.44442600       0.44448200      -0.08454100 </v>
   <v>      -0.22224100       0.44448200      -0.08454100 </v>
   <v>      -0.22224100       0.11114900      -0.08454100 </v>
   <v>       0.44442600       0.44448200       0.08454100 </v>
   <v>      -0.22224100       0.44448200       0.08454100 </v>
   <v>      -0.22224100       0.11114900       0.08454100 </v>
   <v>      -0.33336700       0.33340000       0.00000000 </v>
   <v>      -0.00003300      -0.33326700       0.00000000 </v>
  </varray>
 </structure>
 <varray name="primitive_index" >
  <v type="int" >        1 </v>
  <v type="int" >       17 </v>
  <v type="int" >       10 </v>
  <v type="int" >       11 </v>
  <v type="int" >       26 </v>
  <v type="int" >       19 </v>
  <v type="int" >       20 </v>
  <v type="int" >        7 </v>
  <v type="int" >        8 </v>
  <v type="int" >        3 </v>
  <v type="int" >        6 </v>
  <v type="int" >        2 </v>
  <v type="int" >        4 </v>
  <v type="int" >       16 </v>
  <v type="int" >       18 </v>
  <v type="int" >       13 </v>
  <v type="int" >       25 </v>
  <v type="int" >       27 </v>
  <v type="int" >       22 </v>
  <v type="int" >       14 </v>
  <v type="int" >       15 </v>
  <v type="int" >       12 </v>
  <v type="int" >       23 </v>
  <v type="int" >       24 </v>
  <v type="int" >       21 </v>
  <v type="int" >        5 </v>
  <v type="int" >        9 </v>
 </varray>
 <kpoints>
  <generation param="Gamma">
   <v type="int" name="divisions">      21       21        1 </v>
   <v name="usershift">      0.00000000       0.00000000       0.00000000 </v>
   <v name="genvec1">      0.04761905      -0.00000000       0.00000000 </v>
   <v name="genvec2">      0.00000000       0.04761905       0.00000000 </v>
   <v name="genvec3">      0.00000000       0.00000000       1.00000000 </v>
   <v name="shift">      0.00000000       0.00000000       0.00000000 </v>
  </generation>
  <varray name="kpointlist" >
   <v>       0.00000000       0.00000000       0.00000000 </v>
   <v>       0.04761905       0.00000000       0.00000000 </v>
   <v>       0.09523810       0.00000000       0.00000000 </v>
   <v>       0.14285714       0.00000000       0.00000000 </v>
   <v>       0.19047619       0.00000000       0.00000000 </v>
   <v>       0.23809524       0.00000000       0.00000000 </v>
   <v>       0.28571429       0.00000000       0.00000000 </v>
   <v>       0.33333333       0.00000000       0.00000000 </v>
   <v>       0.38095238       0.00000000       0.00000000 </v>
   <v>       0.42857143       0.00000000       0.00000000 </v>
   <v>       0.47619048       0.00000000       0.00000000 </v>
   <v>       0.00000000       0.04761905       0.00000000 </v>
   <v>       0.04761905       0.04761905       0.00000000 </v>
   <v>       0.09523810       0.04761905       0.00000000 </v>
   <v>       0.14285714       0.04761905       0.00000000 </v>
   <v>       0.19047619       0.04761905       0.00000000 </v>
   <v>       0.23809524       0.04761905       0.00000000 </v>
   <v>       0.28571429       0.04761905       0.00000000 </v>
   <v>       0.33333333       0.04761905       0.00000000 </v>
   <v>       0.38095238       0.04761905       0.00000000 </v>
   <v>       0.42857143       0.04761905       0.00000000 </v>
   <v>       0.47619048       0.04761905       0.00000000 </v>
   <v>      -0.47619048       0.04761905       0.00000000 </v>
   <v>      -0.42857143       0.04761905       0.00000000 </v>
   <v>      -0.38095238       0.04761905       0.00000000 </v>
   <v>      -0.33333333       0.04761905       0.00000000 </v>
   <v>      -0.28571429       0.04761905       0.00000000 </v>
   <v>      -0.23809524       0.04761905       0.00000000 </v>
   <v>      -0.19047619       0.04761905       0.00000000 </v>
   <v>      -0.14285714       0.04761905       0.00000000 </v>
   <v>      -0.09523810       0.04761905       0.00000000 </v>
   <v>      -0.04761905       0.04761905       0.00000000 </v>
   <v>       0.00000000       0.09523810       0.00000000 </v>
   <v>       0.04761905       0.09523810       0.00000000 </v>
   <v>       0.09523810       0.09523810       0.00000000 </v>
   <v>       0.14285714       0.09523810       0.00000000 </v>
   <v>       0.19047619       0.09523810       0.00000000 </v>
   <v>       0.23809524       0.09523810       0.00000000 </v>
   <v>       0.28571429       0.09523810       0.00000000 </v>
   <v>       0.33333333       0.09523810       0.00000000 </v>
   <v>       0.38095238       0.09523810       0.00000000 </v>
   <v>       0.42857143       0.09523810       0.00000000 </v>
   <v>       0.47619048       0.09523810       0.00000000 </v>
   <v>      -0.47619048       0.09523810       0.00000000 </v>
   <v>      -0.42857143       0.09523810       0.00000000 </v>
   <v>      -0.38095238       0.09523810       0.00000000 </v>
   <v>      -0.33333333       0.09523810       0.00000000 </v>
   <v>      -0.28571429       0.09523810       0.00000000 </v>
   <v>      -0.23809524       0.09523810       0.00000000 </v>
   <v>      -0.19047619       0.09523810       0.00000000 </v>
   <v>      -0.14285714       0.09523810       0.00000000 </v>
   <v>      -0.09523810       0.09523810       0.00000000 </v>
   <v>      -0.04761905       0.09523810       0.00000000 </v>
   <v>       0.00000000       0.14285714       0.00000000 </v>
   <v>       0.04761905       0.14285714       0.00000000 </v>
   <v>       0.09523810       0.14285714       0.00000000 </v>
   <v>       0.14285714       0.14285714       0.00000000 </v>
   <v>       0.19047619       0.14285714       0.00000000 </v>
   <v>       0.23809524       0.14285714       0.00000000 </v>
   <v>       0.28571429       0.14285714       0.00000000 </v>
   <v>       0.33333333       0.14285714       0.00000000 </v>
   <v>       0.38095238       0.14285714       0.00000000 </v>
   <v>       0.42857143       0.14285714       0.00000000 </v>
   <v>       0.47619048       0.14285714       0.00000000 </v>
   <v>      -0.47619048       0.14285714       0.00000000 </v>
   <v>      -0.42857143       0.14285714       0.00000000 </v>
   <v>      -0.38095238       0.14285714       0.00000000 </v>
   <v>      -0.33333333       0.14285714       0.00000000 </v>
   <v>      -0.28571429       0.14285714       0.00000000 </v>
   <v>      -0.23809524       0.14285714       0.00000000 </v>
   <v>      -0.19047619       0.14285714       0.00000000 </v>
   <v>      -0.14285714       0.14285714       0.00000000 </v>
   <v>      -0.09523810       0.14285714       0.00000000 </v>
   <v>      -0.04761905       0.14285714       0.00000000 </v>
   <v>       0.00000000       0.19047619       0.00000000 </v>
   <v>       0.04761905       0.19047619       0.00000000 </v>
   <v>       0.09523810       0.19047619       0.00000000 </v>
   <v>       0.14285714       0.19047619       0.00000000 </v>
   <v>       0.19047619       0.19047619       0.00000000 </v>
   <v>       0.23809524       0.19047619       0.00000000 </v>
   <v>       0.28571429       0.19047619       0.00000000 </v>
   <v>       0.33333333       0.19047619       0.00000000 </v>
   <v>       0.38095238       0.19047619       0.00000000 </v>
   <v>       0.42857143       0.19047619       0.00000000 </v>
   <v>       0.47619048       0.19047619       0.00000000 </v>
   <v>      -0.47619048       0.19047619       0.00000000 </v>
   <v>      -0.42857143       0.19047619       0.00000000 </v>
   <v>      -0.38095238       0.19047619       0.00000000 </v>
   <v>      -0.33333333       0.19047619       0.00000000 </v>
   <v>      -0.28571429       0.19047619       0.00000000 </v>
   <v>      -0.23809524       0.19047619       0.00000000 </v>
   <v>      -0.19047619       0.19047619       0.00000000 </v>
   <v>      -0.14285714       0.19047619       0.00000000 </v>
   <v>      -0.09523810       0.19047619       0.00000000 </v>
   <v>      -0.04761905       0.19047619       0.00000000 </v>
   <v>       0.00000000       0.23809524       0.00000000 </v>
   <v>       0.04761905       0.23809524       0.00000000 </v>
   <v>       0.09523810       0.23809524       0.00000000 </v>
   <v>       0.14285714       0.23809524       0.00000000 </v>
   <v>       0.19047619       0.23809524       0.00000000 </v>
   <v>       0.23809524       0.23809524       0.00000000 </v>
   <v>       0.28571429       0.23809524       0.00000000 </v>
   <v>       0.33333333       0.23809524       0.00000000 </v>
   <v>       0.38095238       0.23809524       0.00000000 </v>
   <v>       0.42857143       0.23809524       0.00000000 </v>
   <v>       0.47619048       0.23809524       0.00000000 </v>
   <v>      -0.47619048       0.23809524       0.00000000 </v>
   <v>      -0.42857143       0.23809524       0.00000000 </v>
   <v>      -0.38095238       0.23809524       0.00000000 </v>
   <v>      -0.33333333       0.23809524       0.00000000 </v>
   <v>      -0.28571429       0.23809524       0.00000000 </v>
   <v>      -0.23809524       0.23809524       0.00000000 </v>
   <v>      -0.19047619       0.23809524       0.00000000 </v>
   <v>      -0.14285714       0.23809524       0.00000000 </v>
   <v>      -0.09523810       0.23809524       0.00000000 </v>
   <v>      -0.04761905       0.23809524       0.00000000 </v>
   <v>       0.00000000       0.28571429       0.00000000 </v>
   <v>       0.04761905       0.28571429       0.00000000 </v>
   <v>       0.09523810       0.28571429       0.00000000 </v>
   <v>       0.14285714       0.28571429       0.00000000 </v>
   <v>       0.19047619       0.28571429       0.00000000 </v>
   <v>       0.23809524       0.28571429       0.00000000 </v>
   <v>       0.28571429       0.28571429       0.00000000 </v>
   <v>       0.33333333       0.28571429       0.00000000 </v>
   <v>       0.38095238       0.28571429       0.00000000 </v>
   <v>       0.42857143       0.28571429       0.00000000 </v>
   <v>       0.47619048       0.28571429       0.00000000 </v>
   <v>      -0.47619048       0.28571429       0.00000000 </v>
   <v>      -0.42857143       0.28571429       0.00000000 </v>
   <v>      -0.38095238       0.28571429       0.00000000 </v>
   <v>      -0.33333333       0.28571429       0.00000000 </v>
   <v>      -0.28571429       0.28571429       0.00000000 </v>
   <v>      -0.23809524       0.28571429       0.00000000 </v>
   <v>      -0.19047619       0.28571429       0.00000000 </v>
   <v>      -0.14285714       0.28571429       0.00000000 </v>
   <v>      -0.09523810       0.28571429       0.00000000 </v>
   <v>      -0.04761905       0.28571429       0.00000000 </v>
   <v>       0.00000000       0.33333333       0.00000000 </v>
   <v>       0.04761905       0.33333333       0.00000000 </v>
   <v>       0.09523810       0.33333333       0.00000000 </v>
   <v>       0.14285714       0.33333333       0.00000000 </v>
   <v>       0.19047619       0.33333333       0.00000000 </v>
   <v>       0.23809524       0.33333333       0.00000000 </v>
   <v>       0.28571429       0.33333333       0.00000000 </v>
   <v>       0.33333333       0.33333333       0.00000000 </v>
   <v>       0.38095238       0.33333333       0.00000000 </v>
   <v>       0.42857143       0.33333333       0.00000000 </v>
   <v>       0.47619048       0.33333333       0.00000000 </v>
   <v>      -0.47619048       0.33333333       0.00000000 </v>
   <v>      -0.42857143       0.33333333       0.00000000 </v>
   <v>      -0.38095238       0.33333333       0.00000000 </v>
   <v>      -0.33333333       0.33333333       0.00000000 </v>
   <v>      -0.28571429       0.33333333       0.00000000 </v>
   <v>      -0.23809524       0.33333333       0.00000000 </v>
   <v>      -0.19047619       0.33333333       0.00000000 </v>
   <v>      -0.14285714       0.33333333       0.00000000 </v>
   <v>      -0.09523810       0.33333333       0.00000000 </v>
   <v>      -0.04761905       0.33333333       0.00000000 </v>
   <v>       0.00000000       0.38095238       0.00000000 </v>
   <v>       0.04761905       0.38095238       0.00000000 </v>
   <v>       0.09523810       0.38095238       0.00000000 </v>
   <v>       0.14285714       0.38095238       0.00000000 </v>
   <v>       0.19047619       0.38095238       0.00000000 </v>
   <v>       0.23809524       0.38095238       0.00000000 </v>
   <v>       0.28571429       0.38095238       0.00000000 </v>
   <v>       0.33333333       0.38095238       0.00000000 </v>
   <v>       0.38095238       0.38095238       0.00000000 </v>
   <v>       0.42857143       0.38095238       0.00000000 </v>
   <v>       0.47619048       0.38095238       0.00000000 </v>
   <v>      -0.47619048       0.38095238       0.00000000 </v>
   <v>      -0.42857143       0.38095238       0.00000000 </v>
   <v>      -0.38095238       0.38095238       0.00000000 </v>
   <v>      -0.33333333       0.38095238       0.00000000 </v>
   <v>      -0.28571429       0.38095238       0.00000000 </v>
   <v>      -0.23809524       0.38095238       0.00000000 </v>
   <v>      -0.19047619       0.38095238       0.00000000 </v>
   <v>      -0.14285714       0.38095238       0.00000000 </v>
   <v>      -0.09523810       0.38095238       0.00000000 </v>
   <v>      -0.04761905       0.38095238       0.00000000 </v>
   <v>       0.00000000       0.42857143       0.00000000 </v>
   <v>       0.04761905       0.42857143       0.00000000 </v>
   <v>       0.09523810       0.42857143       0.00000000 </v>
   <v>       0.14285714       0.42857143       0.00000000 </v>
   <v>       0.19047619       0.42857143       0.00000000 </v>
   <v>       0.23809524       0.42857143       0.00000000 </v>
   <v>       0.28571429       0.42857143       0.00000000 </v>
   <v>       0.33333333       0.42857143       0.00000000 </v>
   <v>       0.38095238       0.42857143       0.00000000 </v>
   <v>       0.42857143       0.42857143       0.00000000 </v>
   <v>       0.47619048       0.42857143       0.00000000 </v>
   <v>      -0.47619048       0.42857143       0.00000000 </v>
   <v>      -0.42857143       0.42857143       0.00000000 </v>
   <v>      -0.38095238       0.42857143       0.00000000 </v>
   <v>      -0.33333333       0.42857143       0.00000000 </v>
   <v>      -0.28571429       0.42857143       0.00000000 </v>
   <v>      -0.23809524       0.42857143       0.00000000 </v>
   <v>      -0.19047619       0.42857143       0.00000000 </v>
   <v>      -0.14285714       0.42857143       0.00000000 </v>
   <v>      -0.09523810       0.42857143       0.00000000 </v>
   <v>      -0.04761905       0.42857143       0.00000000 </v>
   <v>       0.00000000       0.47619048       0.00000000 </v>
   <v>       0.04761905       0.47619048       0.00000000 </v>
   <v>       0.09523810       0.47619048       0.00000000 </v>
   <v>       0.14285714       0.47619048       0.00000000 </v>
   <v>       0.19047619       0.47619048       0.00000000 </v>
   <v>       0.23809524       0.47619048       0.00000000 </v>
   <v>       0.28571429       0.47619048       0.00000000 </v>
   <v>       0.33333333       0.47619048       0.00000000 </v>
   <v>       0.38095238       0.47619048       0.00000000 </v>
   <v>       0.42857143       0.47619048       0.00000000 </v>
   <v>       0.47619048       0.47619048       0.00000000 </v>
   <v>      -0.47619048       0.47619048       0.00000000 </v>
   <v>      -0.42857143       0.47619048       0.00000000 </v>
   <v>      -0.38095238       0.47619048       0.00000000 </v>
   <v>      -0.33333333       0.47619048       0.00000000 </v>
   <v>      -0.28571429       0.47619048       0.00000000 </v>
   <v>      -0.23809524       0.47619048       0.00000000 </v>
   <v>      -0.19047619       0.47619048       0.00000000 </v>
   <v>      -0.14285714       0.47619048       0.00000000 </v>
   <v>      -0.09523810       0.47619048       0.00000000 </v>
   <v>      -0.04761905       0.47619048       0.00000000 </v>
  </varray>
  <varray name="weights" >
   <v>       0.00226757 </v>
   <v>       0.00453515 </v>
   <v>       0.00453515 </v>
   <v>       0.00453515 </v>
   <v>       0.00453515 </v>
   <v>       0.00453515 </v>
   <v>       0.00453515 </v>
   <v>       0.00453515 </v>
   <v>       0.00453515 </v>
   <v>       0.00453515 </v>
   <v>       0.00453515 </v>
   <v>       0.00453515 </v>
   <v>       0.00453515 </v>
   <v>       0.00453515 </v>
   <v>       0.00453515 </v>
   <v>       0.00453515 </v>
   <v>       0.00453515 </v>
   <v>       0.00453515 </v>
   <v>       0.00453515 </v>
   <v>       0.00453515 </v>
   <v>       0.00453515 </v>
   <v>       0.00453515 </v>
   <v>       0.00453515 </v>
   <v>       0.00453515 </v>
   <v>       0.00453515 </v>
   <v>       0.00453515 </v>
   <v>       0.00453515 </v>
   <v>       0.00453515 </v>
   <v>       0.00453515 </v>
   <v>       0.00453515 </v>
   <v>       0.00453515 </v>
   <v>       0.00453515 </v>
   <v>       0.00453515 </v>
   <v>       0.00453515 </v>
   <v>       0.00453515 </v>
   <v>       0.00453515 </v>
   <v>       0.00453515 </v>
   <v>       0.00453515 </v>
   <v>       0.00453515 </v>
   <v>       0.00453515 </v>
   <v>       0.00453515 </v>
   <v>       0.00453515 </v>
   <v>       0.00453515 </v>
   <v>       0.00453515 </v>
   <v>       0.00453515 </v>
   <v>       0.00453515 </v>
   <v>       0.00453515 </v>
   <v>       0.00453515 </v>
   <v>       0.00453515 </v>
   <v>       0.00453515 </v>
   <v>       0.00453515 </v>
   <v>       0.00453515 </v>
   <v>       0.00453515 </v>
   <v>       0.00453515 </v>
   <v>       0.00453515 </v>
   <v>       0.00453515 </v>
   <v>       0.00453515 </v>
   <v>       0.00453515 </v>
   <v>       0.00453515 </v>
   <v>       0.00453515 </v>
   <v>       0.00453515 </v>
   <v>       0.00453515 </v>
   <v>       0.00453515 </v>
   <v>       0.00453515 </v>
   <v>       0.00453515 </v>
   <v>       0.00453515 </v>
   <v>       0.00453515 </v>
   <v>       0.00453515 </v>
   <v>       0.00453515 </v>
   <v>       0.00453515 </v>
   <v>       0.00453515 </v>
   <v>       0.00453515 </v>
   <v>       0.00453515 </v>
   <v>       0.00453515 </v>
   <v>       0.00453515 </v>
   <v>       0.00453515 </v>
   <v>       0.00453515 </v>
   <v>       0.00453515 </v>
   <v>       0.00453515 </v>
   <v>       0.00453515 </v>
   <v>       0.00453515 </v>
   <v>       0.00453515 </v>
   <v>       0.00453515 </v>
   <v>       0.00453515 </v>
   <v>       0.00453515 </v>
   <v>       0.00453515 </v>
   <v>       0.00453515 </v>
   <v>       0.00453515 </v>
   <v>       0.00453515 </v>
   <v>       0.00453515 </v>
   <v>       0.00453515 </v>
   <v>       0.00453515 </v>
   <v>       0.00453515 </v>
   <v>       0.00453515 </v>
   <v>       0.00453515 </v>
   <v>       0.00453515 </v>
   <v>       0.00453515 </v>
   <v>       0.00453515 </v>
   <v>       0.00453515 </v>
   <v>       0.00453515 </v>
   <v>       0.00453515 </v>
   <v>       0.00453515 </v>
   <v>       0.00453515 </v>
   <v>       0.00453515 </v>
   <v>       0.00453515 </v>
   <v>       0.00453515 </v>
   <v>       0.00453515 </v>
   <v>       0.00453515 </v>
   <v>       0.00453515 </v>
   <v>       0.00453515 </v>
   <v>       0.00453515 </v>
   <v>       0.00453515 </v>
   <v>       0.00453515 </v>
   <v>       0.00453515 </v>
   <v>       0.00453515 </v>
   <v>       0.00453515 </v>
   <v>       0.00453515 </v>
   <v>       0.00453515 </v>
   <v>       0.00453515 </v>
   <v>       0.00453515 </v>
   <v>       0.00453515 </v>
   <v>       0.00453515 </v>
   <v>       0.00453515 </v>
   <v>       0.00453515 </v>
   <v>       0.00453515 </v>
   <v>       0.00453515 </v>
   <v>       0.00453515 </v>
   <v>       0.00453515 </v>
   <v>       0.00453515 </v>
   <v>       0.00453515 </v>
   <v>       0.00453515 </v>
   <v>       0.00453515 </v>
   <v>       0.00453515 </v>
   <v>       0.00453515 </v>
   <v>       0.00453515 </v>
   <v>       0.00453515 </v>
   <v>       0.00453515 </v>
   <v>       0.00453515 </v>
   <v>       0.00453515 </v>
   <v>       0.00453515 </v>
   <v>       0.00453515 </v>
   <v>       0.00453515 </v>
   <v>       0.00453515 </v>
   <v>       0.00453515 </v>
   <v>       0.00453515 </v>
   <v>       0.00453515 </v>
   <v>       0.00453515 </v>
   <v>       0.00453515 </v>
   <v>       0.00453515 </v>
   <v>       0.00453515 </v>
   <v>       0.00453515 </v>
   <v>       0.00453515 </v>
   <v>       0.00453515 </v>
   <v>       0.00453515 </v>
   <v>       0.00453515 </v>
   <v>       0.00453515 </v>
   <v>       0.00453515 </v>
   <v>       0.00453515 </v>
   <v>       0.00453515 </v>
   <v>       0.00453515 </v>
   <v>       0.00453515 </v>
   <v>       0.00453515 </v>
   <v>       0.00453515 </v>
   <v>       0.00453515 </v>
   <v>       0.00453515 </v>
   <v>       0.00453515 </v>
   <v>       0.00453515 </v>
   <v>       0.00453515 </v>
   <v>       0.00453515 </v>
   <v>       0.00453515 </v>
   <v>       0.00453515 </v>
   <v>       0.00453515 </v>
   <v>       0.00453515 </v>
   <v>       0.00453515 </v>
   <v>       0.00453515 </v>
   <v>       0.00453515 </v>
   <v>       0.00453515 </v>
   <v>       0.00453515 </v>
   <v>       0.00453515 </v>
   <v>       0.00453515 </v>
   <v>       0.00453515 </v>
   <v>       0.00453515 </v>
   <v>       0.00453515 </v>
   <v>       0.00453515 </v>
   <v>       0.00453515 </v>
   <v>       0.00453515 </v>
   <v>       0.00453515 </v>
   <v>       0.00453515 </v>
   <v>       0.00453515 </v>
   <v>       0.00453515 </v>
   <v>       0.00453515 </v>
   <v>       0.00453515 </v>
   <v>       0.00453515 </v>
   <v>       0.00453515 </v>
   <v>       0.00453515 </v>
   <v>       0.00453515 </v>
   <v>       0.00453515 </v>
   <v>       0.00453515 </v>
   <v>       0.00453515 </v>
   <v>       0.00453515 </v>
   <v>       0.00453515 </v>
   <v>       0.00453515 </v>
   <v>       0.00453515 </v>
   <v>       0.00453515 </v>
   <v>       0.00453515 </v>
   <v>       0.00453515 </v>
   <v>       0.00453515 </v>
   <v>       0.00453515 </v>
   <v>       0.00453515 </v>
   <v>       0.00453515 </v>
   <v>       0.00453515 </v>
   <v>       0.00453515 </v>
   <v>       0.00453515 </v>
   <v>       0.00453515 </v>
   <v>       0.00453515 </v>
   <v>       0.00453515 </v>
   <v>       0.00453515 </v>
   <v>       0.00453515 </v>
   <v>       0.00453515 </v>
   <v>       0.00453515 </v>
   <v>       0.00453515 </v>
  </varray>
 </kpoints>
 <parameters>
  <separator name="general" >
   <i type="string" name="SYSTEM">W-1, se-2</i>
   <i type="logical" name="LCOMPAT"> F  </i>
  </separator>
  <separator name="electronic" >
   <i type="string" name="PREC">accura</i>
   <i name="ENMAX">    800.00000000</i>
   <i name="ENAUG">    446.84200000</i>
   <i name="EDIFF">      0.00000001</i>
   <i type="int" name="IALGO">    38</i>
   <i type="int" name="IWAVPR">    10</i>
   <i type="int" name="NBANDS">   102</i>
   <i name="NELECT">    162.00000000</i>
   <i type="int" name="TURBO">     0</i>
   <i type="int" name="IRESTART">     0</i>
   <i type="int" name="NREBOOT">     0</i>
   <i type="int" name="NMIN">     0</i>
   <i name="EREF">      0.00000000</i>
   <separator name="electronic smearing" >
    <i type="int" name="ISMEAR">     0</i>
    <i name="SIGMA">      0.01000000</i>
    <i name="KSPACING">      0.50000000</i>
    <i type="logical" name="KGAMMA"> T  </i>
   </separator>
   <separator name="electronic projectors" >
    <i type="logical" name="LREAL"> F  </i>
    <v name="ROPT">      0.00000000      0.00000000</v>
    <i type="int" name="LMAXPAW">  -100</i>
    <i type="int" name="LMAXMIX">     2</i>
    <i type="logical" name="NLSPLINE"> F  </i>
   </separator>
   <separator name="electronic startup" >
    <i type="int" name="ISTART">     0</i>
    <i type="int" name="ICHARG">     2</i>
    <i type="int" name="INIWAV">     1</i>
   </separator>
   <separator name="electronic spin" >
    <i type="int" name="ISPIN">     1</i>
    <i type="logical" name="LNONCOLLINEAR"> F  </i>
    <v name="MAGMOM">      1.00000000      1.00000000      1.00000000      1.00000000      1.00000000      1.00000000      1.00000000      1.00000000      1.00000000      1.00000000      1.00000000      1.00000000      1.00000000      1.00000000      1.00000000      1.00000000      1.00000000      1.00000000      1.00000000      1.00000000
      1.00000000      1.00000000      1.00000000      1.00000000      1.00000000      1.00000000      1.00000000</v>
    <i name="NUPDOWN">     -1.00000000</i>
    <i type="logical" name="LSORBIT"> F  </i>
    <v name="SAXIS">      0.00000000      0.00000000      1.00000000</v>
    <i type="logical" name="LSPIRAL"> F  </i>
    <v name="QSPIRAL">      0.00000000      0.00000000      0.00000000</v>
    <i type="logical" name="LZEROZ"> F  </i>
   </separator>
   <separator name="electronic exchange-correlation" >
    <i type="logical" name="LASPH"> F  </i>
    <i type="logical" name="LMETAGGA"> F  </i>
   </separator>
   <separator name="electronic convergence" >
    <i type="int" name="NELM">    60</i>
    <i type="int" name="NELMDL">    -5</i>
    <i type="int" name="NELMIN">     5</i>
    <i name="ENINI">    800.00000000</i>
    <separator name="electronic convergence detail" >
     <i type="logical" name="LDIAG"> T  </i>
     <i type="logical" name="LSUBROT"> F  </i>
     <i name="WEIMIN">      0.00000000</i>
     <i name="EBREAK">      0.00000000</i>
     <i name="DEPER">      0.30000000</i>
     <i type="int" name="NRMM">     4</i>
     <i name="TIME">      0.40000000</i>
    </separator>
   </separator>
   <separator name="electronic mixer" >
    <i name="AMIX">      0.40000000</i>
    <i name="BMIX">      1.00000000</i>
    <i name="AMIN">      0.01000000</i>
    <i name="AMIX_MAG">      1.60000000</i>
    <i name="BMIX_MAG">      1.00000000</i>
    <separator name="electronic mixer details" >
     <i type="int" name="IMIX">     4</i>
     <i type="logical" name="MIXFIRST"> F  </i>
     <i type="int" name="MAXMIX">   -45</i>
     <i name="WC">    100.00000000</i>
     <i type="int" name="INIMIX">     1</i>
     <i type="int" name="MIXPRE">     1</i>
     <i type="int" name="MREMOVE">     5</i>
    </separator>
   </separator>
   <separator name="electronic dipolcorrection" >
    <i type="logical" name="LDIPOL"> F  </i>
    <i type="logical" name="LMONO"> F  </i>
    <i type="int" name="IDIPOL">     0</i>
    <i name="EPSILON">      1.00000000</i>
    <v name="DIPOL">   -100.00000000   -100.00000000   -100.00000000</v>
    <i name="EFIELD">      0.00000000</i>
   </separator>
  </separator>
  <separator name="grids" >
   <i type="int" name="NGX">    96</i>
   <i type="int" name="NGY">    96</i>
   <i type="int" name="NGZ">   192</i>
   <i type="int" name="NGXF">   192</i>
   <i type="int" name="NGYF">   192</i>
   <i type="int" name="NGZF">   384</i>
   <i type="logical" name="ADDGRID"> T  </i>
  </separator>
  <separator name="ionic" >
   <i type="int" name="NSW">     0</i>
   <i type="int" name="IBRION">    -1</i>
   <i type="int" name="MDALGO">     0</i>
   <i type="int" name="ISIF">     2</i>
   <i name="PSTRESS">      0.00000000</i>
   <i name="EDIFFG">     -0.00000001</i>
   <i type="int" name="NFREE">     0</i>
   <i name="POTIM">      0.50000000</i>
   <i name="SMASS">     -3.00000000</i>
   <i name="SCALEE">      1.00000000</i>
  </separator>
  <separator name="ionic md" >
   <i name="TEBEG">      0.00010000</i>
   <i name="TEEND">      0.00010000</i>
   <i type="int" name="NBLOCK">     1</i>
   <i type="int" name="KBLOCK">     1</i>
   <i type="int" name="NPACO">   256</i>
   <i name="APACO">     16.00000000</i>
  </separator>
  <separator name="symmetry" >
   <i type="int" name="ISYM">     2</i>
   <i name="SYMPREC">      0.00010000</i>
  </separator>
  <separator name="dos" >
   <i type="int" name="LORBIT">     0</i>
   <v name="RWIGS">     -1.00000000     -1.00000000</v>
   <i type="int" name="NEDOS">   301</i>
   <i name="EMIN">     10.00000000</i>
   <i name="EMAX">    -10.00000000</i>
   <i name="EFERMI">      0.00000000</i>
  </separator>
  <separator name="writing" >
   <i type="int" name="NWRITE">     2</i>
   <i type="logical" name="LWAVE"> F  </i>
   <i type="logical" name="LDOWNSAMPLE"> F  </i>
   <i type="logical" name="LCHARG"> F  </i>
   <i type="logical" name="LPARD"> F  </i>
   <i type="logical" name="LVTOT"> F  </i>
   <i type="logical" name="LVHAR"> F  </i>
   <i type="logical" name="LELF"> F  </i>
   <i type="logical" name="LOPTICS"> F  </i>
   <v name="STM">      0.00000000      0.00000000      0.00000000      0.00000000      0.00000000      0.00000000      0.00000000</v>
  </separator>
  <separator name="performance" >
   <i type="int" name="NPAR">     6</i>
   <i type="int" name="NSIM">     4</i>
   <i type="int" name="NBLK">    -1</i>
   <i type="logical" name="LPLANE"> T  </i>
   <i type="logical" name="LSCALAPACK"> T  </i>
   <i type="logical" name="LSCAAWARE"> F  </i>
   <i type="logical" name="LSCALU"> F  </i>
   <i type="logical" name="LASYNC"> F  </i>
   <i type="logical" name="LORBITALREAL"> F  </i>
  </separator>
  <separator name="miscellaneous" >
   <i type="int" name="IDIOT">     3</i>
   <i type="int" name="ISPECIAL">     0</i>
   <i type="logical" name="LMUSIC"> F  </i>
   <v name="POMASS">    183.85000000     78.96000000</v>
   <v name="DARWINR">      0.00000000      0.00000000</v>
   <v name="DARWINV">      1.00000000      1.00000000</v>
   <i type="logical" name="LCORR"> T  </i>
  </separator>
  <i type="logical" name="GGA_COMPAT"> T  </i>
  <i type="logical" name="LBERRY"> F  </i>
  <i type="int" name="ICORELEVEL">     0</i>
  <i type="logical" name="LDAU"> F  </i>
  <i type="int" name="I_CONSTRAINED_M">     0</i>
  <separator name="electronic exchange-correlation" >
   <i type="string" name="GGA">--</i>
   <i type="int" name="VOSKOWN">     0</i>
   <i type="logical" name="LHFCALC"> F  </i>
   <i type="string" name="PRECFOCK"></i>
   <i type="logical" name="LSYMGRAD"> F  </i>
   <i type="logical" name="LHFONE"> F  </i>
   <i type="logical" name="LRHFCALC"> F  </i>
   <i type="logical" name="LTHOMAS"> F  </i>
   <i type="logical" name="LMODELHF"> F  </i>
   <i name="ENCUT4O">     -1.00000000</i>
   <i type="int" name="EXXOEP">     0</i>
   <i type="int" name="FOURORBIT">     0</i>
   <i name="AEXX">      0.00000000</i>
   <i name="HFALPHA">      0.00000000</i>
   <i name="MCALPHA">      0.00000000</i>
   <i name="ALDAX">      1.00000000</i>
   <i name="AGGAX">      1.00000000</i>
   <i name="ALDAC">      1.00000000</i>
   <i name="AGGAC">      1.00000000</i>
   <i type="int" name="NKREDX">     1</i>
   <i type="int" name="NKREDY">     1</i>
   <i type="int" name="NKREDZ">     1</i>
   <i type="logical" name="SHIFTRED"> F  </i>
   <i type="logical" name="ODDONLY"> F  </i>
   <i type="logical" name="EVENONLY"> F  </i>
   <i type="int" name="LMAXFOCK">     0</i>
   <i type="int" name="NMAXFOCKAE">     0</i>
   <i type="logical" name="LFOCKAEDFT"> F  </i>
   <i name="HFSCREEN">      0.00000000</i>
   <i name="HFSCREENC">      0.00000000</i>
   <i type="int" name="NBANDSGWLOW">     0</i>
  </separator>
  <separator name="vdW DFT" >
   <i type="logical" name="LUSE_VDW"> F  </i>
   <i name="Zab_VDW">     -0.84910000</i>
   <i name="PARAM1">      0.12340000</i>
   <i name="PARAM2">      1.00000000</i>
   <i name="PARAM3">      0.00000000</i>
  </separator>
  <separator name="model GW" >
   <i type="int" name="MODEL_GW">     0</i>
   <i name="MODEL_EPS0">     37.28982144</i>
   <i name="MODEL_ALPHA">      1.00000000</i>
  </separator>
  <separator name="linear response parameters" >
   <i type="logical" name="LEPSILON"> F  </i>
   <i type="logical" name="LRPA"> F  </i>
   <i type="logical" name="LNABLA"> F  </i>
   <i type="logical" name="LVEL"> F  </i>
   <i type="int" name="KINTER">     0</i>
   <i name="CSHIFT">      0.10000000</i>
   <i name="OMEGAMAX">     -1.00000000</i>
   <i name="DEG_THRESHOLD">      0.00200000</i>
   <i name="RTIME">     -0.10000000</i>
   <i name="WPLASMAI">      0.00000000</i>
   <v name="DFIELD">      0.00000000      0.00000000      0.00000000</v>
   <v name="WPLASMA">      0.00000000      0.00000000      0.00000000      0.00000000      0.00000000      0.00000000      0.00000000      0.00000000      0.00000000</v>
  </separator>
  <separator name="orbital magnetization" >
   <i type="logical" name="NUCIND"> F  </i>
   <v name="MAGPOS">      0.00000000      0.00000000      0.00000000</v>
   <i type="logical" name="LNICSALL"> T  </i>
   <i type="logical" name="ORBITALMAG"> F  </i>
   <i type="logical" name="LMAGBLOCH"> F  </i>
   <i type="logical" name="LCHIMAG"> F  </i>
   <i type="logical" name="LGAUGE"> T  </i>
   <i type="int" name="MAGATOM">     0</i>
   <v name="MAGDIPOL">      0.00000000      0.00000000      0.00000000</v>
   <v name="AVECCONST">      0.00000000      0.00000000      0.00000000</v>
  </separator>
  <separator name="response functions" >
   <i type="logical" name="LADDER"> F  </i>
   <i type="logical" name="LRPAFORCE"> F  </i>
   <i type="logical" name="LFXC"> F  </i>
   <i type="logical" name="LHARTREE"> T  </i>
   <i type="int" name="IBSE">     0</i>
   <v type="int" name="KPOINT">    -1     0     0     0</v>
   <i type="logical" name="LTCTE"> F  </i>
   <i type="logical" name="LTETE"> F  </i>
   <i type="logical" name="LTRIPLET"> F  </i>
   <i type="logical" name="LFXCEPS"> F  </i>
   <i type="logical" name="LFXHEG"> F  </i>
   <i type="int" name="NATURALO">     2</i>
   <i type="logical" name="L2ORDER"> F  </i>
   <i type="logical" name="LMP2LT"> F  </i>
   <i type="logical" name="LUSEW"> F  </i>
   <i name="ENCUTGW">     -2.00000000</i>
   <i name="ENCUTGWSOFT">     -2.00000000</i>
   <i name="ENCUTLF">     -1.00000000</i>
   <i type="int" name="LMAXMP2">    -1</i>
   <i name="SCISSOR">      0.00000000</i>
   <i type="int" name="NOMEGA">     0</i>
   <i type="int" name="NOMEGAR">     0</i>
   <i type="int" name="NBANDSGW">    -1</i>
   <i type="int" name="NBANDSO">    -1</i>
   <i type="int" name="NBANDSV">    -1</i>
   <i type="int" name="NELM">     1</i>
   <i type="int" name="NELMHF">     1</i>
   <i type="int" name="DIM">     3</i>
   <i type="int" name="ANTIRES">     0</i>
   <i name="OMEGAMAX">    -30.00000000</i>
   <i name="OMEGAMIN">    -30.00000000</i>
   <i name="OMEGATL">   -200.00000000</i>
   <i type="int" name="OMEGAGRID">   140</i>
   <i name="CSHIFT">     -0.10000000</i>
   <i type="logical" name="SELFENERGY"> F  </i>
   <i type="logical" name="LSPECTRAL"> F  </i>
   <i type="logical" name="LSPECTRALGW"> F  </i>
   <i type="logical" name="LSINGLES"> F  </i>
   <i type="logical" name="LFERMIGW"> F  </i>
   <i type="logical" name="ODDONLYGW"> F  </i>
   <i type="logical" name="EVENONLYGW"> F  </i>
   <i type="int" name="NKREDLFX">     1</i>
   <i type="int" name="NKREDLFY">     1</i>
   <i type="int" name="NKREDLFZ">     1</i>
   <i type="int" name="MAXMEM">  2800</i>
   <i type="int" name="TELESCOPE">     0</i>
   <i type="int" name="TAUPAR">     1</i>
   <i type="int" name="OMEGAPAR">    -1</i>
   <i name="LAMBDA">      1.00000000</i>
  </separator>
  <separator name="External order field" >
   <i name="OFIELD_KAPPA">      0.00000000</i>
   <v name="OFIELD_K">      0.00000000      0.00000000      0.00000000</v>
   <i name="OFIELD_Q6_NEAR">      0.00000000</i>
   <i name="OFIELD_Q6_FAR">      0.00000000</i>
   <i name="OFIELD_A">      0.00000000</i>
  </separator>
 </parameters>
 <atominfo>
  <atoms>      27 </atoms>
  <types>       2 </types>
  <array name="atoms" >
   <dimension dim="1">ion</dimension>
   <field type="string">element</field>
   <field type="int">atomtype</field>
   <set>
    <rc><c>W </c><c>   1</c></rc>
    <rc><c>W </c><c>   1</c></rc>
    <rc><c>W </c><c>   1</c></rc>
    <rc><c>W </c><c>   1</c></rc>
    <rc><c>W </c><c>   1</c></rc>
    <rc><c>W </c><c>   1</c></rc>
    <rc><c>W </c><c>   1</c></rc>
    <rc><c>W </c><c>   1</c></rc>
    <rc><c>W </c><c>   1</c></rc>
    <rc><c>Se</c><c>   2</c></rc>
    <rc><c>Se</c><c>   2</c></rc>
    <rc><c>Se</c><c>   2</c></rc>
    <rc><c>Se</c><c>   2</c></rc>
    <rc><c>Se</c><c>   2</c></rc>
    <rc><c>Se</c><c>   2</c></rc>
    <rc><c>Se</c><c>   2</c></rc>
    <rc><c>Se</c><c>   2</c></rc>
    <rc><c>Se</c><c>   2</c></rc>
    <rc><c>Se</c><c>   2</c></rc>
    <rc><c>Se</c><c>   2</c></rc>
    <rc><c>Se</c><c>   2</c></rc>
    <rc><c>Se</c><c>   2</c></rc>
    <rc><c>Se</c><c>   2</c></rc>
    <rc><c>Se</c><c>   2</c></rc>
    <rc><c>Se</c><c>   2</c></rc>
    <rc><c>Se</c><c>   2</c></rc>
    <rc><c>Se</c><c>   2</c></rc>
   </set>
  </array>
  <array name="atomtypes" >
   <dimension dim="1">type</dimension>
   <field type="int">atomspertype</field>
   <field type="string">element</field>
   <field>mass</field>
   <field>valence</field>
   <field type="string">pseudopotential</field>
   <set>
    <rc><c>   9</c><c>W </c><c>    183.85000000</c><c>      6.00000000</c><c> PAW_PBE W 08Apr2002                    </c></rc>
    <rc><c>  18</c><c>Se</c><c>     78.96000000</c><c>      6.00000000</c><c> PAW_PBE Se 06Sep2000                   </c></rc>
   </set>
  </array>
 </atominfo>
 <structure name="initialpos" >
  <crystal>
   <varray name="basis" >
    <v>       9.84600000       0.00000000       0.00000000 </v>
    <v>       4.92300000       8.52144000       0.00000000 </v>
    <v>       0.00000000       0.00000000      20.00000000 </v>
   </varray>
   <i name="volume">   1678.04196480 </i>
   <varray name="rec_basis" >
    <v>       0.10156409      -0.05867553       0.00000000 </v>
    <v>       0.00000000       0.11735106       0.00000000 </v>
    <v>       0.00000000       0.00000000       0.05000000 </v>
   </varray>
  </crystal>
  <varray name="positions" >
   <v>       0.33330000       0.99961800       0.99955100 </v>
   <v>       0.66663300       0.00006700       0.00000000 </v>
   <v>       0.99996700       0.00006700       0.00000000 </v>
   <v>       0.33330000       0.33340000       0.00000000 </v>
   <v>       0.66663300       0.33340000       0.00000000 </v>
   <v>       0.99996700       0.33340000       0.00000000 </v>
   <v>       0.33330000       0.66673300       0.00000000 </v>
   <v>       0.66663300       0.66673300       0.00000000 </v>
   <v>       0.99996700       0.66673300       0.00000000 </v>
   <v>       0.11109200       0.11114900       0.91545900 </v>
   <v>       0.44442600       0.11114900       0.91545900 </v>
   <v>       0.77775900       0.11114900       0.91545900 </v>
   <v>       0.11109200       0.44448200       0.91545900 </v>
   <v>       0.44442600       0.44448200       0.91545900 </v>
   <v>       0.77775900       0.44448200       0.91545900 </v>
   <v>       0.11109200       0.77781500       0.91545900 </v>
   <v>       0.44442600       0.77781500       0.91545900 </v>
   <v>       0.77775900       0.77781500       0.91545900 </v>
   <v>       0.11109200       0.11114900       0.08454100 </v>
   <v>       0.44442600       0.11114900       0.08454100 </v>
   <v>       0.77775900       0.11114900       0.08454100 </v>
   <v>       0.11109200       0.44448200       0.08454100 </v>
   <v>       0.44442600       0.44448200       0.08454100 </v>
   <v>       0.77775900       0.44448200       0.08454100 </v>
   <v>       0.11109200       0.77781500       0.08454100 </v>
   <v>       0.44442600       0.77781500       0.08454100 </v>
   <v>       0.77775900       0.77781500       0.08454100 </v>
  </varray>
 </structure>
 <calculation>
  <scstep>
   <time name="dav">  259.32  259.95</time>
   <time name="total">  259.72  260.36</time>
   <energy>
    <i name="alphaZ">    206.49012646 </i>
    <i name="ewald">  19424.41326973 </i>
    <i name="hartreedc"> -25374.65791977 </i>
    <i name="XCdc">   -439.16813633 </i>
    <i name="pawpsdc">   3546.74135395 </i>
    <i name="pawaedc">  -2766.52518036 </i>
    <i name="eentropy">     -0.00056281 </i>
    <i name="bandstr">    350.89243805 </i>
    <i name="atom">   6466.84281893 </i>
    <i name="e_fr_energy">   1415.02820785 </i>
    <i name="e_wo_entrp">   1415.02877065 </i>
    <i name="e_0_energy">   1415.02848925 </i>
   </energy>
  </scstep>
  <scstep>
   <time name="dav">  380.82  381.76</time>
   <time name="total">  380.82  381.77</time>
   <energy>
    <i name="e_fr_energy">     19.71512083 </i>
    <i name="e_wo_entrp">     19.71512083 </i>
    <i name="e_0_energy">     19.71512083 </i>
   </energy>
  </scstep>
  <scstep>
   <time name="dav">  294.29  295.02</time>
   <time name="total">  294.29  295.02</time>
   <energy>
    <i name="e_fr_energy">   -195.07014249 </i>
    <i name="e_wo_entrp">   -195.07014249 </i>
    <i name="e_0_energy">   -195.07014249 </i>
   </energy>
  </scstep>
  <scstep>
   <time name="dav">  322.47  323.27</time>
   <time name="total">  322.47  323.27</time>
   <energy>
    <i name="e_fr_energy">   -203.86905335 </i>
    <i name="e_wo_entrp">   -203.86905335 </i>
    <i name="e_0_energy">   -203.86905335 </i>
   </energy>
  </scstep>
  <scstep>
   <time name="dav">  360.17  361.06</time>
   <time name="total">  372.45  373.38</time>
   <energy>
    <i name="e_fr_energy">   -204.16768310 </i>
    <i name="e_wo_entrp">   -204.16768310 </i>
    <i name="e_0_energy">   -204.16768310 </i>
   </energy>
  </scstep>
  <scstep>
   <time name="dav">  348.51  349.35</time>
   <time name="total">  360.52  361.42</time>
   <energy>
    <i name="e_fr_energy">   -196.81908350 </i>
    <i name="e_wo_entrp">   -196.81908350 </i>
    <i name="e_0_energy">   -196.81908350 </i>
   </energy>
  </scstep>
  <scstep>
   <time name="dav">  337.41  338.23</time>
   <time name="total">  350.05  350.91</time>
   <energy>
    <i name="e_fr_energy">   -195.22000004 </i>
    <i name="e_wo_entrp">   -195.22000004 </i>
    <i name="e_0_energy">   -195.22000004 </i>
   </energy>
  </scstep>
  <scstep>
   <time name="dav">  298.86  299.58</time>
   <time name="total">  311.43  312.20</time>
   <energy>
    <i name="e_fr_energy">   -194.74617134 </i>
    <i name="e_wo_entrp">   -194.74617134 </i>
    <i name="e_0_energy">   -194.74617134 </i>
   </energy>
  </scstep>
  <scstep>
   <time name="dav">  350.53  351.37</time>
   <time name="total">  362.59  363.49</time>
   <energy>
    <i name="e_fr_energy">   -194.73008785 </i>
    <i name="e_wo_entrp">   -194.73008785 </i>
    <i name="e_0_energy">   -194.73008785 </i>
   </energy>
  </scstep>
  <scstep>
   <time name="dav">  345.04  345.87</time>
   <time name="total">  357.00  357.88</time>
   <energy>
    <i name="e_fr_energy">   -194.70120895 </i>
    <i name="e_wo_entrp">   -194.70120895 </i>
    <i name="e_0_energy">   -194.70120895 </i>
   </energy>
  </scstep>
  <scstep>
   <time name="dav">  343.32  344.15</time>
   <time name="total">  355.34  356.22</time>
   <energy>
    <i name="e_fr_energy">   -194.69517780 </i>
    <i name="e_wo_entrp">   -194.69517780 </i>
    <i name="e_0_energy">   -194.69517780 </i>
   </energy>
  </scstep>
  <scstep>
   <time name="dav">  350.10  350.94</time>
   <time name="total">  362.12  363.02</time>
   <energy>
    <i name="e_fr_energy">   -194.69015930 </i>
    <i name="e_wo_entrp">   -194.69015930 </i>
    <i name="e_0_energy">   -194.69015930 </i>
   </energy>
  </scstep>
  <scstep>
   <time name="dav">  304.80  305.54</time>
   <time name="total">  316.85  317.63</time>
   <energy>
    <i name="e_fr_energy">   -194.68021015 </i>
    <i name="e_wo_entrp">   -194.68021015 </i>
    <i name="e_0_energy">   -194.68021015 </i>
   </energy>
  </scstep>
  <scstep>
   <time name="dav">  346.68  347.52</time>
   <time name="total">  358.69  359.58</time>
   <energy>
    <i name="e_fr_energy">   -194.67804302 </i>
    <i name="e_wo_entrp">   -194.67804302 </i>
    <i name="e_0_energy">   -194.67804302 </i>
   </energy>
  </scstep>
  <scstep>
   <time name="dav">  304.32  305.06</time>
   <time name="total">  316.32  317.11</time>
   <energy>
    <i name="e_fr_energy">   -194.67393534 </i>
    <i name="e_wo_entrp">   -194.67393534 </i>
    <i name="e_0_energy">   -194.67393534 </i>
   </energy>
  </scstep>
  <scstep>
   <time name="dav">  316.28  317.05</time>
   <time name="total">  328.29  329.10</time>
   <energy>
    <i name="e_fr_energy">   -194.67478358 </i>
    <i name="e_wo_entrp">   -194.67478358 </i>
    <i name="e_0_energy">   -194.67478358 </i>
   </energy>
  </scstep>
  <scstep>
   <time name="dav">  313.05  313.81</time>
   <time name="total">  325.05  325.86</time>
   <energy>
    <i name="e_fr_energy">   -194.68127762 </i>
    <i name="e_wo_entrp">   -194.68127762 </i>
    <i name="e_0_energy">   -194.68127762 </i>
   </energy>
  </scstep>
  <scstep>
   <time name="dav">  323.58  324.36</time>
   <time name="total">  340.09  340.93</time>
   <energy>
    <i name="e_fr_energy">   -194.68614889 </i>
    <i name="e_wo_entrp">   -194.68614889 </i>
    <i name="e_0_energy">   -194.68614889 </i>
   </energy>
  </scstep>
  <scstep>
   <time name="dav">  341.96  342.78</time>
   <time name="total">  358.07  358.96</time>
   <energy>
    <i name="e_fr_energy">   -194.68856428 </i>
    <i name="e_wo_entrp">   -194.68856428 </i>
    <i name="e_0_energy">   -194.68856428 </i>
   </energy>
  </scstep>
  <scstep>
   <time name="dav">  325.90  326.69</time>
   <time name="total">  337.89  338.73</time>
   <energy>
    <i name="e_fr_energy">   -194.68955299 </i>
    <i name="e_wo_entrp">   -194.68955299 </i>
    <i name="e_0_energy">   -194.68955299 </i>
   </energy>
  </scstep>
  <scstep>
   <time name="dav">  308.69  309.44</time>
   <time name="total">  320.53  321.33</time>
   <energy>
    <i name="e_fr_energy">   -194.69029477 </i>
    <i name="e_wo_entrp">   -194.69029477 </i>
    <i name="e_0_energy">   -194.69029477 </i>
   </energy>
  </scstep>
  <scstep>
   <time name="dav">  315.85  316.61</time>
   <time name="total">  327.68  328.50</time>
   <energy>
    <i name="e_fr_energy">   -194.69044489 </i>
    <i name="e_wo_entrp">   -194.69044489 </i>
    <i name="e_0_energy">   -194.69044489 </i>
   </energy>
  </scstep>
  <scstep>
   <time name="dav">  305.09  305.83</time>
   <time name="total">  316.91  317.70</time>
   <energy>
    <i name="e_fr_energy">   -194.69049685 </i>
    <i name="e_wo_entrp">   -194.69049685 </i>
    <i name="e_0_energy">   -194.69049685 </i>
   </energy>
  </scstep>
  <scstep>
   <time name="dav">  308.76  309.51</time>
   <time name="total">  320.59  321.39</time>
   <energy>
    <i name="e_fr_energy">   -194.69052942 </i>
    <i name="e_wo_entrp">   -194.69052942 </i>
    <i name="e_0_energy">   -194.69052942 </i>
   </energy>
  </scstep>
  <scstep>
   <time name="dav">  314.00  314.76</time>
   <time name="total">  325.81  326.62</time>
   <energy>
    <i name="e_fr_energy">   -194.69053744 </i>
    <i name="e_wo_entrp">   -194.69053744 </i>
    <i name="e_0_energy">   -194.69053744 </i>
   </energy>
  </scstep>
  <scstep>
   <time name="dav">  305.98  306.72</time>
   <time name="total">  317.78  318.57</time>
   <energy>
    <i name="e_fr_energy">   -194.69054187 </i>
    <i name="e_wo_entrp">   -194.69054187 </i>
    <i name="e_0_energy">   -194.69054187 </i>
   </energy>
  </scstep>
  <scstep>
   <time name="dav">  298.78  299.50</time>
   <time name="total">  310.60  311.38</time>
   <energy>
    <i name="e_fr_energy">   -194.69054275 </i>
    <i name="e_wo_entrp">   -194.69054275 </i>
    <i name="e_0_energy">   -194.69054275 </i>
   </energy>
  </scstep>
  <scstep>
   <time name="dav">  272.39  273.05</time>
   <time name="total">  284.21  284.92</time>
   <energy>
    <i name="e_fr_energy">   -194.69054343 </i>
    <i name="e_wo_entrp">   -194.69054343 </i>
    <i name="e_0_energy">   -194.69054343 </i>
   </energy>
  </scstep>
  <scstep>
   <time name="dav">  287.44  288.14</time>
   <time name="total">  299.28  300.03</time>
   <energy>
    <i name="e_fr_energy">   -194.69054386 </i>
    <i name="e_wo_entrp">   -194.69054386 </i>
    <i name="e_0_energy">   -194.69054386 </i>
   </energy>
  </scstep>
  <scstep>
   <time name="dav">  249.80  250.40</time>
   <time name="total">  261.65  262.30</time>
   <energy>
    <i name="e_fr_energy">   -194.69054392 </i>
    <i name="e_wo_entrp">   -194.69054392 </i>
    <i name="e_0_energy">   -194.69054392 </i>
   </energy>
  </scstep>
  <scstep>
   <time name="dav">  231.74  232.30</time>
   <time name="total">  243.60  244.21</time>
   <energy>
    <i name="e_fr_energy">   -194.69054395 </i>
    <i name="e_wo_entrp">   -194.69054395 </i>
    <i name="e_0_energy">   -194.69054395 </i>
   </energy>
  </scstep>
  <scstep>
   <time name="dav">  235.38  235.95</time>
   <time name="total">  249.35  249.97</time>
   <energy>
    <i name="e_fr_energy">   -194.69054396 </i>
    <i name="e_wo_entrp">   -194.69054396 </i>
    <i name="e_0_energy">   -194.69054396 </i>
   </energy>
  </scstep>
  <scstep>
   <time name="dav">  252.86  253.47</time>
   <time name="total">  253.25  253.88</time>
   <energy>
    <i name="alphaZ">    206.49012646 </i>
    <i name="ewald">  19424.41326973 </i>
    <i name="hartreedc"> -25485.54356232 </i>
    <i name="XCdc">   -429.53056773 </i>
    <i name="pawpsdc">   4194.74673307 </i>
    <i name="pawaedc">  -3428.72370152 </i>
    <i name="eentropy">     -0.00000000 </i>
    <i name="bandstr">  -1143.38566058 </i>
    <i name="atom">   6466.84281893 </i>
    <i name="e_fr_energy">   -194.69054397 </i>
    <i name="e_wo_entrp">   -194.69054397 </i>
    <i name="e_0_energy">   -194.69054397 </i>
   </energy>
  </scstep>
  <structure>
   <crystal>
    <varray name="basis" >
     <v>       9.84600000       0.00000000       0.00000000 </v>
     <v>       4.92300000       8.52144000       0.00000000 </v>
     <v>       0.00000000       0.00000000      20.00000000 </v>
    </varray>
    <i name="volume">   1678.04196480 </i>
    <varray name="rec_basis" >
     <v>       0.10156409      -0.05867553       0.00000000 </v>
     <v>       0.00000000       0.11735106       0.00000000 </v>
     <v>       0.00000000       0.00000000       0.05000000 </v>
    </varray>
   </crystal>
   <varray name="positions" >
    <v>       0.33330000       0.99961800       0.99955100 </v>
    <v>       0.66663300       0.00006700       0.00000000 </v>
    <v>       0.99996700       0.00006700       0.00000000 </v>
    <v>       0.33330000       0.33340000       0.00000000 </v>
    <v>       0.66663300       0.33340000       0.00000000 </v>
    <v>       0.99996700       0.33340000       0.00000000 </v>
    <v>       0.33330000       0.66673300       0.00000000 </v>
    <v>       0.66663300       0.66673300       0.00000000 </v>
    <v>       0.99996700       0.66673300       0.00000000 </v>
    <v>       0.11109200       0.11114900       0.91545900 </v>
    <v>       0.44442600       0.11114900       0.91545900 </v>
    <v>       0.77775900       0.11114900       0.91545900 </v>
    <v>       0.11109200       0.44448200       0.91545900 </v>
    <v>       0.44442600       0.44448200       0.91545900 </v>
    <v>       0.77775900       0.44448200       0.91545900 </v>
    <v>       0.11109200       0.77781500       0.91545900 </v>
    <v>       0.44442600       0.77781500       0.91545900 </v>
    <v>       0.77775900       0.77781500       0.91545900 </v>
    <v>       0.11109200       0.11114900       0.08454100 </v>
    <v>       0.44442600       0.11114900       0.08454100 </v>
    <v>       0.77775900       0.11114900       0.08454100 </v>
    <v>       0.11109200       0.44448200       0.08454100 </v>
    <v>       0.44442600       0.44448200       0.08454100 </v>
    <v>       0.77775900       0.44448200       0.08454100 </v>
    <v>       0.11109200       0.77781500       0.08454100 </v>
    <v>       0.44442600       0.77781500       0.08454100 </v>
    <v>       0.77775900       0.77781500       0.08454100 </v>
   </varray>
  </structure>
  <varray name="forces" >
   <v>       0.04697672       0.08174366       0.23374557 </v>
   <v>       0.00299207      -0.00356220       0.00382639 </v>
   <v>      -0.00504687       0.00088328       0.00381370 </v>
   <v>      -0.00483506       0.00055953       0.00383726 </v>
   <v>      -0.00059726      -0.00120367       0.00029031 </v>
   <v>       0.00321874      -0.00367681       0.00386688 </v>
   <v>       0.00279021      -0.00406500       0.00381174 </v>
   <v>      -0.00424533       0.00069236       0.00385440 </v>
   <v>      -0.00078983      -0.00119229       0.00029012 </v>
   <v>      -0.02994232       0.01164106      -0.04014131 </v>
   <v>       0.01189032       0.00405447      -0.02554352 </v>
   <v>      -0.00023719      -0.00071248      -0.00101141 </v>
   <v>       0.00094161       0.00002505      -0.00159569 </v>
   <v>      -0.00068476      -0.00016887      -0.00095750 </v>
   <v>       0.00030107      -0.00010425      -0.00083533 </v>
   <v>      -0.00227332      -0.00026949      -0.00268536 </v>
   <v>      -0.00249190      -0.05141240      -0.05496109 </v>
   <v>       0.00183936       0.00102857      -0.00209005 </v>
   <v>       0.02425211      -0.01968224      -0.03931574 </v>
   <v>      -0.04149815      -0.02677740      -0.05310735 </v>
   <v>      -0.00022302       0.00020520      -0.00090586 </v>
   <v>       0.00094969      -0.00213977      -0.00274432 </v>
   <v>       0.00012055      -0.00060089      -0.00097193 </v>
   <v>      -0.00049142      -0.00054518      -0.00111818 </v>
   <v>      -0.00035779       0.00084919      -0.00166158 </v>
   <v>      -0.00251488       0.01229294      -0.02543675 </v>
   <v>      -0.00004336       0.00213765      -0.00225340 </v>
  </varray>
  <varray name="stress" >
   <v>       7.89855030      -0.01485053       0.00097123 </v>
   <v>      -0.01485052       8.28972536       0.00197564 </v>
   <v>       0.00097123       0.00197566      -0.00503939 </v>
  </varray>
  <energy>
   <i name="e_fr_energy">   -194.69054397 </i>
   <i name="e_wo_entrp">   -194.69054397 </i>
   <i name="e_0_energy">     -0.00000000 </i>
  </energy>
  <time name="totalsc">10932.1810959.44</time>
  <eigenvalues>
   <array>
    <dimension dim="1">band</dimension>
    <dimension dim="2">kpoint</dimension>
    <dimension dim="3">spin</dimension>
    <field>eigene</field>
    <field>occ</field>
    <set>
     <set comment="spin 1">
      <set comment="kpoint 1">
       <r>  -16.5476    1.0000 </r>
       <r>  -15.3662    1.0000 </r>
       <r>  -15.1784    1.0000 </r>
       <r>  -15.1763    1.0000 </r>
       <r>  -15.1763    1.0000 </r>
       <r>  -15.1757    1.0000 </r>
       <r>  -15.1748    1.0000 </r>
       <r>  -15.1729    1.0000 </r>
       <r>  -14.6276    1.0000 </r>
       <r>  -14.6257    1.0000 </r>
       <r>  -14.6257    1.0000 </r>
       <r>  -14.6249    1.0000 </r>
       <r>  -14.6241    1.0000 </r>
       <r>  -14.6226    1.0000 </r>
       <r>  -14.2406    1.0000 </r>
       <r>  -14.2396    1.0000 </r>
       <r>  -14.1211    1.0000 </r>
       <r>  -14.1189    1.0000 </r>
       <r>   -8.0046    1.0000 </r>
       <r>   -7.2254    1.0000 </r>
       <r>   -7.2245    1.0000 </r>
       <r>   -7.2242    1.0000 </r>
       <r>   -7.2236    1.0000 </r>
       <r>   -7.2232    1.0000 </r>
       <r>   -7.2218    1.0000 </r>
       <r>   -7.1664    1.0000 </r>
       <r>   -7.1651    1.0000 </r>
       <r>   -7.0471    1.0000 </r>
       <r>   -7.0471    1.0000 </r>
       <r>   -6.2072    1.0000 </r>
       <r>   -6.2052    1.0000 </r>
       <r>   -6.2050    1.0000 </r>
       <r>   -6.2046    1.0000 </r>
       <r>   -6.2035    1.0000 </r>
       <r>   -6.2016    1.0000 </r>
       <r>   -6.1641    1.0000 </r>
       <r>   -6.1632    1.0000 </r>
       <r>   -6.1588    1.0000 </r>
       <r>   -6.1574    1.0000 </r>
       <r>   -6.1569    1.0000 </r>
       <r>   -6.1569    1.0000 </r>
       <r>   -6.1551    1.0000 </r>
       <r>   -6.1541    1.0000 </r>
       <r>   -5.5019    1.0000 </r>
       <r>   -5.5011    1.0000 </r>
       <r>   -5.1230    1.0000 </r>
       <r>   -5.1229    1.0000 </r>
       <r>   -4.3739    1.0000 </r>
       <r>   -4.3721    1.0000 </r>
       <r>   -4.3695    1.0000 </r>
       <r>   -4.3667    1.0000 </r>
       <r>   -4.3660    1.0000 </r>
       <r>   -4.3653    1.0000 </r>
       <r>   -4.1783    1.0000 </r>
       <r>   -4.1754    1.0000 </r>
       <r>   -4.0501    1.0000 </r>
       <r>   -4.0466    1.0000 </r>
       <r>   -4.0386    1.0000 </r>
       <r>   -3.7927    1.0000 </r>
       <r>   -3.7913    1.0000 </r>
       <r>   -3.7908    1.0000 </r>
       <r>   -3.7902    1.0000 </r>
       <r>   -3.7893    1.0000 </r>
       <r>   -3.7883    1.0000 </r>
       <r>   -3.0440    1.0000 </r>
       <r>   -3.0427    1.0000 </r>
       <r>   -3.0424    1.0000 </r>
       <r>   -3.0415    1.0000 </r>
       <r>   -3.0409    1.0000 </r>
       <r>   -3.0397    1.0000 </r>
       <r>   -2.9168    1.0000 </r>
       <r>   -2.9141    1.0000 </r>
       <r>   -2.9066    1.0000 </r>
       <r>   -2.9026    1.0000 </r>
       <r>   -2.9005    1.0000 </r>
       <r>   -2.8993    1.0000 </r>
       <r>   -2.8979    1.0000 </r>
       <r>   -2.8950    1.0000 </r>
       <r>   -2.2359    1.0000 </r>
       <r>   -1.7755    1.0000 </r>
       <r>   -1.7739    1.0000 </r>
       <r>   -0.0866    0.0000 </r>
       <r>   -0.0865    0.0000 </r>
       <r>    0.3209    0.0000 </r>
       <r>    0.3239    0.0000 </r>
       <r>    0.3246    0.0000 </r>
       <r>    0.3249    0.0000 </r>
       <r>    0.3255    0.0000 </r>
       <r>    0.3286    0.0000 </r>
       <r>    0.5351    0.0000 </r>
       <r>    0.5370    0.0000 </r>
       <r>    0.5382    0.0000 </r>
       <r>    0.5397    0.0000 </r>
       <r>    0.5404    0.0000 </r>
       <r>    0.5418    0.0000 </r>
       <r>    0.9507    0.0000 </r>
       <r>    0.9509    0.0000 </r>
       <r>    1.2264    0.0000 </r>
       <r>    1.2345    0.0000 </r>
       <r>    1.3718    0.0000 </r>
       <r>    1.3910    0.0000 </r>
       <r>    1.4520    0.0000 </r>
      </set>
      <set comment="kpoint 2">
       <r>  -16.5438    1.0000 </r>
       <r>  -15.3641    1.0000 </r>
       <r>  -15.2755    1.0000 </r>
       <r>  -15.2241    1.0000 </r>
       <r>  -15.2216    1.0000 </r>
       <r>  -15.1261    1.0000 </r>
       <r>  -15.1234    1.0000 </r>
       <r>  -15.0794    1.0000 </r>
       <r>  -14.6772    1.0000 </r>
       <r>  -14.6501    1.0000 </r>
       <r>  -14.6483    1.0000 </r>
       <r>  -14.5995    1.0000 </r>
       <r>  -14.5976    1.0000 </r>
       <r>  -14.5759    1.0000 </r>
       <r>  -14.2440    1.0000 </r>
       <r>  -14.2429    1.0000 </r>
       <r>  -14.1230    1.0000 </r>
       <r>  -14.1208    1.0000 </r>
       <r>   -7.9996    1.0000 </r>
       <r>   -7.3575    1.0000 </r>
       <r>   -7.2878    1.0000 </r>
       <r>   -7.2866    1.0000 </r>
       <r>   -7.1631    1.0000 </r>
       <r>   -7.1617    1.0000 </r>
       <r>   -7.1576    1.0000 </r>
       <r>   -7.1560    1.0000 </r>
       <r>   -7.1006    1.0000 </r>
       <r>   -7.0653    1.0000 </r>
       <r>   -7.0649    1.0000 </r>
       <r>   -6.2862    1.0000 </r>
       <r>   -6.2457    1.0000 </r>
       <r>   -6.2268    1.0000 </r>
       <r>   -6.2241    1.0000 </r>
       <r>   -6.2220    1.0000 </r>
       <r>   -6.2211    1.0000 </r>
       <r>   -6.1810    1.0000 </r>
       <r>   -6.1781    1.0000 </r>
       <r>   -6.1577    1.0000 </r>
       <r>   -6.1382    1.0000 </r>
       <r>   -6.1377    1.0000 </r>
       <r>   -6.0900    1.0000 </r>
       <r>   -6.0890    1.0000 </r>
       <r>   -6.0226    1.0000 </r>
       <r>   -5.4994    1.0000 </r>
       <r>   -5.4986    1.0000 </r>
       <r>   -5.1251    1.0000 </r>
       <r>   -5.1247    1.0000 </r>
       <r>   -4.4270    1.0000 </r>
       <r>   -4.4213    1.0000 </r>
       <r>   -4.4159    1.0000 </r>
       <r>   -4.3608    1.0000 </r>
       <r>   -4.3561    1.0000 </r>
       <r>   -4.3015    1.0000 </r>
       <r>   -4.1727    1.0000 </r>
       <r>   -4.1698    1.0000 </r>
       <r>   -4.0587    1.0000 </r>
       <r>   -4.0571    1.0000 </r>
       <r>   -4.0363    1.0000 </r>
       <r>   -3.8314    1.0000 </r>
       <r>   -3.7986    1.0000 </r>
       <r>   -3.7970    1.0000 </r>
       <r>   -3.7530    1.0000 </r>
       <r>   -3.7518    1.0000 </r>
       <r>   -3.7449    1.0000 </r>
       <r>   -3.0936    1.0000 </r>
       <r>   -3.0916    1.0000 </r>
       <r>   -3.0868    1.0000 </r>
       <r>   -3.0838    1.0000 </r>
       <r>   -3.0528    1.0000 </r>
       <r>   -3.0165    1.0000 </r>
       <r>   -2.9608    1.0000 </r>
       <r>   -2.9186    1.0000 </r>
       <r>   -2.9133    1.0000 </r>
       <r>   -2.8865    1.0000 </r>
       <r>   -2.8827    1.0000 </r>
       <r>   -2.8440    1.0000 </r>
       <r>   -2.8413    1.0000 </r>
       <r>   -2.8349    1.0000 </r>
       <r>   -2.2364    1.0000 </r>
       <r>   -1.7856    1.0000 </r>
       <r>   -1.7841    1.0000 </r>
       <r>   -0.0739    0.0000 </r>
       <r>   -0.0735    0.0000 </r>
       <r>    0.2617    0.0000 </r>
       <r>    0.2770    0.0000 </r>
       <r>    0.2794    0.0000 </r>
       <r>    0.3388    0.0000 </r>
       <r>    0.3428    0.0000 </r>
       <r>    0.3935    0.0000 </r>
       <r>    0.5426    0.0000 </r>
       <r>    0.5434    0.0000 </r>
       <r>    0.5488    0.0000 </r>
       <r>    0.5525    0.0000 </r>
       <r>    0.5548    0.0000 </r>
       <r>    0.5564    0.0000 </r>
       <r>    0.9558    0.0000 </r>
       <r>    0.9559    0.0000 </r>
       <r>    1.2170    0.0000 </r>
       <r>    1.2390    0.0000 </r>
       <r>    1.3473    0.0000 </r>
       <r>    1.3704    0.0000 </r>
       <r>    1.3936    0.0000 </r>
      </set>
      <set comment="kpoint 3">
       <r>  -16.5325    1.0000 </r>
       <r>  -15.3760    1.0000 </r>
       <r>  -15.3578    1.0000 </r>
       <r>  -15.2677    1.0000 </r>
       <r>  -15.2653    1.0000 </r>
       <r>  -15.0725    1.0000 </r>
       <r>  -15.0697    1.0000 </r>
       <r>  -14.9862    1.0000 </r>
       <r>  -14.7297    1.0000 </r>
       <r>  -14.6725    1.0000 </r>
       <r>  -14.6709    1.0000 </r>
       <r>  -14.5717    1.0000 </r>
       <r>  -14.5697    1.0000 </r>
       <r>  -14.5285    1.0000 </r>
       <r>  -14.2541    1.0000 </r>
       <r>  -14.2529    1.0000 </r>
       <r>  -14.1288    1.0000 </r>
       <r>  -14.1266    1.0000 </r>
       <r>   -7.9847    1.0000 </r>
       <r>   -7.4914    1.0000 </r>
       <r>   -7.3476    1.0000 </r>
       <r>   -7.3466    1.0000 </r>
       <r>   -7.1501    1.0000 </r>
       <r>   -7.1488    1.0000 </r>
       <r>   -7.1135    1.0000 </r>
       <r>   -7.1126    1.0000 </r>
       <r>   -7.0915    1.0000 </r>
       <r>   -7.0896    1.0000 </r>
       <r>   -7.0026    1.0000 </r>
       <r>   -6.4073    1.0000 </r>
       <r>   -6.2849    1.0000 </r>
       <r>   -6.2839    1.0000 </r>
       <r>   -6.2636    1.0000 </r>
       <r>   -6.2440    1.0000 </r>
       <r>   -6.2411    1.0000 </r>
       <r>   -6.1532    1.0000 </r>
       <r>   -6.1503    1.0000 </r>
       <r>   -6.1119    1.0000 </r>
       <r>   -6.0732    1.0000 </r>
       <r>   -6.0726    1.0000 </r>
       <r>   -6.0201    1.0000 </r>
       <r>   -6.0190    1.0000 </r>
       <r>   -5.8837    1.0000 </r>
       <r>   -5.4904    1.0000 </r>
       <r>   -5.4895    1.0000 </r>
       <r>   -5.1307    1.0000 </r>
       <r>   -5.1300    1.0000 </r>
       <r>   -4.4958    1.0000 </r>
       <r>   -4.4904    1.0000 </r>
       <r>   -4.4814    1.0000 </r>
       <r>   -4.3860    1.0000 </r>
       <r>   -4.3820    1.0000 </r>
       <r>   -4.2316    1.0000 </r>
       <r>   -4.1563    1.0000 </r>
       <r>   -4.1535    1.0000 </r>
       <r>   -4.0929    1.0000 </r>
       <r>   -4.0833    1.0000 </r>
       <r>   -4.0254    1.0000 </r>
       <r>   -3.8664    1.0000 </r>
       <r>   -3.7866    1.0000 </r>
       <r>   -3.7851    1.0000 </r>
       <r>   -3.6933    1.0000 </r>
       <r>   -3.6853    1.0000 </r>
       <r>   -3.6842    1.0000 </r>
       <r>   -3.1811    1.0000 </r>
       <r>   -3.1795    1.0000 </r>
       <r>   -3.1784    1.0000 </r>
       <r>   -3.1749    1.0000 </r>
       <r>   -3.0475    1.0000 </r>
       <r>   -3.0267    1.0000 </r>
       <r>   -2.9751    1.0000 </r>
       <r>   -2.9392    1.0000 </r>
       <r>   -2.9091    1.0000 </r>
       <r>   -2.8317    1.0000 </r>
       <r>   -2.8286    1.0000 </r>
       <r>   -2.7933    1.0000 </r>
       <r>   -2.7587    1.0000 </r>
       <r>   -2.7526    1.0000 </r>
       <r>   -2.2380    1.0000 </r>
       <r>   -1.8148    1.0000 </r>
       <r>   -1.8132    1.0000 </r>
       <r>   -0.0375    0.0000 </r>
       <r>   -0.0367    0.0000 </r>
       <r>    0.2065    0.0000 </r>
       <r>    0.2156    0.0000 </r>
       <r>    0.2173    0.0000 </r>
       <r>    0.3268    0.0000 </r>
       <r>    0.3310    0.0000 </r>
       <r>    0.4672    0.0000 </r>
       <r>    0.5536    0.0000 </r>
       <r>    0.5541    0.0000 </r>
       <r>    0.5739    0.0000 </r>
       <r>    0.5782    0.0000 </r>
       <r>    0.6010    0.0000 </r>
       <r>    0.6014    0.0000 </r>
       <r>    0.9707    0.0000 </r>
       <r>    0.9710    0.0000 </r>
       <r>    1.1834    0.0000 </r>
       <r>    1.2597    0.0000 </r>
       <r>    1.2790    0.0000 </r>
       <r>    1.2922    0.0000 </r>
       <r>    1.3421    0.0000 </r>
      </set>
      <set comment="kpoint 4">
       <r>  -16.5136    1.0000 </r>
       <r>  -15.4763    1.0000 </r>
       <r>  -15.3474    1.0000 </r>
       <r>  -15.3073    1.0000 </r>
       <r>  -15.3050    1.0000 </r>
       <r>  -15.0164    1.0000 </r>
       <r>  -15.0135    1.0000 </r>
       <r>  -14.8980    1.0000 </r>
       <r>  -14.7827    1.0000 </r>
       <r>  -14.6928    1.0000 </r>
       <r>  -14.6913    1.0000 </r>
       <r>  -14.5425    1.0000 </r>
       <r>  -14.5404    1.0000 </r>
       <r>  -14.4841    1.0000 </r>
       <r>  -14.2708    1.0000 </r>
       <r>  -14.2694    1.0000 </r>
       <r>  -14.1383    1.0000 </r>
       <r>  -14.1361    1.0000 </r>
       <r>   -7.9599    1.0000 </r>
       <r>   -7.6202    1.0000 </r>
       <r>   -7.4024    1.0000 </r>
       <r>   -7.4016    1.0000 </r>
       <r>   -7.1788    1.0000 </r>
       <r>   -7.1777    1.0000 </r>
       <r>   -7.1297    1.0000 </r>
       <r>   -7.1283    1.0000 </r>
       <r>   -7.0258    1.0000 </r>
       <r>   -7.0238    1.0000 </r>
       <r>   -6.9508    1.0000 </r>
       <r>   -6.5194    1.0000 </r>
       <r>   -6.3458    1.0000 </r>
       <r>   -6.3447    1.0000 </r>
       <r>   -6.2572    1.0000 </r>
       <r>   -6.2544    1.0000 </r>
       <r>   -6.2378    1.0000 </r>
       <r>   -6.1227    1.0000 </r>
       <r>   -6.1199    1.0000 </r>
       <r>   -6.0717    1.0000 </r>
       <r>   -5.9861    1.0000 </r>
       <r>   -5.9854    1.0000 </r>
       <r>   -5.9473    1.0000 </r>
       <r>   -5.9463    1.0000 </r>
       <r>   -5.7423    1.0000 </r>
       <r>   -5.4692    1.0000 </r>
       <r>   -5.4683    1.0000 </r>
       <r>   -5.1387    1.0000 </r>
       <r>   -5.1377    1.0000 </r>
       <r>   -4.5829    1.0000 </r>
       <r>   -4.5775    1.0000 </r>
       <r>   -4.5307    1.0000 </r>
       <r>   -4.4389    1.0000 </r>
       <r>   -4.4355    1.0000 </r>
       <r>   -4.1573    1.0000 </r>
       <r>   -4.1521    1.0000 </r>
       <r>   -4.1303    1.0000 </r>
       <r>   -4.1276    1.0000 </r>
       <r>   -4.1229    1.0000 </r>
       <r>   -4.0066    1.0000 </r>
       <r>   -3.8964    1.0000 </r>
       <r>   -3.7672    1.0000 </r>
       <r>   -3.7657    1.0000 </r>
       <r>   -3.6356    1.0000 </r>
       <r>   -3.5985    1.0000 </r>
       <r>   -3.5972    1.0000 </r>
       <r>   -3.2842    1.0000 </r>
       <r>   -3.2824    1.0000 </r>
       <r>   -3.2789    1.0000 </r>
       <r>   -3.2743    1.0000 </r>
       <r>   -3.0968    1.0000 </r>
       <r>   -3.0277    1.0000 </r>
       <r>   -2.9730    1.0000 </r>
       <r>   -2.9211    1.0000 </r>
       <r>   -2.9048    1.0000 </r>
       <r>   -2.7768    1.0000 </r>
       <r>   -2.7739    1.0000 </r>
       <r>   -2.7492    1.0000 </r>
       <r>   -2.6788    1.0000 </r>
       <r>   -2.6733    1.0000 </r>
       <r>   -2.2410    1.0000 </r>
       <r>   -1.8590    1.0000 </r>
       <r>   -1.8574    1.0000 </r>
       <r>    0.0181    0.0000 </r>
       <r>    0.0192    0.0000 </r>
       <r>    0.1498    0.0000 </r>
       <r>    0.1511    0.0000 </r>
       <r>    0.1606    0.0000 </r>
       <r>    0.3061    0.0000 </r>
       <r>    0.3103    0.0000 </r>
       <r>    0.5444    0.0000 </r>
       <r>    0.5691    0.0000 </r>
       <r>    0.5733    0.0000 </r>
       <r>    0.6006    0.0000 </r>
       <r>    0.6050    0.0000 </r>
       <r>    0.6594    0.0000 </r>
       <r>    0.6608    0.0000 </r>
       <r>    0.9953    0.0000 </r>
       <r>    0.9957    0.0000 </r>
       <r>    1.1314    0.0000 </r>
       <r>    1.1823    0.0000 </r>
       <r>    1.1965    0.0000 </r>
       <r>    1.2678    0.0000 </r>
       <r>    1.2790    0.0000 </r>
      </set>
      <set comment="kpoint 5">
       <r>  -16.4874    1.0000 </r>
       <r>  -15.5758    1.0000 </r>
       <r>  -15.3427    1.0000 </r>
       <r>  -15.3405    1.0000 </r>
       <r>  -15.3324    1.0000 </r>
       <r>  -14.9583    1.0000 </r>
       <r>  -14.9553    1.0000 </r>
       <r>  -14.8356    1.0000 </r>
       <r>  -14.8161    1.0000 </r>
       <r>  -14.7108    1.0000 </r>
       <r>  -14.7094    1.0000 </r>
       <r>  -14.5121    1.0000 </r>
       <r>  -14.5099    1.0000 </r>
       <r>  -14.4433    1.0000 </r>
       <r>  -14.2939    1.0000 </r>
       <r>  -14.2923    1.0000 </r>
       <r>  -14.1515    1.0000 </r>
       <r>  -14.1492    1.0000 </r>
       <r>   -7.9254    1.0000 </r>
       <r>   -7.7401    1.0000 </r>
       <r>   -7.4510    1.0000 </r>
       <r>   -7.4505    1.0000 </r>
       <r>   -7.2503    1.0000 </r>
       <r>   -7.2490    1.0000 </r>
       <r>   -7.1017    1.0000 </r>
       <r>   -7.1003    1.0000 </r>
       <r>   -6.9632    1.0000 </r>
       <r>   -6.9611    1.0000 </r>
       <r>   -6.9549    1.0000 </r>
       <r>   -6.6209    1.0000 </r>
       <r>   -6.4055    1.0000 </r>
       <r>   -6.4043    1.0000 </r>
       <r>   -6.2663    1.0000 </r>
       <r>   -6.2635    1.0000 </r>
       <r>   -6.1578    1.0000 </r>
       <r>   -6.0899    1.0000 </r>
       <r>   -6.0871    1.0000 </r>
       <r>   -6.0388    1.0000 </r>
       <r>   -5.8997    1.0000 </r>
       <r>   -5.8988    1.0000 </r>
       <r>   -5.8722    1.0000 </r>
       <r>   -5.8710    1.0000 </r>
       <r>   -5.6001    1.0000 </r>
       <r>   -5.4249    1.0000 </r>
       <r>   -5.4240    1.0000 </r>
       <r>   -5.1476    1.0000 </r>
       <r>   -5.1462    1.0000 </r>
       <r>   -4.6736    1.0000 </r>
       <r>   -4.6684    1.0000 </r>
       <r>   -4.5741    1.0000 </r>
       <r>   -4.5094    1.0000 </r>
       <r>   -4.5065    1.0000 </r>
       <r>   -4.2324    1.0000 </r>
       <r>   -4.1765    1.0000 </r>
       <r>   -4.0963    1.0000 </r>
       <r>   -4.0937    1.0000 </r>
       <r>   -4.0788    1.0000 </r>
       <r>   -3.9803    1.0000 </r>
       <r>   -3.9218    1.0000 </r>
       <r>   -3.7486    1.0000 </r>
       <r>   -3.7472    1.0000 </r>
       <r>   -3.5724    1.0000 </r>
       <r>   -3.5031    1.0000 </r>
       <r>   -3.5017    1.0000 </r>
       <r>   -3.4012    1.0000 </r>
       <r>   -3.3994    1.0000 </r>
       <r>   -3.3773    1.0000 </r>
       <r>   -3.3726    1.0000 </r>
       <r>   -3.1699    1.0000 </r>
       <r>   -3.0187    1.0000 </r>
       <r>   -2.9966    1.0000 </r>
       <r>   -2.9034    1.0000 </r>
       <r>   -2.8560    1.0000 </r>
       <r>   -2.7273    1.0000 </r>
       <r>   -2.7244    1.0000 </r>
       <r>   -2.7113    1.0000 </r>
       <r>   -2.6066    1.0000 </r>
       <r>   -2.6015    1.0000 </r>
       <r>   -2.2462    1.0000 </r>
       <r>   -1.9137    1.0000 </r>
       <r>   -1.9121    1.0000 </r>
       <r>    0.0847    0.0000 </r>
       <r>    0.0854    0.0000 </r>
       <r>    0.0870    0.0000 </r>
       <r>    0.0881    0.0000 </r>
       <r>    0.1257    0.0000 </r>
       <r>    0.2894    0.0000 </r>
       <r>    0.2935    0.0000 </r>
       <r>    0.5880    0.0000 </r>
       <r>    0.6003    0.0000 </r>
       <r>    0.6235    0.0000 </r>
       <r>    0.6250    0.0000 </r>
       <r>    0.6290    0.0000 </r>
       <r>    0.7205    0.0000 </r>
       <r>    0.7228    0.0000 </r>
       <r>    1.0289    0.0000 </r>
       <r>    1.0295    0.0000 </r>
       <r>    1.0626    0.0000 </r>
       <r>    1.0693    0.0000 </r>
       <r>    1.1045    0.0000 </r>
       <r>    1.1811    0.0000 </r>
       <r>    1.1843    0.0000 </r>
      </set>
      <set comment="kpoint 6">
       <r>  -16.4538    1.0000 </r>
       <r>  -15.6735    1.0000 </r>
       <r>  -15.3732    1.0000 </r>
       <r>  -15.3711    1.0000 </r>
       <r>  -15.3142    1.0000 </r>
       <r>  -14.8987    1.0000 </r>
       <r>  -14.8958    1.0000 </r>
       <r>  -14.8878    1.0000 </r>
       <r>  -14.7424    1.0000 </r>
       <r>  -14.7265    1.0000 </r>
       <r>  -14.7251    1.0000 </r>
       <r>  -14.4809    1.0000 </r>
       <r>  -14.4786    1.0000 </r>
       <r>  -14.4070    1.0000 </r>
       <r>  -14.3231    1.0000 </r>
       <r>  -14.3212    1.0000 </r>
       <r>  -14.1680    1.0000 </r>
       <r>  -14.1657    1.0000 </r>
       <r>   -7.8815    1.0000 </r>
       <r>   -7.8482    1.0000 </r>
       <r>   -7.4925    1.0000 </r>
       <r>   -7.4922    1.0000 </r>
       <r>   -7.3206    1.0000 </r>
       <r>   -7.3193    1.0000 </r>
       <r>   -7.0669    1.0000 </r>
       <r>   -7.0654    1.0000 </r>
       <r>   -7.0035    1.0000 </r>
       <r>   -6.9056    1.0000 </r>
       <r>   -6.9034    1.0000 </r>
       <r>   -6.7105    1.0000 </r>
       <r>   -6.4644    1.0000 </r>
       <r>   -6.4632    1.0000 </r>
       <r>   -6.2711    1.0000 </r>
       <r>   -6.2685    1.0000 </r>
       <r>   -6.0552    1.0000 </r>
       <r>   -6.0525    1.0000 </r>
       <r>   -6.0344    1.0000 </r>
       <r>   -6.0134    1.0000 </r>
       <r>   -5.8354    1.0000 </r>
       <r>   -5.8342    1.0000 </r>
       <r>   -5.7952    1.0000 </r>
       <r>   -5.7939    1.0000 </r>
       <r>   -5.4588    1.0000 </r>
       <r>   -5.3437    1.0000 </r>
       <r>   -5.3430    1.0000 </r>
       <r>   -5.1553    1.0000 </r>
       <r>   -5.1537    1.0000 </r>
       <r>   -4.7621    1.0000 </r>
       <r>   -4.7572    1.0000 </r>
       <r>   -4.6116    1.0000 </r>
       <r>   -4.5901    1.0000 </r>
       <r>   -4.5874    1.0000 </r>
       <r>   -4.3323    1.0000 </r>
       <r>   -4.2415    1.0000 </r>
       <r>   -4.0563    1.0000 </r>
       <r>   -4.0539    1.0000 </r>
       <r>   -3.9969    1.0000 </r>
       <r>   -3.9469    1.0000 </r>
       <r>   -3.9428    1.0000 </r>
       <r>   -3.7357    1.0000 </r>
       <r>   -3.7343    1.0000 </r>
       <r>   -3.5316    1.0000 </r>
       <r>   -3.5299    1.0000 </r>
       <r>   -3.5042    1.0000 </r>
       <r>   -3.4699    1.0000 </r>
       <r>   -3.4655    1.0000 </r>
       <r>   -3.4075    1.0000 </r>
       <r>   -3.4061    1.0000 </r>
       <r>   -3.2452    1.0000 </r>
       <r>   -3.0751    1.0000 </r>
       <r>   -2.9576    1.0000 </r>
       <r>   -2.9067    1.0000 </r>
       <r>   -2.7840    1.0000 </r>
       <r>   -2.6841    1.0000 </r>
       <r>   -2.6814    1.0000 </r>
       <r>   -2.6793    1.0000 </r>
       <r>   -2.5428    1.0000 </r>
       <r>   -2.5382    1.0000 </r>
       <r>   -2.2543    1.0000 </r>
       <r>   -1.9741    1.0000 </r>
       <r>   -1.9724    1.0000 </r>
       <r>    0.0245    0.0000 </r>
       <r>    0.0253    0.0000 </r>
       <r>    0.1036    0.0000 </r>
       <r>    0.1602    0.0000 </r>
       <r>    0.1617    0.0000 </r>
       <r>    0.2827    0.0000 </r>
       <r>    0.2867    0.0000 </r>
       <r>    0.6090    0.0000 </r>
       <r>    0.6349    0.0000 </r>
       <r>    0.6438    0.0000 </r>
       <r>    0.6484    0.0000 </r>
       <r>    0.7045    0.0000 </r>
       <r>    0.7797    0.0000 </r>
       <r>    0.7829    0.0000 </r>
       <r>    0.9356    0.0000 </r>
       <r>    0.9980    0.0000 </r>
       <r>    1.0242    0.0000 </r>
       <r>    1.0710    0.0000 </r>
       <r>    1.0718    0.0000 </r>
       <r>    1.0946    0.0000 </r>
       <r>    1.0976    0.0000 </r>
      </set>
      <set comment="kpoint 7">
       <r>  -16.4131    1.0000 </r>
       <r>  -15.7686    1.0000 </r>
       <r>  -15.3991    1.0000 </r>
       <r>  -15.3970    1.0000 </r>
       <r>  -15.2917    1.0000 </r>
       <r>  -14.9390    1.0000 </r>
       <r>  -14.8383    1.0000 </r>
       <r>  -14.8353    1.0000 </r>
       <r>  -14.7397    1.0000 </r>
       <r>  -14.7384    1.0000 </r>
[...]
       <r>   -5.8630    1.0000 </r>
       <r>   -5.8617    1.0000 </r>
       <r>   -5.5876    1.0000 </r>
       <r>   -5.3557    1.0000 </r>
       <r>   -5.1332    1.0000 </r>
       <r>   -5.1302    1.0000 </r>
       <r>   -5.1274    1.0000 </r>
       <r>   -5.1247    1.0000 </r>
       <r>   -5.0672    1.0000 </r>
       <r>   -5.0658    1.0000 </r>
       <r>   -5.0270    1.0000 </r>
       <r>   -4.8504    1.0000 </r>
       <r>   -4.7543    1.0000 </r>
       <r>   -4.7511    1.0000 </r>
       <r>   -4.7193    1.0000 </r>
       <r>   -4.5082    1.0000 </r>
       <r>   -4.5075    1.0000 </r>
       <r>   -4.3597    1.0000 </r>
       <r>   -4.3590    1.0000 </r>
       <r>   -3.9896    1.0000 </r>
       <r>   -3.8553    1.0000 </r>
       <r>   -3.8540    1.0000 </r>
       <r>   -3.8334    1.0000 </r>
       <r>   -3.7710    1.0000 </r>
       <r>   -3.7700    1.0000 </r>
       <r>   -3.6713    1.0000 </r>
       <r>   -3.6593    1.0000 </r>
       <r>   -3.6565    1.0000 </r>
       <r>   -3.5387    1.0000 </r>
       <r>   -3.5350    1.0000 </r>
       <r>   -3.1541    1.0000 </r>
       <r>   -3.0838    1.0000 </r>
       <r>   -3.0830    1.0000 </r>
       <r>   -3.0654    1.0000 </r>
       <r>   -2.8483    1.0000 </r>
       <r>   -2.5813    1.0000 </r>
       <r>   -2.5704    1.0000 </r>
       <r>   -2.5488    1.0000 </r>
       <r>   -2.4053    1.0000 </r>
       <r>   -2.4049    1.0000 </r>
       <r>   -2.3024    1.0000 </r>
       <r>   -2.3020    1.0000 </r>
       <r>   -2.2660    1.0000 </r>
       <r>   -2.2656    1.0000 </r>
       <r>   -0.1558    0.0000 </r>
       <r>   -0.1288    0.0000 </r>
       <r>    0.2858    0.0000 </r>
       <r>    0.2885    0.0000 </r>
       <r>    0.3424    0.0000 </r>
       <r>    0.3437    0.0000 </r>
       <r>    0.4279    0.0000 </r>
       <r>    0.4296    0.0000 </r>
       <r>    0.6597    0.0000 </r>
       <r>    0.6840    0.0000 </r>
       <r>    0.7161    0.0000 </r>
       <r>    0.7677    0.0000 </r>
       <r>    0.7693    0.0000 </r>
       <r>    0.7721    0.0000 </r>
       <r>    0.8492    0.0000 </r>
       <r>    0.9161    0.0000 </r>
       <r>    0.9187    0.0000 </r>
       <r>    1.0074    0.0000 </r>
       <r>    1.0400    0.0000 </r>
       <r>    1.0456    0.0000 </r>
       <r>    1.0800    0.0000 </r>
      </set>
     </set>
    </set>
   </array>
  </eigenvalues>
  <separator name="orbital magnetization" >
   <v name="MAGDIPOLOUT">      0.00000000      0.00000000      0.00000000</v>
  </separator>
  <dos>
   <i name="efermi">     -1.72346456 </i>
   <total>
    <array>
     <dimension dim="1">gridpoints</dimension>
     <dimension dim="2">spin</dimension>
     <field>energy</field>
     <field>total</field>
     <field>integrated</field>
     <set>
      <set comment="spin 1">
       <r>   -17.4476     0.0000     0.0000 </r>
       <r>   -17.3816     0.0000     0.0000 </r>
       <r>   -17.3156     0.0000     0.0000 </r>
       <r>   -17.2496     0.0000     0.0000 </r>
       <r>   -17.1836     0.0000     0.0000 </r>
       <r>   -17.1176     0.0000     0.0000 </r>
       <r>   -17.0516     0.0000     0.0000 </r>
       <r>   -16.9856     0.0000     0.0000 </r>
       <r>   -16.9196     0.0000     0.0000 </r>
       <r>   -16.8536     0.0000     0.0000 </r>
       <r>   -16.7876     0.0000     0.0000 </r>
       <r>   -16.7216     0.0000     0.0000 </r>
       <r>   -16.6556     0.0000     0.0000 </r>
       <r>   -16.5896     0.0000     0.0000 </r>
       <r>   -16.5236     1.5818     0.1044 </r>
       <r>   -16.4576     4.3665     0.3926 </r>
       <r>   -16.3916     4.5870     0.6956 </r>
       <r>   -16.3256     4.1992     0.9731 </r>
       <r>   -16.2596     4.9151     1.2975 </r>
       <r>   -16.1936     4.7253     1.6095 </r>
       <r>   -16.1276     4.7407     1.9230 </r>
       <r>   -16.0616     4.9074     2.2474 </r>
       <r>   -15.9956     4.6440     2.5540 </r>
       <r>   -15.9296     5.2583     2.9011 </r>
       <r>   -15.8636     4.4864     3.1976 </r>
       <r>   -15.7976     4.8021     3.5148 </r>
       <r>   -15.7316     5.3153     3.8666 </r>
       <r>   -15.6656     5.9422     4.2589 </r>
       <r>   -15.5996     5.8048     4.6423 </r>
       <r>   -15.5336     4.9323     4.9680 </r>
       <r>   -15.4676     5.6862     5.3432 </r>
       <r>   -15.4016     6.5735     5.7771 </r>
       <r>   -15.3356     9.8635     6.4285 </r>
       <r>   -15.2696    13.7299     7.3358 </r>
       <r>   -15.2036    15.0464     8.3296 </r>
       <r>   -15.1376    15.8364     9.3750 </r>
       <r>   -15.0716    16.2120    10.4451 </r>
       <r>   -15.0056    15.7446    11.4846 </r>
       <r>   -14.9396    17.5029    12.6400 </r>
       <r>   -14.8736    18.7909    13.8806 </r>
       <r>   -14.8076    20.3101    15.2228 </r>
       <r>   -14.7416    21.1976    16.6220 </r>
       <r>   -14.6756    22.2807    18.0946 </r>
       <r>   -14.6096    26.7107    19.8582 </r>
       <r>   -14.5436    32.2469    21.9879 </r>
       <r>   -14.4776    38.3516    24.5208 </r>
       <r>   -14.4116    31.2194    26.5849 </r>
       <r>   -14.3456    36.9719    29.0268 </r>
       <r>   -14.2796    47.2725    32.1489 </r>
       <r>   -14.2136    31.0362    34.2002 </r>
       <r>   -14.1476    19.8694    35.5143 </r>
       <r>   -14.0816     7.3318    36.0000 </r>
       <r>   -14.0157     0.0000    36.0000 </r>
       <r>   -13.9497     0.0000    36.0000 </r>
       <r>   -13.8837     0.0000    36.0000 </r>
       <r>   -13.8177     0.0000    36.0000 </r>
       <r>   -13.7517     0.0000    36.0000 </r>
       <r>   -13.6857     0.0000    36.0000 </r>
       <r>   -13.6197     0.0000    36.0000 </r>
       <r>   -13.5537     0.0000    36.0000 </r>
       <r>   -13.4877     0.0000    36.0000 </r>
       <r>   -13.4217     0.0000    36.0000 </r>
       <r>   -13.3557     0.0000    36.0000 </r>
       <r>   -13.2897     0.0000    36.0000 </r>
       <r>   -13.2237     0.0000    36.0000 </r>
       <r>   -13.1577     0.0000    36.0000 </r>
       <r>   -13.0917     0.0000    36.0000 </r>
       <r>   -13.0257     0.0000    36.0000 </r>
       <r>   -12.9597     0.0000    36.0000 </r>
       <r>   -12.8937     0.0000    36.0000 </r>
       <r>   -12.8277     0.0000    36.0000 </r>
       <r>   -12.7617     0.0000    36.0000 </r>
       <r>   -12.6957     0.0000    36.0000 </r>
       <r>   -12.6297     0.0000    36.0000 </r>
       <r>   -12.5637     0.0000    36.0000 </r>
       <r>   -12.4977     0.0000    36.0000 </r>
       <r>   -12.4317     0.0000    36.0000 </r>
       <r>   -12.3657     0.0000    36.0000 </r>
       <r>   -12.2997     0.0000    36.0000 </r>
       <r>   -12.2337     0.0000    36.0000 </r>
       <r>   -12.1677     0.0000    36.0000 </r>
       <r>   -12.1017     0.0000    36.0000 </r>
       <r>   -12.0357     0.0000    36.0000 </r>
       <r>   -11.9697     0.0000    36.0000 </r>
       <r>   -11.9037     0.0000    36.0000 </r>
       <r>   -11.8377     0.0000    36.0000 </r>
       <r>   -11.7717     0.0000    36.0000 </r>
       <r>   -11.7057     0.0000    36.0000 </r>
       <r>   -11.6397     0.0000    36.0000 </r>
       <r>   -11.5737     0.0000    36.0000 </r>
       <r>   -11.5077     0.0000    36.0000 </r>
       <r>   -11.4417     0.0000    36.0000 </r>
       <r>   -11.3757     0.0000    36.0000 </r>
       <r>   -11.3097     0.0000    36.0000 </r>
       <r>   -11.2437     0.0000    36.0000 </r>
       <r>   -11.1777     0.0000    36.0000 </r>
       <r>   -11.1117     0.0000    36.0000 </r>
       <r>   -11.0457     0.0000    36.0000 </r>
       <r>   -10.9797     0.0000    36.0000 </r>
       <r>   -10.9137     0.0000    36.0000 </r>
       <r>   -10.8477     0.0000    36.0000 </r>
       <r>   -10.7817     0.0000    36.0000 </r>
       <r>   -10.7157     0.0000    36.0000 </r>
       <r>   -10.6497     0.0000    36.0000 </r>
       <r>   -10.5837     0.0000    36.0000 </r>
       <r>   -10.5177     0.0000    36.0000 </r>
       <r>   -10.4517     0.0000    36.0000 </r>
       <r>   -10.3857     0.0000    36.0000 </r>
       <r>   -10.3197     0.0000    36.0000 </r>
       <r>   -10.2537     0.0000    36.0000 </r>
       <r>   -10.1877     0.0000    36.0000 </r>
       <r>   -10.1218     0.0000    36.0000 </r>
       <r>   -10.0558     0.0000    36.0000 </r>
       <r>    -9.9898     0.0000    36.0000 </r>
       <r>    -9.9238     0.0000    36.0000 </r>
       <r>    -9.8578     0.0000    36.0000 </r>
       <r>    -9.7918     0.0000    36.0000 </r>
       <r>    -9.7258     0.0000    36.0000 </r>
       <r>    -9.6598     0.0000    36.0000 </r>
       <r>    -9.5938     0.0000    36.0000 </r>
       <r>    -9.5278     0.0000    36.0000 </r>
       <r>    -9.4618     0.0000    36.0000 </r>
       <r>    -9.3958     0.0000    36.0000 </r>
       <r>    -9.3298     0.0000    36.0000 </r>
       <r>    -9.2638     0.0000    36.0000 </r>
       <r>    -9.1978     0.0000    36.0000 </r>
       <r>    -9.1318     0.0000    36.0000 </r>
       <r>    -9.0658     0.0000    36.0000 </r>
       <r>    -8.9998     0.0000    36.0000 </r>
       <r>    -8.9338     0.0000    36.0000 </r>
       <r>    -8.8678     0.0000    36.0000 </r>
       <r>    -8.8018     0.0000    36.0000 </r>
       <r>    -8.7358     0.0000    36.0000 </r>
       <r>    -8.6698     0.0000    36.0000 </r>
       <r>    -8.6038     0.0000    36.0000 </r>
       <r>    -8.5378     0.0000    36.0000 </r>
       <r>    -8.4718     0.0000    36.0000 </r>
       <r>    -8.4058     0.0000    36.0000 </r>
       <r>    -8.3398     0.0000    36.0000 </r>
       <r>    -8.2738     0.0000    36.0000 </r>
       <r>    -8.2078     0.0000    36.0000 </r>
       <r>    -8.1418     0.3865    36.0255 </r>
       <r>    -8.0758     6.5999    36.4611 </r>
       <r>    -8.0098     7.7865    36.9750 </r>
       <r>    -7.9438    10.5173    37.6692 </r>
       <r>    -7.8778    10.9213    38.3904 </r>
       <r>    -7.8118    11.2576    39.1350 </r>
       <r>    -7.7458    10.3925    39.8217 </r>
       <r>    -7.6798    12.6641    40.6577 </r>
       <r>    -7.6138    12.8534    41.5071 </r>
       <r>    -7.5478    13.6733    42.4106 </r>
       <r>    -7.4818    12.6937    43.2501 </r>
       <r>    -7.4158    12.8149    44.0962 </r>
       <r>    -7.3498    17.2977    45.2382 </r>
       <r>    -7.2838    22.0869    46.6966 </r>
       <r>    -7.2178    18.6384    47.9281 </r>
       <r>    -7.1518    15.9847    48.9847 </r>
       <r>    -7.0858    22.8286    50.4921 </r>
       <r>    -7.0198    25.8432    52.1996 </r>
       <r>    -6.9538    31.1253    54.2554 </r>
       <r>    -6.8878    39.3698    56.8561 </r>
       <r>    -6.8218    24.0391    58.4461 </r>
       <r>    -6.7558    19.5328    59.7368 </r>
       <r>    -6.6898    11.4999    60.4966 </r>
       <r>    -6.6238     8.9573    61.0880 </r>
       <r>    -6.5578     9.1546    61.6928 </r>
       <r>    -6.4918     5.8520    62.0805 </r>
       <r>    -6.4258     6.4785    62.5081 </r>
       <r>    -6.3598     6.5722    62.9419 </r>
       <r>    -6.2938     7.6468    63.4468 </r>
       <r>    -6.2278    31.4111    65.5198 </r>
       <r>    -6.1619    23.3485    67.0623 </r>
       <r>    -6.0959    23.4674    68.6121 </r>
       <r>    -6.0299    25.3994    70.2895 </r>
       <r>    -5.9639    39.4223    72.8925 </r>
       <r>    -5.8979    42.2001    75.6796 </r>
       <r>    -5.8319    37.1254    78.1312 </r>
       <r>    -5.7659    34.7921    80.4294 </r>
       <r>    -5.6999    10.0823    81.0959 </r>
       <r>    -5.6339     7.4311    81.5877 </r>
       <r>    -5.5679     6.1364    81.9938 </r>
       <r>    -5.5019     7.5843    82.4950 </r>
       <r>    -5.4359    12.8796    83.3457 </r>
       <r>    -5.3699    11.2500    84.0885 </r>
       <r>    -5.3039     9.1130    84.6910 </r>
       <r>    -5.2379    13.9078    85.6094 </r>
       <r>    -5.1719    32.2717    87.7402 </r>
       <r>    -5.1059    44.4552    90.6748 </r>
       <r>    -5.0399    28.2682    92.5425 </r>
       <r>    -4.9739    22.3196    94.0167 </r>
       <r>    -4.9079    24.1252    95.6116 </r>
       <r>    -4.8419    20.8977    96.9921 </r>
       <r>    -4.7759    20.3965    98.3396 </r>
       <r>    -4.7099    27.7852   100.1741 </r>
       <r>    -4.6439    23.4435   101.7226 </r>
       <r>    -4.5779    18.1093   102.9194 </r>
       <r>    -4.5119    18.8316   104.1625 </r>
       <r>    -4.4459    14.8773   105.1452 </r>
       <r>    -4.3799    11.9895   105.9378 </r>
       <r>    -4.3139    16.2321   107.0099 </r>
       <r>    -4.2479    13.0025   107.8686 </r>
       <r>    -4.1819    10.7202   108.5771 </r>
       <r>    -4.1159    22.4458   110.0596 </r>
       <r>    -4.0499    17.6482   111.2260 </r>
       <r>    -3.9839    30.2150   113.2208 </r>
       <r>    -3.9179    53.3691   116.7444 </r>
       <r>    -3.8519    33.1977   118.9389 </r>
       <r>    -3.7859    36.4220   121.3445 </r>
       <r>    -3.7199    28.4573   123.2234 </r>
       <r>    -3.6539    28.0672   125.0792 </r>
       <r>    -3.5879    32.3991   127.2213 </r>
       <r>    -3.5219    32.3152   129.3572 </r>
       <r>    -3.4559    27.8557   131.1971 </r>
       <r>    -3.3899    23.6808   132.7606 </r>
       <r>    -3.3239    21.9431   134.2112 </r>
       <r>    -3.2579    24.0657   135.7996 </r>
       <r>    -3.1919    16.4714   136.8894 </r>
       <r>    -3.1259    19.8615   138.2012 </r>
       <r>    -3.0599    21.3651   139.6117 </r>
       <r>    -2.9939    19.3863   140.8930 </r>
       <r>    -2.9279    19.3168   142.1681 </r>
       <r>    -2.8619    30.2240   144.1635 </r>
       <r>    -2.7959     8.9128   144.7538 </r>
       <r>    -2.7299    10.6463   145.4579 </r>
       <r>    -2.6639    15.4990   146.4819 </r>
       <r>    -2.5979    26.0902   148.2052 </r>
       <r>    -2.5319    34.5609   150.4873 </r>
       <r>    -2.4659    29.6642   152.4464 </r>
       <r>    -2.3999    27.9812   154.2939 </r>
       <r>    -2.3339    26.9220   156.0723 </r>
       <r>    -2.2680    24.8157   157.7113 </r>
       <r>    -2.2020    23.1113   159.2384 </r>
       <r>    -2.1360    11.3625   159.9888 </r>
       <r>    -2.0700     8.7873   160.5692 </r>
       <r>    -2.0040     6.7134   161.0135 </r>
       <r>    -1.9380     5.2714   161.3619 </r>
       <r>    -1.8720     4.3911   161.6518 </r>
       <r>    -1.8060     3.7314   161.8982 </r>
       <r>    -1.7400     1.5426   162.0000 </r>
       <r>    -1.6740     0.0000   162.0000 </r>
       <r>    -1.6080     0.0000   162.0000 </r>
       <r>    -1.5420     0.0000   162.0000 </r>
       <r>    -1.4760     0.0000   162.0000 </r>
       <r>    -1.4100     0.0000   162.0000 </r>
       <r>    -1.3440     0.0000   162.0000 </r>
       <r>    -1.2780     0.0000   162.0000 </r>
       <r>    -1.2120     0.0000   162.0000 </r>
       <r>    -1.1460     0.0000   162.0000 </r>
       <r>    -1.0800     0.0000   162.0000 </r>
       <r>    -1.0140     0.0000   162.0000 </r>
       <r>    -0.9480     0.0000   162.0000 </r>
       <r>    -0.8820     0.0000   162.0000 </r>
       <r>    -0.8160     0.0000   162.0000 </r>
       <r>    -0.7500     0.0000   162.0000 </r>
       <r>    -0.6840     0.0000   162.0000 </r>
       <r>    -0.6180     0.0000   162.0000 </r>
       <r>    -0.5520     0.0000   162.0000 </r>
       <r>    -0.4860     0.0000   162.0000 </r>
       <r>    -0.4200     0.0000   162.0000 </r>
       <r>    -0.3540     0.0000   162.0000 </r>
       <r>    -0.2880     0.0000   162.0000 </r>
       <r>    -0.2220     0.0000   162.0000 </r>
       <r>    -0.1560     0.5266   162.0348 </r>
       <r>    -0.0900    12.7788   162.8781 </r>
       <r>    -0.0240    17.6864   164.0465 </r>
       <r>     0.0420    20.7533   165.4182 </r>
       <r>     0.1080    30.1382   167.4089 </r>
       <r>     0.1740    26.1914   169.1412 </r>
       <r>     0.2400    23.0686   170.6652 </r>
       <r>     0.3060    26.5477   172.4182 </r>
       <r>     0.3720    21.5753   173.8448 </r>
       <r>     0.4380    19.4942   175.1339 </r>
       <r>     0.5040    15.5767   176.1630 </r>
       <r>     0.5700    21.8033   177.6024 </r>
       <r>     0.6360    37.9950   180.1131 </r>
       <r>     0.7020    62.3639   184.2307 </r>
       <r>     0.7680    46.0839   187.2755 </r>
       <r>     0.8340    43.2308   190.1309 </r>
       <r>     0.9000    37.3394   192.5989 </r>
       <r>     0.9660    39.2975   195.1944 </r>
       <r>     1.0320    47.4263   198.3274 </r>
       <r>     1.0980    36.3976   200.7331 </r>
       <r>     1.1640    25.6944   202.4306 </r>
       <r>     1.2300    12.8945   203.2823 </r>
       <r>     1.2960     7.2127   203.7586 </r>
       <r>     1.3620     2.6134   203.9319 </r>
       <r>     1.4280     0.9563   203.9955 </r>
       <r>     1.4940     0.0687   204.0000 </r>
       <r>     1.5600     0.0000   204.0000 </r>
       <r>     1.6260     0.0000   204.0000 </r>
       <r>     1.6919     0.0000   204.0000 </r>
       <r>     1.7579     0.0000   204.0000 </r>
       <r>     1.8239     0.0000   204.0000 </r>
       <r>     1.8899     0.0000   204.0000 </r>
       <r>     1.9559     0.0000   204.0000 </r>
       <r>     2.0219     0.0000   204.0000 </r>
       <r>     2.0879     0.0000   204.0000 </r>
       <r>     2.1539     0.0000   204.0000 </r>
       <r>     2.2199     0.0000   204.0000 </r>
       <r>     2.2859     0.0000   204.0000 </r>
       <r>     2.3519     0.0000   204.0000 </r>
      </set>
     </set>
    </array>
   </total>
  </dos>
 </calculation>
 <structure name="finalpos" >
  <crystal>
   <varray name="basis" >
    <v>       9.84600000       0.00000000       0.00000000 </v>
    <v>       4.92300000       8.52144000       0.00000000 </v>
    <v>       0.00000000       0.00000000      20.00000000 </v>
   </varray>
   <i name="volume">   1678.04196480 </i>
   <varray name="rec_basis" >
    <v>       0.10156409      -0.05867553       0.00000000 </v>
    <v>       0.00000000       0.11735106       0.00000000 </v>
    <v>       0.00000000       0.00000000       0.05000000 </v>
   </varray>
  </crystal>
  <varray name="positions" >
   <v>       0.33330000       0.99961800       0.99955100 </v>
   <v>       0.66663300       0.00006700       0.00000000 </v>
   <v>       0.99996700       0.00006700       0.00000000 </v>
   <v>       0.33330000       0.33340000       0.00000000 </v>
   <v>       0.66663300       0.33340000       0.00000000 </v>
   <v>       0.99996700       0.33340000       0.00000000 </v>
   <v>       0.33330000       0.66673300       0.00000000 </v>
   <v>       0.66663300       0.66673300       0.00000000 </v>
   <v>       0.99996700       0.66673300       0.00000000 </v>
   <v>       0.11109200       0.11114900       0.91545900 </v>
   <v>       0.44442600       0.11114900       0.91545900 </v>
   <v>       0.77775900       0.11114900       0.91545900 </v>
   <v>       0.11109200       0.44448200       0.91545900 </v>
   <v>       0.44442600       0.44448200       0.91545900 </v>
   <v>       0.77775900       0.44448200       0.91545900 </v>
   <v>       0.11109200       0.77781500       0.91545900 </v>
   <v>       0.44442600       0.77781500       0.91545900 </v>
   <v>       0.77775900       0.77781500       0.91545900 </v>
   <v>       0.11109200       0.11114900       0.08454100 </v>
   <v>       0.44442600       0.11114900       0.08454100 </v>
   <v>       0.77775900       0.11114900       0.08454100 </v>
   <v>       0.11109200       0.44448200       0.08454100 </v>
   <v>       0.44442600       0.44448200       0.08454100 </v>
   <v>       0.77775900       0.44448200       0.08454100 </v>
   <v>       0.11109200       0.77781500       0.08454100 </v>
   <v>       0.44442600       0.77781500       0.08454100 </v>
   <v>       0.77775900       0.77781500       0.08454100 </v>
  </varray>
 </structure>
</modeling>
