   4   4   0   0
  0.2619380E+02  0.2459512E-09  0.2459512E-09  0.2000000E-08  0.5000000E-15
  1.000000000000000E-004
  CAR 
 bilayer_graphene_AA                     
     11.74322791    -22.34990967  301     -1.22636985      1.00000000
    -22.350  0.0000E+00  0.0000E+00
    -22.236  0.0000E+00  0.0000E+00
    -22.123  0.0000E+00  0.0000E+00
    -22.009  0.0000E+00  0.0000E+00
    -21.895  0.0000E+00  0.0000E+00
    -21.782  0.0000E+00  0.0000E+00
    -21.668  0.0000E+00  0.0000E+00
    -21.554  0.0000E+00  0.0000E+00
    -21.441  0.0000E+00  0.0000E+00
    -21.327  0.0000E+00  0.0000E+00
    -21.213  0.0000E+00  0.0000E+00
    -21.100  0.0000E+00  0.0000E+00
    -20.986  0.0000E+00  0.0000E+00
    -20.873  0.0000E+00  0.0000E+00
    -20.759  0.2226E-02  0.2529E-03
    -20.645  0.1099E-02  0.1712E-02
    -20.532  0.1197E-01  0.4308E-02
    -20.418  0.1219E-01  0.5694E-02
    -20.304  0.9083E-02  0.8062E-02
    -20.191  0.2779E-08  0.8390E-02
    -20.077  0.3567E-01  0.1244E-01
    -19.963  0.8357E-05  0.1247E-01
    -19.850  0.0000E+00  0.1383E-01
    -19.736  0.2394E-01  0.1655E-01
    -19.622  0.2394E-01  0.1927E-01
    -19.509  0.4156E-12  0.1927E-01
    -19.395  0.1197E-01  0.2063E-01
    -19.282  0.3550E-01  0.2467E-01
    -19.168  0.1184E-04  0.2472E-01
    -19.054  0.0000E+00  0.2744E-01
    -18.941  0.6646E-18  0.2744E-01
    -18.827  0.2252E-01  0.3000E-01
    -18.713  0.1891E-01  0.3367E-01
    -18.600  0.0000E+00  0.3424E-01
    -18.486  0.2392E-01  0.3696E-01
    -18.372  0.0000E+00  0.3696E-01
    -18.259  0.2391E-02  0.3723E-01
    -18.145  0.3592E-01  0.4240E-01
    -18.031  0.2198E-01  0.4490E-01
    -17.918  0.0000E+00  0.4512E-01
    -17.804  0.2074E-03  0.4515E-01
    -17.691  0.0000E+00  0.4785E-01
    -17.577  0.1668E-01  0.4974E-01
    -17.463  0.2319E-01  0.5320E-01
    -17.350  0.5986E-02  0.5465E-01
    -17.236  0.2394E-01  0.5737E-01
    -17.122  0.0000E+00  0.5737E-01
    -17.009  0.2192E-07  0.5737E-01
    -16.895  0.1200E-01  0.6009E-01
    -16.781  0.2394E-01  0.6417E-01
    -16.668  0.1793E-01  0.6621E-01
    -16.554  0.1195E-01  0.6825E-01
    -16.440  0.2126E-02  0.6850E-01
    -16.327  0.0000E+00  0.7098E-01
    -16.213  0.0000E+00  0.7098E-01
    -16.100  0.1630E-01  0.7283E-01
    -15.986  0.1827E-01  0.7849E-01
    -15.872  0.2532E-15  0.7914E-01
    -15.759  0.2395E-01  0.8186E-01
    -15.645  0.8196E-14  0.8322E-01
    -15.531  0.2394E-01  0.8594E-01
    -15.418  0.1197E-01  0.8730E-01
    -15.304  0.6547E-04  0.8731E-01
    -15.190  0.3595E-01  0.9275E-01
    -15.077  0.0000E+00  0.9546E-01
    -14.963  0.0000E+00  0.9546E-01
    -14.849  0.0000E+00  0.9546E-01
    -14.736  0.0000E+00  0.9546E-01
    -14.622  0.1197E-01  0.9683E-01
    -14.508  0.4868E-03  0.9688E-01
    -14.395  0.1197E-01  0.1009E+00
    -14.281  0.1882E-03  0.1009E+00
    -14.168  0.1197E-01  0.1036E+00
    -14.054  0.1197E-01  0.1063E+00
    -13.940  0.0000E+00  0.1063E+00
    -13.827  0.6383E-02  0.1071E+00
    -13.713  0.5986E-01  0.1141E+00
    -13.599  0.0000E+00  0.1141E+00
    -13.486  0.2394E-01  0.1168E+00
    -13.372  0.2394E-01  0.1195E+00
    -13.258  0.7308E-02  0.1203E+00
    -13.145  0.7603E-02  0.1217E+00
    -13.031  0.0000E+00  0.1263E+00
    -12.917  0.0000E+00  0.1263E+00
    -12.804  0.2381E-01  0.1290E+00
    -12.690  0.1197E-01  0.1304E+00
    -12.577  0.0000E+00  0.1331E+00
    -12.463  0.1404E-02  0.1333E+00
    -12.349  0.0000E+00  0.1358E+00
    -12.236  0.2076E-03  0.1359E+00
    -12.122  0.5201E-05  0.1385E+00
    -12.008  0.1901E-02  0.1401E+00
    -11.895  0.0000E+00  0.1426E+00
    -11.781  0.8565E-02  0.1436E+00
    -11.667  0.0000E+00  0.1458E+00
    -11.554  0.0000E+00  0.1458E+00
    -11.440  0.4788E-01  0.1512E+00
    -11.326  0.1302E-01  0.1527E+00
    -11.213  0.0000E+00  0.1553E+00
    -11.099  0.1197E-01  0.1567E+00
    -10.986  0.0000E+00  0.1567E+00
    -10.872  0.3283E-02  0.1571E+00
    -10.758  0.3828E-01  0.1624E+00
    -10.645  0.2394E-01  0.1676E+00
    -10.531  0.0000E+00  0.1676E+00
    -10.417  0.6057E-02  0.1683E+00
    -10.304  0.0000E+00  0.1703E+00
    -10.190  0.2398E-01  0.1730E+00
    -10.076  0.0000E+00  0.1757E+00
     -9.963  0.0000E+00  0.1757E+00
     -9.849  0.3672E-01  0.1799E+00
     -9.735  0.2394E-01  0.1839E+00
     -9.622  0.8121E-04  0.1839E+00
     -9.508  0.2425E-01  0.1880E+00
     -9.395  0.0000E+00  0.1907E+00
     -9.281  0.0000E+00  0.1907E+00
     -9.167  0.0000E+00  0.1907E+00
     -9.054  0.4194E-01  0.1955E+00
     -8.940  0.4889E-01  0.2031E+00
     -8.826  0.1137E-01  0.2050E+00
     -8.713  0.1720E-01  0.2085E+00
     -8.599  0.4993E-02  0.2092E+00
     -8.485  0.4190E-01  0.2141E+00
     -8.372  0.4191E-01  0.2188E+00
     -8.258  0.2394E-01  0.2243E+00
     -8.144  0.4249E-01  0.2291E+00
     -8.031  0.1009E-01  0.2343E+00
     -7.917  0.4190E-01  0.2392E+00
     -7.804  0.1198E-01  0.2406E+00
     -7.690  0.3594E-01  0.2481E+00
     -7.576  0.7887E-01  0.2598E+00
     -7.463  0.2266E-01  0.2629E+00
     -7.349  0.2314E-01  0.2657E+00
     -7.235  0.5370E-01  0.2739E+00
     -7.122  0.5154E-02  0.2765E+00
     -7.008  0.3268E-01  0.2817E+00
     -6.894  0.1126E-01  0.2861E+00
     -6.781  0.1197E-01  0.2875E+00
     -6.667  0.3011E-01  0.2909E+00
     -6.553  0.5823E-01  0.2989E+00
     -6.440  0.1197E-01  0.3025E+00
     -6.326  0.2394E-01  0.3052E+00
     -6.212  0.1145E-11  0.3066E+00
     -6.099  0.4789E-01  0.3120E+00
     -5.985  0.4060E-01  0.3166E+00
     -5.872  0.1796E-01  0.3188E+00
     -5.758  0.2922E-01  0.3228E+00
     -5.644  0.6282E-02  0.3236E+00
     -5.531  0.3289E-01  0.3307E+00
     -5.417  0.1197E-01  0.3338E+00
     -5.303  0.1197E-01  0.3351E+00
     -5.190  0.1197E-01  0.3365E+00
     -5.076  0.5327E-01  0.3426E+00
     -4.962  0.4193E-01  0.3474E+00
     -4.849  0.1197E-01  0.3501E+00
     -4.735  0.1197E-01  0.3515E+00
     -4.621  0.2395E-01  0.3542E+00
     -4.508  0.1197E-01  0.3569E+00
     -4.394  0.2990E-01  0.3603E+00
     -4.281  0.3089E-01  0.3652E+00
     -4.167  0.1609E-01  0.3680E+00
     -4.053  0.1197E-01  0.3696E+00
     -3.940  0.1300E-01  0.3711E+00
     -3.826  0.8335E-03  0.3724E+00
     -3.712  0.5984E-02  0.3744E+00
     -3.599  0.2291E-01  0.3770E+00
     -3.485  0.4162E-01  0.3832E+00
     -3.371  0.2394E-01  0.3873E+00
     -3.258  0.2947E-15  0.3873E+00
     -3.144  0.5986E-02  0.3880E+00
     -3.030  0.5986E-02  0.3887E+00
     -2.917  0.1197E-01  0.3900E+00
     -2.803  0.2427E-01  0.3928E+00
     -2.690  0.1265E-01  0.3949E+00
     -2.576  0.0000E+00  0.3955E+00
     -2.462  0.1677E-09  0.3955E+00
     -2.349  0.5988E-02  0.3961E+00
     -2.235  0.0000E+00  0.3968E+00
     -2.121  0.0000E+00  0.3968E+00
     -2.008  0.1197E-01  0.3982E+00
     -1.894  0.1197E-01  0.3995E+00
     -1.780  0.0000E+00  0.3995E+00
     -1.667  0.0000E+00  0.3995E+00
     -1.553  0.0000E+00  0.3995E+00
     -1.439  0.0000E+00  0.3995E+00
     -1.326  0.6646E-18  0.3995E+00
     -1.212  0.3991E-02  0.4000E+00
     -1.099  0.3991E-02  0.4005E+00
     -0.985  0.0000E+00  0.4005E+00
     -0.871  0.0000E+00  0.4005E+00
     -0.758  0.0000E+00  0.4005E+00
     -0.644  0.0000E+00  0.4005E+00
     -0.530  0.3889E-04  0.4005E+00
     -0.417  0.6622E-02  0.4026E+00
     -0.303  0.0000E+00  0.4032E+00
     -0.189  0.5986E-02  0.4039E+00
     -0.076  0.5986E-02  0.4045E+00
      0.038  0.0000E+00  0.4045E+00
      0.152  0.4487E-08  0.4045E+00
      0.265  0.3591E-01  0.4086E+00
      0.379  0.3704E-01  0.4128E+00
      0.492  0.1692E-01  0.4153E+00
      0.606  0.1742E-01  0.4174E+00
      0.720  0.1796E-01  0.4195E+00
      0.833  0.2394E-01  0.4222E+00
      0.947  0.2292E-01  0.4248E+00
      1.061  0.1197E-01  0.4263E+00
      1.174  0.9429E-02  0.4287E+00
      1.288  0.5986E-02  0.4311E+00
      1.402  0.5912E-02  0.4331E+00
      1.515  0.0000E+00  0.4331E+00
      1.629  0.1197E-01  0.4345E+00
      1.743  0.1213E-01  0.4358E+00
      1.856  0.1743E-09  0.4372E+00
      1.970  0.2494E-01  0.4400E+00
      2.084  0.1796E-01  0.4427E+00
      2.197  0.1209E-01  0.4441E+00
      2.311  0.1196E-01  0.4461E+00
      2.424  0.2150E-01  0.4486E+00
      2.538  0.7036E-02  0.4503E+00
      2.652  0.5986E-02  0.4517E+00
      2.765  0.1854E-01  0.4538E+00
      2.879  0.2389E-01  0.4578E+00
      2.993  0.1656E-01  0.4597E+00
      3.106  0.2881E-01  0.4652E+00
      3.220  0.1197E-01  0.4668E+00
      3.334  0.1769E-01  0.4688E+00
      3.447  0.2895E-01  0.4728E+00
      3.561  0.1197E-01  0.4743E+00
      3.675  0.3584E-01  0.4783E+00
      3.788  0.1785E-01  0.4804E+00
      3.902  0.1796E-01  0.4824E+00
      4.015  0.4089E-01  0.4871E+00
      4.129  0.2395E-01  0.4914E+00
      4.243  0.5986E-02  0.4941E+00
      4.356  0.2394E-01  0.4975E+00
      4.470  0.5939E-02  0.4995E+00
      4.584  0.2190E-01  0.5048E+00
      4.697  0.1796E-01  0.5077E+00
      4.811  0.1459E-01  0.5107E+00
      4.925  0.2417E-01  0.5145E+00
      5.038  0.2394E-01  0.5186E+00
      5.152  0.4406E-01  0.5236E+00
      5.266  0.1630E-01  0.5259E+00
      5.379  0.4063E-01  0.5307E+00
      5.493  0.2050E-01  0.5332E+00
      5.606  0.1374E-06  0.5342E+00
      5.720  0.2394E-01  0.5383E+00
      5.834  0.0000E+00  0.5390E+00
      5.947  0.1722E-01  0.5410E+00
      6.061  0.2771E-01  0.5449E+00
      6.175  0.1329E-17  0.5451E+00
      6.288  0.3089E-01  0.5486E+00
      6.402  0.3554E-02  0.5517E+00
      6.516  0.3115E-01  0.5568E+00
      6.629  0.3592E-01  0.5615E+00
      6.743  0.1197E-01  0.5628E+00
      6.857  0.9489E-11  0.5628E+00
      6.970  0.1197E-01  0.5642E+00
      7.084  0.1197E-01  0.5655E+00
      7.197  0.2745E-01  0.5687E+00
      7.311  0.2993E-01  0.5730E+00
      7.425  0.1197E-01  0.5744E+00
      7.538  0.1337E-02  0.5745E+00
      7.652  0.0000E+00  0.5757E+00
      7.766  0.0000E+00  0.5757E+00
      7.879  0.5304E-02  0.5763E+00
      7.993  0.1197E-01  0.5778E+00
      8.107  0.1318E-11  0.5778E+00
      8.220  0.3578E-01  0.5818E+00
      8.334  0.7572E-06  0.5832E+00
      8.448  0.6181E-16  0.5846E+00
      8.561  0.1197E-01  0.5859E+00
      8.675  0.0000E+00  0.5859E+00
      8.788  0.0000E+00  0.5859E+00
      8.902  0.7280E-04  0.5859E+00
      9.016  0.1822E-02  0.5875E+00
      9.129  0.2465E-01  0.5903E+00
      9.243  0.1259E-10  0.5909E+00
      9.357  0.1197E-01  0.5923E+00
      9.470  0.2571E-01  0.5952E+00
      9.584  0.1918E-04  0.5957E+00
      9.698  0.1158E-01  0.5977E+00
      9.811  0.1646E-09  0.5977E+00
      9.925  0.2390E-02  0.5980E+00
     10.039  0.0000E+00  0.5993E+00
     10.152  0.1523E-10  0.5993E+00
     10.266  0.5986E-02  0.6000E+00
     10.380  0.0000E+00  0.6000E+00
     10.493  0.0000E+00  0.6000E+00
     10.607  0.0000E+00  0.6000E+00
     10.720  0.0000E+00  0.6000E+00
     10.834  0.0000E+00  0.6000E+00
     10.948  0.0000E+00  0.6000E+00
     11.061  0.0000E+00  0.6000E+00
     11.175  0.0000E+00  0.6000E+00
     11.289  0.0000E+00  0.6000E+00
     11.402  0.0000E+00  0.6000E+00
     11.516  0.0000E+00  0.6000E+00
     11.630  0.0000E+00  0.6000E+00
     11.743  0.0000E+00  0.6000E+00
