Automatically generated mesh
      48
Reciprocal lattice
    0.00000000000000    0.00000000000000    0.00000000000000             1
    0.04761904761905    0.00000000000000    0.00000000000000             6
    0.09523809523810    0.00000000000000    0.00000000000000             6
    0.14285714285714    0.00000000000000    0.00000000000000             6
    0.19047619047619    0.00000000000000    0.00000000000000             6
    0.23809523809524    0.00000000000000    0.00000000000000             6
    0.28571428571429    0.00000000000000    0.00000000000000             6
    0.33333333333333    0.00000000000000    0.00000000000000             6
    0.38095238095238    0.00000000000000    0.00000000000000             6
    0.42857142857143    0.00000000000000    0.00000000000000             6
    0.47619047619048    0.00000000000000    0.00000000000000             6
    0.09523809523810    0.04761904761905    0.00000000000000             6
    0.14285714285714    0.04761904761905    0.00000000000000            12
    0.19047619047619    0.04761904761905    0.00000000000000            12
    0.23809523809524    0.04761904761905    0.00000000000000            12
    0.28571428571429    0.04761904761905    0.00000000000000            12
    0.33333333333333    0.04761904761905    0.00000000000000            12
    0.38095238095238    0.04761904761905    0.00000000000000            12
    0.42857142857143    0.04761904761905    0.00000000000000            12
    0.47619047619048    0.04761904761905    0.00000000000000            12
   -0.47619047619048    0.04761904761905    0.00000000000000             6
    0.19047619047619    0.09523809523810    0.00000000000000             6
    0.23809523809524    0.09523809523810    0.00000000000000            12
    0.28571428571429    0.09523809523810    0.00000000000000            12
    0.33333333333333    0.09523809523810    0.00000000000000            12
    0.38095238095238    0.09523809523810    0.00000000000000            12
    0.42857142857143    0.09523809523810    0.00000000000000            12
    0.47619047619048    0.09523809523810    0.00000000000000            12
   -0.47619047619048    0.09523809523810    0.00000000000000            12
    0.28571428571429    0.14285714285714    0.00000000000000             6
    0.33333333333333    0.14285714285714    0.00000000000000            12
    0.38095238095238    0.14285714285714    0.00000000000000            12
    0.42857142857143    0.14285714285714    0.00000000000000            12
    0.47619047619048    0.14285714285714    0.00000000000000            12
   -0.47619047619048    0.14285714285714    0.00000000000000            12
   -0.42857142857143    0.14285714285714    0.00000000000000             6
    0.38095238095238    0.19047619047619    0.00000000000000             6
    0.42857142857143    0.19047619047619    0.00000000000000            12
    0.47619047619048    0.19047619047619    0.00000000000000            12
   -0.47619047619048    0.19047619047619    0.00000000000000            12
   -0.42857142857143    0.19047619047619    0.00000000000000            12
    0.47619047619048    0.23809523809524    0.00000000000000             6
   -0.47619047619048    0.23809523809524    0.00000000000000            12
   -0.42857142857143    0.23809523809524    0.00000000000000            12
   -0.38095238095238    0.23809523809524    0.00000000000000             6
   -0.42857142857143    0.28571428571429    0.00000000000000             6
   -0.38095238095238    0.28571428571429    0.00000000000000            12
   -0.33333333333333    0.33333333333333    0.00000000000000             2
