 running on    4 total cores
 distrk:  each k-point on    4 cores,    1 groups
 distr:  one band on    1 cores,    4 groups
 using from now: INCAR     
 vasp.5.4.4.18Apr17-6-g9f103f2a35 (build May 31 2018 21:15:54) complex          
  
 POSCAR found type information on POSCAR  C 
 POSCAR found :  1 types and       4 ions
 scaLAPACK will be used
 LDA part: xc-table for Pade appr. of Perdew
 POSCAR, INCAR and KPOINTS ok, starting setup
 FFT: planning ...
 WAVECAR not read
 entering main loop
       N       E                     dE             d eps       ncg     rms          rms(c)
DAV:   1     0.127983503474E+03    0.12798E+03   -0.80815E+03  1152   0.149E+03
DAV:   2    -0.247857806182E+02   -0.15277E+03   -0.13950E+03  1852   0.244E+02
DAV:   3    -0.391747359481E+02   -0.14389E+02   -0.14297E+02  1452   0.853E+01
DAV:   4    -0.395018201819E+02   -0.32708E+00   -0.32614E+00  1468   0.158E+01
DAV:   5    -0.395123645008E+02   -0.10544E-01   -0.10528E-01  1472   0.270E+00    0.902E+00
DAV:   6    -0.376312792723E+02    0.18811E+01   -0.17438E+00  1360   0.924E+00    0.529E+00
DAV:   7    -0.369428935208E+02    0.68839E+00   -0.23034E+00  1432   0.105E+01    0.137E+00
DAV:   8    -0.369416632493E+02    0.12303E-02   -0.75334E-02  1420   0.198E+00    0.127E-01
DAV:   9    -0.369400016703E+02    0.16616E-02   -0.23978E-03  1464   0.395E-01    0.915E-02
DAV:  10    -0.369331588273E+02    0.68428E-02   -0.39843E-03  1360   0.389E-01    0.993E-02
DAV:  11    -0.369319099523E+02    0.12489E-02   -0.46011E-04  1352   0.149E-01    0.531E-02
DAV:  12    -0.369282411314E+02    0.36688E-02   -0.18461E-03  1208   0.267E-01    0.356E-02
DAV:  13    -0.369279666820E+02    0.27445E-03   -0.18956E-04  1280   0.101E-01    0.356E-02
DAV:  14    -0.369292220024E+02   -0.12553E-02   -0.40718E-04  1260   0.127E-01    0.214E-02
DAV:  15    -0.369300308255E+02   -0.80882E-03   -0.11834E-04  1344   0.777E-02    0.237E-02
DAV:  16    -0.369302684202E+02   -0.23759E-03   -0.16751E-05  1356   0.334E-02    0.537E-03
DAV:  17    -0.369303821989E+02   -0.11378E-03   -0.34478E-06  1308   0.210E-02    0.221E-03
DAV:  18    -0.369304047043E+02   -0.22505E-04   -0.50644E-07  1356   0.653E-03    0.143E-03
DAV:  19    -0.369304178673E+02   -0.13163E-04   -0.23317E-07  1284   0.460E-03    0.550E-04
DAV:  20    -0.369304200961E+02   -0.22288E-05   -0.66741E-08  1308   0.231E-03    0.148E-04
DAV:  21    -0.369304203919E+02   -0.29581E-06   -0.95747E-09  1112   0.921E-04    0.863E-05
DAV:  22    -0.369304204136E+02   -0.21781E-07   -0.23783E-09   936   0.444E-04    0.547E-05
DAV:  23    -0.369304204107E+02    0.28977E-08   -0.41056E-10   984   0.178E-04
   1 F= -.36930420E+02 E0= -.36930420E+02  d E =-.369304E+02
 curvature:   0.00 expect dE= 0.000E+00 dE for cont linesearch  0.000E+00
 trial: gam= 0.00000 g(F)=  0.802E-06 g(S)=  0.000E+00 ort = 0.000E+00 (trialstep = 0.100E+01)
 search vector abs. value=  0.802E-06
 bond charge predicted
       N       E                     dE             d eps       ncg     rms          rms(c)
DAV:   1    -0.369304212328E+02   -0.81920E-06   -0.10372E-04  1256   0.889E-02    0.191E-03
DAV:   2    -0.369304212253E+02    0.75579E-08   -0.91977E-07  1312   0.959E-03    0.121E-03
DAV:   3    -0.369304212079E+02    0.17402E-07   -0.11342E-07  1360   0.343E-03    0.230E-04
DAV:   4    -0.369304212116E+02   -0.36732E-08   -0.27985E-08  1268   0.128E-03    0.105E-04
DAV:   5    -0.369304212129E+02   -0.13090E-08   -0.79413E-10   948   0.264E-04
   2 F= -.36930421E+02 E0= -.36930421E+02  d E =-.802124E-06
 ZBRENT: can't locate minimum, use default step
 trial-energy change:   -0.000001  1 .order   -0.000001   -0.000001   -0.000001
 step:   4.0000(harm=149.1271)  dis= 0.00056  next Energy=   -36.930480 (dE=-0.598E-04)
 bond charge predicted
       N       E                     dE             d eps       ncg     rms          rms(c)
DAV:   1    -0.369304238585E+02   -0.26469E-05   -0.93446E-04  1172   0.267E-01    0.579E-03
DAV:   2    -0.369304237503E+02    0.10819E-06   -0.77835E-06  1260   0.290E-02    0.359E-03
DAV:   3    -0.369304235856E+02    0.16468E-06   -0.98988E-07  1340   0.101E-02    0.721E-04
DAV:   4    -0.369304236090E+02   -0.23354E-07   -0.23049E-07  1296   0.373E-03    0.306E-04
DAV:   5    -0.369304236137E+02   -0.46709E-08   -0.66548E-09  1000   0.725E-04
   3 F= -.36930424E+02 E0= -.36930424E+02  d E =-.320290E-05
 curvature:  -2.99 expect dE=-0.232E-05 dE for cont linesearch -0.231E-05
 ZBRENT: increasing intervall
 opt :  10.0000  next Energy=   -36.930428 (dE=-0.788E-05)
 bond charge predicted
       N       E                     dE             d eps       ncg     rms          rms(c)
DAV:   1    -0.369304293414E+02   -0.57324E-05   -0.37383E-03  1152   0.534E-01    0.116E-02
DAV:   2    -0.369304289800E+02    0.36136E-06   -0.31411E-05  1236   0.581E-02    0.719E-03
DAV:   3    -0.369304283037E+02    0.67636E-06   -0.39475E-06  1344   0.203E-02    0.144E-03
DAV:   4    -0.369304283837E+02   -0.80023E-07   -0.93174E-07  1280   0.746E-03    0.613E-04
DAV:   5    -0.369304283964E+02   -0.12719E-07   -0.30513E-08  1300   0.146E-03    0.227E-04
DAV:   6    -0.369304283973E+02   -0.83833E-09   -0.50491E-09   948   0.689E-04
   4 F= -.36930428E+02 E0= -.36930428E+02  d E =-.798651E-05
 curvature:  -6.04 expect dE=-0.469E-05 dE for cont linesearch -0.469E-05
 ZBRENT: increasing intervall
 opt :  22.0000  next Energy=   -36.930438 (dE=-0.175E-04)
 bond charge predicted
       N       E                     dE             d eps       ncg     rms          rms(c)
DAV:   1    -0.369304414905E+02   -0.13094E-04   -0.14940E-02  1152   0.107E+00    0.231E-02
DAV:   2    -0.369304402983E+02    0.11922E-05   -0.12689E-04  1244   0.116E-01    0.144E-02
DAV:   3    -0.369304375425E+02    0.27558E-05   -0.15830E-05  1340   0.407E-02    0.283E-03
DAV:   4    -0.369304378477E+02   -0.30525E-06   -0.38562E-06  1276   0.151E-02    0.123E-03
DAV:   5    -0.369304378832E+02   -0.35427E-07   -0.13071E-07  1496   0.296E-03    0.468E-04
DAV:   6    -0.369304378818E+02    0.13299E-08   -0.14905E-08  1084   0.120E-03
   5 F= -.36930438E+02 E0= -.36930438E+02  d E =-.174711E-04
 curvature: -12.22 expect dE=-0.926E-05 dE for cont linesearch -0.926E-05
 ZBRENT: increasing intervall
 opt :  46.0000  next Energy=   -36.930456 (dE=-0.360E-04)
 bond charge predicted
       N       E                     dE             d eps       ncg     rms          rms(c)
DAV:   1    -0.369304676739E+02   -0.29791E-04   -0.59726E-02  1152   0.213E+00    0.458E-02
DAV:   2    -0.369304665646E+02    0.11093E-05   -0.53557E-04  1244   0.234E-01    0.290E-02
DAV:   3    -0.369304552799E+02    0.11285E-04   -0.64115E-05  1344   0.823E-02    0.551E-03
DAV:   4    -0.369304564306E+02   -0.11507E-05   -0.16331E-05  1268   0.309E-02    0.255E-03
DAV:   5    -0.369304565552E+02   -0.12467E-06   -0.54757E-07  1504   0.601E-03    0.104E-03
DAV:   6    -0.369304565388E+02    0.16450E-07   -0.71312E-08  1364   0.256E-03    0.177E-04
DAV:   7    -0.369304565347E+02    0.40832E-08   -0.87745E-09  1008   0.899E-04
   6 F= -.36930457E+02 E0= -.36930457E+02  d E =-.361240E-04
 curvature: -24.41 expect dE=-0.181E-04 dE for cont linesearch -0.181E-04
 ZBRENT: increasing intervall
 opt :  94.0000  next Energy=   -36.930493 (dE=-0.727E-04)
 bond charge predicted
       N       E                     dE             d eps       ncg     rms          rms(c)
DAV:   1    -0.369305113681E+02   -0.54829E-04   -0.23865E-01  1152   0.427E+00    0.901E-02
DAV:   2    -0.369305346387E+02   -0.23271E-04   -0.23639E-03  1252   0.476E-01    0.587E-02
DAV:   3    -0.369304874685E+02    0.47170E-04   -0.26000E-04  1360   0.167E-01    0.109E-02
DAV:   4    -0.369304922922E+02   -0.48237E-05   -0.69995E-05  1268   0.636E-02    0.566E-03
DAV:   5    -0.369304926801E+02   -0.38791E-06   -0.22093E-06  1568   0.119E-02    0.273E-03
DAV:   6    -0.369304926282E+02    0.51898E-07   -0.31611E-07  1348   0.532E-03    0.345E-04
DAV:   7    -0.369304926156E+02    0.12624E-07   -0.35829E-08  1392   0.180E-03    0.144E-04
DAV:   8    -0.369304925335E+02    0.82107E-07   -0.77793E-09   948   0.721E-04    0.910E-05
DAV:   9    -0.369304925070E+02    0.26554E-07   -0.15069E-09  1020   0.432E-04    0.707E-05
DAV:  10    -0.369304924697E+02    0.37247E-07   -0.19694E-09   908   0.518E-04    0.314E-05
DAV:  11    -0.369304924610E+02    0.87168E-08   -0.27521E-09   848   0.319E-04
   7 F= -.36930492E+02 E0= -.36930492E+02  d E =-.720502E-04
 curvature: -49.37 expect dE=-0.332E-04 dE for cont linesearch -0.332E-04
 ZBRENT: increasing intervall
 opt : 190.0000  next Energy=   -36.930559 (dE=-0.139E-03)
 bond charge predicted
       N       E                     dE             d eps       ncg     rms          rms(c)
DAV:   1    -0.369304991947E+02   -0.67250E-05   -0.95316E-01  1152   0.853E+00    0.176E-01
DAV:   2    -0.369307370891E+02   -0.23789E-03   -0.10638E-02  1300   0.974E-01    0.119E-01
DAV:   3    -0.369305379343E+02    0.19915E-03   -0.10481E-03  1368   0.338E-01    0.221E-02
DAV:   4    -0.369305585040E+02   -0.20570E-04   -0.30190E-04  1300   0.130E-01    0.129E-02
DAV:   5    -0.369305603803E+02   -0.18763E-05   -0.81473E-06  1600   0.230E-02    0.638E-03
DAV:   6    -0.369305601113E+02    0.26903E-06   -0.19046E-06  1360   0.126E-02    0.654E-04
DAV:   7    -0.369305601018E+02    0.94310E-08   -0.13615E-07  1392   0.372E-03    0.300E-04
DAV:   8    -0.369305599439E+02    0.15798E-06   -0.32927E-08  1352   0.147E-03    0.162E-04
DAV:   9    -0.369305598833E+02    0.60535E-07   -0.27774E-09   972   0.733E-04    0.128E-04
DAV:  10    -0.369305597806E+02    0.10267E-06   -0.87200E-09  1168   0.946E-04    0.704E-05
DAV:  11    -0.369305597917E+02   -0.11075E-07   -0.61453E-09   924   0.459E-04    0.521E-05
DAV:  12    -0.369305598530E+02   -0.61230E-07   -0.46689E-09   920   0.349E-04    0.347E-05
DAV:  13    -0.369305599591E+02   -0.10610E-06   -0.21506E-09   956   0.264E-04    0.266E-05
DAV:  14    -0.369305600933E+02   -0.13423E-06   -0.44840E-09   980   0.266E-04    0.391E-05
DAV:  15    -0.369305601485E+02   -0.55265E-07   -0.56098E-10   976   0.174E-04    0.122E-05
DAV:  16    -0.369305601962E+02   -0.47681E-07   -0.50795E-10   852   0.116E-04    0.117E-05
DAV:  17    -0.369305602190E+02   -0.22732E-07   -0.30398E-10   884   0.908E-05    0.105E-05
DAV:  18    -0.369305602281E+02   -0.91261E-08   -0.93326E-11   888   0.602E-05
   8 F= -.36930560E+02 E0= -.36930560E+02  d E =-.139817E-03
 curvature: -99.67 expect dE=-0.562E-04 dE for cont linesearch -0.562E-04
 ZBRENT: increasing intervall
 opt : 382.0000  next Energy=   -36.930677 (dE=-0.257E-03)
 bond charge predicted
       N       E                     dE             d eps       ncg     rms          rms(c)
DAV:   1    -0.369299039504E+02    0.65627E-03   -0.38036E+00  1152   0.171E+01    0.346E-01
DAV:   2    -0.369314211559E+02   -0.15172E-02   -0.47185E-02  1216   0.196E+00    0.243E-01
DAV:   3    -0.369305731634E+02    0.84799E-03   -0.37903E-03  1364   0.623E-01    0.553E-02
DAV:   4    -0.369306752857E+02   -0.10212E-03   -0.11089E-03  1268   0.232E-01    0.241E-02
DAV:   5    -0.369306799952E+02   -0.47094E-05   -0.25070E-05  1564   0.413E-02    0.908E-03
DAV:   6    -0.369306771533E+02    0.28419E-05   -0.86214E-06  1380   0.281E-02    0.154E-03
DAV:   7    -0.369306770643E+02    0.88944E-07   -0.91468E-07  1380   0.860E-03    0.570E-04
DAV:   8    -0.369306766952E+02    0.36913E-06   -0.96275E-08  1416   0.247E-03    0.549E-04
DAV:   9    -0.369306766963E+02   -0.10909E-08   -0.92465E-09   976   0.164E-03
   9 F= -.36930677E+02 E0= -.36930677E+02  d E =-.256286E-03
 curvature: ****** expect dE=-0.777E-04 dE for cont linesearch -0.777E-04
 ZBRENT: increasing intervall
 opt : 766.0000  next Energy=   -36.930839 (dE=-0.419E-03)
 bond charge predicted
       N       E                     dE             d eps       ncg     rms          rms(c)
DAV:   1    -0.369251947758E+02    0.54819E-02   -0.15141E+01  1152   0.340E+01    0.707E-01
DAV:   2    -0.369339648151E+02   -0.87700E-02   -0.21238E-01  1232   0.378E+00    0.500E-01
DAV:   3    -0.369308179094E+02    0.31469E-02   -0.11393E-02  1436   0.940E-01    0.209E-01
DAV:   4    -0.369308665765E+02   -0.48667E-04   -0.34362E-03  1340   0.499E-01    0.401E-02
DAV:   5    -0.369308461310E+02    0.20446E-04   -0.45606E-04  1432   0.188E-01    0.161E-02
DAV:   6    -0.369308483039E+02   -0.21729E-05   -0.25787E-05  1368   0.524E-02    0.629E-03
DAV:   7    -0.369308469000E+02    0.14039E-05   -0.43064E-06  1468   0.204E-02    0.232E-03
DAV:   8    -0.369308455947E+02    0.13053E-05   -0.71151E-07  1476   0.810E-03    0.119E-03
DAV:   9    -0.369308453958E+02    0.19887E-06   -0.11221E-07  1380   0.354E-03    0.880E-04
DAV:  10    -0.369308455311E+02   -0.13526E-06   -0.13492E-07  1364   0.208E-03    0.341E-04
DAV:  11    -0.369308456547E+02   -0.12364E-06   -0.82549E-08  1248   0.143E-03    0.447E-04
DAV:  12    -0.369308464708E+02   -0.81604E-06   -0.32151E-08  1364   0.141E-03    0.186E-04
DAV:  13    -0.369308476042E+02   -0.11335E-05   -0.15422E-08  1280   0.867E-04    0.293E-04
DAV:  14    -0.369308482949E+02   -0.69066E-06   -0.45918E-08  1364   0.800E-04    0.166E-04
DAV:  15    -0.369308486735E+02   -0.37863E-06   -0.34591E-09   996   0.348E-04    0.904E-05
DAV:  16    -0.369308492508E+02   -0.57726E-06   -0.17886E-08  1232   0.542E-04    0.108E-04
DAV:  17    -0.369308493612E+02   -0.11047E-06   -0.18113E-09   908   0.349E-04    0.379E-05
DAV:  18    -0.369308494283E+02   -0.67054E-07   -0.12071E-09   932   0.228E-04    0.219E-05
DAV:  19    -0.369308495006E+02   -0.72278E-07   -0.97822E-10   924   0.166E-04    0.606E-05
DAV:  20    -0.369308495077E+02   -0.71821E-08   -0.15904E-10  1020   0.746E-05
  10 F= -.36930850E+02 E0= -.36930850E+02  d E =-.429097E-03
 curvature: ****** expect dE=-0.656E-04 dE for cont linesearch -0.656E-04
 ZBRENT: increasing intervall
 opt : ********  next Energy=   -36.930964 (dE=-0.543E-03)
 bond charge predicted
       N       E                     dE             d eps       ncg     rms          rms(c)
DAV:   1    -0.368872856370E+02    0.43564E-01   -0.59490E+01  1152   0.672E+01    0.176E+00
DAV:   2    -0.369441202371E+02   -0.56835E-01   -0.10552E+00  1160   0.748E+00    0.110E+00
DAV:   3    -0.369346432871E+02    0.94769E-02   -0.38910E-02  1480   0.148E+00    0.679E-01
DAV:   4    -0.369307288533E+02    0.39144E-02   -0.15232E-02  1308   0.107E+00    0.113E-01
DAV:   5    -0.369309931656E+02   -0.26431E-03   -0.46897E-03  1372   0.447E-01    0.276E-02
DAV:   6    -0.369309884538E+02    0.47119E-05   -0.15091E-04  1496   0.104E-01    0.154E-02
DAV:   7    -0.369309872885E+02    0.11652E-05   -0.91363E-06  1404   0.336E-02    0.478E-03
DAV:   8    -0.369309849055E+02    0.23831E-05   -0.34233E-06  1376   0.190E-02    0.226E-03
DAV:   9    -0.369309854155E+02   -0.51002E-06   -0.48905E-07  1552   0.750E-03    0.119E-03
DAV:  10    -0.369309861610E+02   -0.74549E-06   -0.48157E-07  1384   0.434E-03    0.634E-04
DAV:  11    -0.369309871641E+02   -0.10031E-05   -0.23738E-07  1268   0.276E-03    0.503E-04
DAV:  12    -0.369309880461E+02   -0.88200E-06   -0.26832E-07  1276   0.294E-03    0.391E-04
DAV:  13    -0.369309904958E+02   -0.24497E-05   -0.87166E-08  1376   0.169E-03    0.187E-04
DAV:  14    -0.369309918787E+02   -0.13829E-05   -0.67420E-08  1376   0.992E-04    0.220E-04
DAV:  15    -0.369309938170E+02   -0.19383E-05   -0.53810E-08  1356   0.105E-03    0.101E-04
DAV:  16    -0.369309943634E+02   -0.54640E-06   -0.96928E-09  1160   0.445E-04    0.682E-05
DAV:  17    -0.369309946749E+02   -0.31146E-06   -0.78052E-09  1064   0.391E-04    0.540E-05
DAV:  18    -0.369309948514E+02   -0.17658E-06   -0.20753E-09   948   0.271E-04    0.389E-05
DAV:  19    -0.369309949052E+02   -0.53775E-07   -0.63944E-10   996   0.142E-04    0.274E-05
DAV:  20    -0.369309949630E+02   -0.57829E-07   -0.21451E-09   892   0.169E-04    0.242E-05
DAV:  21    -0.369309949718E+02   -0.87562E-08   -0.22437E-10   956   0.933E-05
  11 F= -.36930995E+02 E0= -.36930995E+02  d E =-.574561E-03
 curvature: ****** expect dE=-0.241E-05 dE for cont linesearch -0.241E-05
 ZBRENT: extrapolating
 opt : ********  next Energy=   -36.930998 (dE=-0.578E-03)
 bond charge predicted
       N       E                     dE             d eps       ncg     rms          rms(c)
DAV:   1    -0.369306736586E+02    0.32130E-03   -0.17599E+00  1152   0.116E+01    0.234E-01
DAV:   2    -0.369313382566E+02   -0.66460E-03   -0.21487E-02  1280   0.133E+00    0.164E-01
DAV:   3    -0.369309532787E+02    0.38498E-03   -0.19392E-03  1376   0.450E-01    0.315E-02
DAV:   4    -0.369309964923E+02   -0.43214E-04   -0.58465E-04  1316   0.175E-01    0.165E-02
DAV:   5    -0.369310002828E+02   -0.37905E-05   -0.15746E-05  1564   0.316E-02    0.627E-03
DAV:   6    -0.369309990672E+02    0.12156E-05   -0.44232E-06  1396   0.193E-02    0.104E-03
DAV:   7    -0.369309990028E+02    0.64465E-07   -0.28569E-07  1416   0.518E-03    0.336E-04
DAV:   8    -0.369309986968E+02    0.30597E-06   -0.63807E-08  1380   0.220E-03    0.409E-04
DAV:   9    -0.369309986550E+02    0.41787E-07   -0.90978E-09  1148   0.941E-04    0.158E-04
DAV:  10    -0.369309985993E+02    0.55707E-07   -0.14596E-08  1312   0.609E-04    0.105E-04
DAV:  11    -0.369309986426E+02   -0.43344E-07   -0.32062E-09   888   0.302E-04    0.122E-04
DAV:  12    -0.369309987880E+02   -0.14541E-06   -0.10021E-08  1192   0.452E-04    0.592E-05
DAV:  13    -0.369309989547E+02   -0.16665E-06   -0.23758E-09   960   0.276E-04    0.556E-05
DAV:  14    -0.369309990595E+02   -0.10480E-06   -0.33041E-09   980   0.245E-04    0.343E-05
DAV:  15    -0.369309991641E+02   -0.10461E-06   -0.10378E-09   988   0.174E-04    0.370E-05
DAV:  16    -0.369309991991E+02   -0.35031E-07   -0.29564E-10   860   0.954E-05    0.197E-05
DAV:  17    -0.369309992360E+02   -0.36858E-07   -0.60275E-10   888   0.111E-04    0.312E-05
DAV:  18    -0.369309992421E+02   -0.61391E-08   -0.59316E-11  1012   0.462E-05
  12 F= -.36930999E+02 E0= -.36930999E+02  d E =-.578831E-03
 curvature: ****** expect dE=-0.262E-06 dE for cont linesearch -0.262E-06
 ZBRENT: extrapolating
 opt : ********  next Energy=   -36.931000 (dE=-0.579E-03)
 bond charge predicted
       N       E                     dE             d eps       ncg     rms          rms(c)
DAV:   1    -0.369309862311E+02    0.13005E-04   -0.29474E-01  1152   0.474E+00    0.982E-02
DAV:   2    -0.369310531256E+02   -0.66895E-04   -0.32355E-03  1284   0.544E-01    0.662E-02
DAV:   3    -0.369309923530E+02    0.60773E-04   -0.33178E-04  1364   0.189E-01    0.123E-02
DAV:   4    -0.369309989669E+02   -0.66140E-05   -0.93829E-05  1308   0.726E-02    0.656E-03
DAV:   5    -0.369309995761E+02   -0.60919E-06   -0.28579E-06  1576   0.133E-02    0.287E-03
DAV:   6    -0.369309995855E+02   -0.93839E-08   -0.33962E-07  1368   0.531E-03    0.423E-04
DAV:   7    -0.369309995772E+02    0.83082E-08   -0.31303E-08  1416   0.170E-03
  13 F= -.36931000E+02 E0= -.36931000E+02  d E =-.579166E-03
 curvature: ****** expect dE=-0.170E-06 dE for cont linesearch -0.170E-06
 ZBRENT: bracketing found
 ZBRENT: interpolating
 opt : ********  next Energy=   -36.931000 (dE=-0.579E-03)
 bond charge predicted
       N       E                     dE             d eps       ncg     rms          rms(c)
DAV:   1    -0.369310046408E+02   -0.50553E-05   -0.48580E-02  1168   0.192E+00    0.407E-02
DAV:   2    -0.369310074922E+02   -0.28514E-05   -0.46867E-04  1360   0.222E-01    0.264E-02
DAV:   3    -0.369309980844E+02    0.94078E-05   -0.54817E-05  1360   0.756E-02    0.492E-03
DAV:   4    -0.369309990875E+02   -0.10031E-05   -0.13842E-05  1280   0.286E-02    0.229E-03
DAV:   5    -0.369309992776E+02   -0.19014E-06   -0.47145E-07  1552   0.548E-03    0.812E-04
DAV:   6    -0.369309993739E+02   -0.96242E-07   -0.48809E-08  1376   0.211E-03    0.155E-04
DAV:   7    -0.369309994169E+02   -0.43009E-07   -0.54895E-09   956   0.752E-04    0.578E-05
DAV:   8    -0.369309994807E+02   -0.63800E-07   -0.19565E-09   960   0.413E-04    0.414E-05
DAV:   9    -0.369309994962E+02   -0.15522E-07   -0.36384E-10   980   0.195E-04    0.196E-05
DAV:  10    -0.369309995259E+02   -0.29721E-07   -0.27336E-10   952   0.128E-04    0.117E-05
DAV:  11    -0.369309995393E+02   -0.13390E-07   -0.97645E-11  1000   0.825E-05    0.122E-05
DAV:  12    -0.369309995502E+02   -0.10900E-07   -0.55423E-11   840   0.594E-05    0.716E-06
DAV:  13    -0.369309995541E+02   -0.38456E-08   -0.13588E-11   924   0.341E-05
  14 F= -.36931000E+02 E0= -.36931000E+02  d E =-.579143E-03
 curvature: ****** expect dE=-0.304E-07 dE for cont linesearch -0.304E-07
 trial: gam=-0.00647 g(F)=  0.341E-10 g(S)=  0.000E+00 ort = 0.523E-08 (trialstep = 0.340E+03)
 search vector abs. value=  0.100E-09
 reached required accuracy - stopping structural energy minimisation
