 running on    4 total cores
 distrk:  each k-point on    4 cores,    1 groups
 distr:  one band on    1 cores,    4 groups
 using from now: INCAR     
 vasp.5.4.4.18Apr17-6-g9f103f2a35 (build May 31 2018 21:15:54) complex          
  
 POSCAR found type information on POSCAR  C 
 POSCAR found :  1 types and       4 ions
 scaLAPACK will be used
 LDA part: xc-table for Pade appr. of Perdew
 POSCAR, INCAR and KPOINTS ok, starting setup
 FFT: planning ...
 WAVECAR not read
 entering main loop
       N       E                     dE             d eps       ncg     rms          rms(c)
DAV:   1     0.126229385207E+03    0.12623E+03   -0.80761E+03  1152   0.149E+03
DAV:   2    -0.250370584876E+02   -0.15127E+03   -0.13662E+03  1816   0.244E+02
DAV:   3    -0.391973489795E+02   -0.14160E+02   -0.14087E+02  1436   0.856E+01
DAV:   4    -0.395257771320E+02   -0.32843E+00   -0.32776E+00  1460   0.157E+01
DAV:   5    -0.395360403189E+02   -0.10263E-01   -0.10241E-01  1468   0.260E+00    0.902E+00
DAV:   6    -0.376712797304E+02    0.18648E+01   -0.17048E+00  1348   0.915E+00    0.530E+00
DAV:   7    -0.369421711832E+02    0.72911E+00   -0.23304E+00  1396   0.105E+01    0.137E+00
DAV:   8    -0.369318122673E+02    0.10359E-01   -0.67351E-02  1436   0.186E+00    0.154E-01
DAV:   9    -0.369307765872E+02    0.10357E-02   -0.23440E-03  1456   0.364E-01    0.124E-01
DAV:  10    -0.369300251555E+02    0.75143E-03   -0.33483E-04  1412   0.110E-01    0.104E-01
DAV:  11    -0.369276017343E+02    0.24234E-02   -0.49054E-03  1272   0.343E-01    0.574E-02
DAV:  12    -0.369270875060E+02    0.51423E-03   -0.93905E-04  1320   0.193E-01    0.712E-02
DAV:  13    -0.369264732372E+02    0.61427E-03   -0.22532E-04  1324   0.123E-01    0.392E-02
DAV:  14    -0.369273874810E+02   -0.91424E-03   -0.35079E-04  1252   0.120E-01    0.383E-02
DAV:  15    -0.369277798388E+02   -0.39236E-03   -0.15404E-04  1264   0.704E-02    0.220E-02
DAV:  16    -0.369280764253E+02   -0.29659E-03   -0.15708E-04  1312   0.606E-02    0.208E-02
DAV:  17    -0.369281084556E+02   -0.32030E-04   -0.32531E-05  1340   0.350E-02    0.114E-02
DAV:  18    -0.369281430025E+02   -0.34547E-04   -0.11536E-05  1340   0.249E-02    0.619E-03
DAV:  19    -0.369281561832E+02   -0.13181E-04   -0.15907E-06  1368   0.927E-03    0.214E-03
DAV:  20    -0.369281646958E+02   -0.85126E-05   -0.66700E-07  1304   0.399E-03    0.708E-04
DAV:  21    -0.369281676369E+02   -0.29412E-05   -0.15942E-07  1356   0.163E-03    0.723E-04
DAV:  22    -0.369281684693E+02   -0.83240E-06   -0.23106E-08  1268   0.106E-03    0.424E-04
DAV:  23    -0.369281686030E+02   -0.13369E-06   -0.16553E-08  1324   0.716E-04    0.286E-05
DAV:  24    -0.369281686058E+02   -0.28263E-08   -0.11271E-09   996   0.216E-04
   1 F= -.36928169E+02 E0= -.36928117E+02  d E =-.369282E+02
 curvature:   0.00 expect dE= 0.000E+00 dE for cont linesearch  0.000E+00
 trial: gam= 0.00000 g(F)=  0.215E-09 g(S)=  0.000E+00 ort = 0.000E+00 (trialstep = 0.100E+01)
 search vector abs. value=  0.315E-09
 bond charge predicted
       N       E                     dE             d eps       ncg     rms          rms(c)
DAV:   1    -0.369281686088E+02   -0.57839E-08   -0.27846E-08  1288   0.138E-03    0.337E-05
DAV:   2    -0.369281686088E+02   -0.16598E-10   -0.35251E-10  1020   0.195E-04    0.328E-05
DAV:   3    -0.369281686088E+02   -0.32742E-10   -0.45757E-11   952   0.938E-05    0.200E-05
DAV:   4    -0.369281686092E+02   -0.31901E-09   -0.30120E-11   836   0.629E-05    0.626E-06
DAV:   5    -0.369281686091E+02    0.92996E-10   -0.50859E-12   904   0.290E-05
   2 F= -.36928169E+02 E0= -.36928117E+02  d E =-.323303E-08
 ZBRENT: can't locate minimum, use default step
 trial-energy change:   -0.000000  1 .order   -0.000000   -0.000000   -0.000000
 step:   4.0000(harm= 41.8540)  dis= 0.00000  next Energy=   -36.928169 (dE=-0.450E-08)
 bond charge predicted
       N       E                     dE             d eps       ncg     rms          rms(c)
DAV:   1    -0.369281686100E+02   -0.83151E-09   -0.24995E-07  1236   0.437E-03    0.868E-05
DAV:   2    -0.369281686099E+02    0.81400E-10   -0.31063E-09   968   0.529E-04    0.610E-05
DAV:   3    -0.369281686101E+02   -0.19145E-09   -0.62819E-10   944   0.274E-04    0.157E-05
DAV:   4    -0.369281686100E+02    0.15575E-09   -0.14221E-10   908   0.138E-04    0.224E-05
DAV:   5    -0.369281686099E+02    0.21146E-10   -0.35856E-11   788   0.777E-05
   3 F= -.36928169E+02 E0= -.36928117E+02  d E =-.409068E-08
 curvature:  -4.34 expect dE=-0.821E-09 dE for cont linesearch -0.560E-09
 ZBRENT: increasing intervall
 opt :  10.0000  next Energy=   -36.928169 (dE=-0.525E-08)
 bond charge predicted
       N       E                     dE             d eps       ncg     rms          rms(c)
DAV:   1    -0.369281686109E+02   -0.98112E-09   -0.99888E-07  1216   0.873E-03    0.174E-04
DAV:   2    -0.369281686115E+02   -0.56116E-09   -0.13115E-08  1068   0.106E-03    0.124E-04
DAV:   3    -0.369281686114E+02    0.11505E-09   -0.19929E-09  1000   0.488E-04    0.266E-05
DAV:   4    -0.369281686115E+02   -0.12824E-09   -0.52680E-10   968   0.245E-04    0.404E-05
DAV:   5    -0.369281686115E+02    0.27057E-10   -0.10862E-10   884   0.127E-04
   4 F= -.36928169E+02 E0= -.36928117E+02  d E =-.564023E-08
 curvature:  -8.99 expect dE=-0.154E-08 dE for cont linesearch -0.105E-08
 ZBRENT: increasing intervall
 opt :  22.0000  next Energy=   -36.928169 (dE=-0.782E-08)
 bond charge predicted
       N       E                     dE             d eps       ncg     rms          rms(c)
DAV:   1    -0.369281686128E+02   -0.12785E-08   -0.39967E-06  1200   0.174E-02    0.348E-04
DAV:   2    -0.369281686150E+02   -0.21960E-08   -0.53365E-08  1296   0.212E-03    0.250E-04
DAV:   3    -0.369281686141E+02    0.92768E-09   -0.45580E-09  1028   0.740E-04    0.542E-05
DAV:   4    -0.369281686143E+02   -0.24329E-09   -0.14918E-09   976   0.384E-04    0.850E-05
DAV:   5    -0.369281686142E+02    0.10846E-09   -0.25824E-10   884   0.188E-04
   5 F= -.36928169E+02 E0= -.36928118E+02  d E =-.834893E-08
 curvature: -18.69 expect dE=-0.278E-08 dE for cont linesearch -0.190E-08
 ZBRENT: increasing intervall
 opt :  46.0000  next Energy=   -36.928169 (dE=-0.123E-07)
 bond charge predicted
       N       E                     dE             d eps       ncg     rms          rms(c)
DAV:   1    -0.369281686142E+02    0.14575E-09   -0.15988E-05  1224   0.346E-02    0.693E-04
DAV:   2    -0.369281686225E+02   -0.83221E-08   -0.20996E-07  1272   0.425E-03    0.496E-04
DAV:   3    -0.369281686191E+02    0.33431E-08   -0.20032E-08  1404   0.148E-03    0.981E-05
DAV:   4    -0.369281686197E+02   -0.53274E-09   -0.57203E-09  1120   0.606E-04    0.107E-04
DAV:   5    -0.369281686196E+02    0.75488E-10   -0.34485E-10   888   0.228E-04
   6 F= -.36928169E+02 E0= -.36928118E+02  d E =-.137479E-07
 curvature: -39.25 expect dE=-0.531E-08 dE for cont linesearch -0.362E-08
 ZBRENT: increasing intervall
 opt :  94.0000  next Energy=   -36.928169 (dE=-0.215E-07)
 bond charge predicted
       N       E                     dE             d eps       ncg     rms          rms(c)
DAV:   1    -0.369281686042E+02    0.15452E-07   -0.63855E-05  1240   0.676E-02    0.137E-03
DAV:   2    -0.369281686424E+02   -0.38148E-07   -0.88182E-07  1272   0.845E-03    0.998E-04
DAV:   3    -0.369281686282E+02    0.14149E-07   -0.79472E-08  1488   0.295E-03    0.190E-04
DAV:   4    -0.369281686302E+02   -0.20377E-08   -0.24458E-08  1340   0.112E-03    0.136E-04
DAV:   5    -0.369281686302E+02    0.31832E-10   -0.48671E-10   848   0.303E-04
   7 F= -.36928169E+02 E0= -.36928118E+02  d E =-.243767E-07
 curvature: -84.27 expect dE=-0.111E-07 dE for cont linesearch -0.757E-08
 ZBRENT: increasing intervall
 opt : 190.0000  next Energy=   -36.928169 (dE=-0.403E-07)
 bond charge predicted
       N       E                     dE             d eps       ncg     rms          rms(c)
DAV:   1    -0.369281685496E+02    0.80637E-07   -0.25533E-04  1232   0.127E-01    0.274E-03
DAV:   2    -0.369281687002E+02   -0.15058E-06   -0.34952E-06  1284   0.168E-02    0.199E-03
DAV:   3    -0.369281686428E+02    0.57387E-07   -0.31349E-07  1476   0.588E-03    0.365E-04
DAV:   4    -0.369281686500E+02   -0.72448E-08   -0.97437E-08  1356   0.225E-03    0.197E-04
DAV:   5    -0.369281686520E+02   -0.19179E-08   -0.18399E-09  1024   0.584E-04
   8 F= -.36928169E+02 E0= -.36928118E+02  d E =-.461257E-07
 curvature: ****** expect dE=-0.915E-08 dE for cont linesearch -0.625E-08
 ZBRENT: increasing intervall
 opt : 382.0000  next Energy=   -36.928169 (dE=-0.543E-07)
 bond charge predicted
       N       E                     dE             d eps       ncg     rms          rms(c)
DAV:   1    -0.369281683256E+02    0.32448E-06   -0.10218E-03  1196   0.242E-01    0.556E-03
DAV:   2    -0.369281688862E+02   -0.56068E-06   -0.13564E-05  1304   0.334E-02    0.396E-03
DAV:   3    -0.369281686572E+02    0.22904E-06   -0.12452E-06  1460   0.113E-02    0.739E-04
DAV:   4    -0.369281686888E+02   -0.31575E-07   -0.38241E-07  1320   0.398E-03    0.486E-04
DAV:   5    -0.369281686909E+02   -0.21005E-08   -0.10557E-08  1352   0.910E-04
   9 F= -.36928169E+02 E0= -.36928118E+02  d E =-.850428E-07
 curvature: ****** expect dE=-0.137E-07 dE for cont linesearch -0.937E-08
 ZBRENT: increasing intervall
 opt : 766.0000  next Energy=   -36.928169 (dE=-0.131E-06)
 bond charge predicted
       N       E                     dE             d eps       ncg     rms          rms(c)
DAV:   1    -0.369281674159E+02    0.12728E-05   -0.40873E-03  1172   0.477E-01    0.110E-02
DAV:   2    -0.369281695489E+02   -0.21330E-05   -0.54030E-05  1284   0.661E-02    0.791E-03
DAV:   3    -0.369281686526E+02    0.89626E-06   -0.50244E-06  1472   0.218E-02    0.139E-03
DAV:   4    -0.369281687760E+02   -0.12334E-06   -0.15853E-06  1312   0.758E-03    0.117E-03
DAV:   5    -0.369281687652E+02    0.10801E-07   -0.46587E-08  1660   0.185E-03    0.703E-04
DAV:   6    -0.369281687732E+02   -0.80279E-08   -0.82429E-09  1200   0.735E-04
  10 F= -.36928169E+02 E0= -.36928118E+02  d E =-.167371E-06
 curvature: ****** expect dE=-0.659E-07 dE for cont linesearch -0.450E-07
 ZBRENT: bracketing found
 ZBRENT: interpolating
 opt : 575.4483  next Energy=   -36.928169 (dE=-0.178E-06)
 bond charge predicted
       N       E                     dE             d eps       ncg     rms          rms(c)
DAV:   1    -0.369281683925E+02    0.37267E-06   -0.10019E-03  1264   0.276E-01    0.548E-03
DAV:   2    -0.369281689208E+02   -0.52825E-06   -0.13355E-05  1380   0.321E-02    0.394E-03
DAV:   3    -0.369281686847E+02    0.23608E-06   -0.12115E-06  1484   0.113E-02    0.710E-04
DAV:   4    -0.369281687252E+02   -0.40465E-07   -0.38731E-07  1328   0.390E-03    0.669E-04
DAV:   5    -0.369281687226E+02    0.25771E-08   -0.11472E-08  1336   0.999E-04
  11 F= -.36928169E+02 E0= -.36928118E+02  d E =-.116740E-06
 curvature: ****** expect dE=-0.157E-06 dE for cont linesearch -0.107E-06
 ZBRENT: interpolating
 opt : 720.3566  next Energy=   -36.928169 (dE=-0.170E-06)
 bond charge predicted
       N       E                     dE             d eps       ncg     rms          rms(c)
DAV:   1    -0.369281686067E+02    0.11847E-06   -0.58148E-04  1208   0.184E-01    0.425E-03
DAV:   2    -0.369281688898E+02   -0.28309E-06   -0.77511E-06  1452   0.250E-02    0.305E-03
DAV:   3    -0.369281687577E+02    0.13204E-06   -0.76869E-07  1496   0.900E-03    0.521E-04
DAV:   4    -0.369281687728E+02   -0.15038E-07   -0.24617E-07  1324   0.331E-03    0.418E-04
DAV:   5    -0.369281687717E+02    0.10914E-08   -0.76079E-09  1216   0.769E-04
  12 F= -.36928169E+02 E0= -.36928118E+02  d E =-.165842E-06
 curvature:  -6.41 expect dE=-0.531E-09 dE for cont linesearch -0.362E-09
 ZBRENT: interpolating
 opt : 745.2441  next Energy=   -36.928169 (dE=-0.169E-06)
 bond charge predicted
       N       E                     dE             d eps       ncg     rms          rms(c)
DAV:   1    -0.369281687655E+02    0.72553E-08   -0.17172E-05  1236   0.316E-02    0.655E-04
DAV:   2    -0.369281687791E+02   -0.13538E-07   -0.22989E-07  1220   0.428E-03    0.481E-04
DAV:   3    -0.369281687758E+02    0.32412E-08   -0.15513E-08  1044   0.135E-03    0.104E-04
DAV:   4    -0.369281687757E+02    0.87084E-10   -0.50289E-09   936   0.571E-04    0.482E-05
DAV:   5    -0.369281687752E+02    0.48794E-09   -0.82212E-10  1004   0.277E-04
  13 F= -.36928169E+02 E0= -.36928118E+02  d E =-.169400E-06
 curvature: -20.42 expect dE=-0.217E-08 dE for cont linesearch -0.148E-08
 ZBRENT: interpolating
 opt : 757.1951  next Energy=   -36.928169 (dE=-0.168E-06)
 bond charge predicted
       N       E                     dE             d eps       ncg     rms          rms(c)
DAV:   1    -0.369281687762E+02   -0.42178E-09   -0.39729E-06  1244   0.163E-02    0.340E-04
DAV:   2    -0.369281687788E+02   -0.26866E-08   -0.54535E-08  1300   0.209E-03    0.245E-04
DAV:   3    -0.369281687782E+02    0.68144E-09   -0.40085E-09  1004   0.710E-04    0.953E-05
DAV:   4    -0.369281687784E+02   -0.20873E-09   -0.13621E-09   936   0.393E-04    0.108E-04
DAV:   5    -0.369281687781E+02    0.26375E-09   -0.26152E-10   892   0.207E-04
  14 F= -.36928169E+02 E0= -.36928118E+02  d E =-.172260E-06
 curvature:  -6.76 expect dE=-0.953E-09 dE for cont linesearch -0.650E-09
 ZBRENT: interpolating
 opt : 762.5652  next Energy=   -36.928169 (dE=-0.168E-06)
 bond charge predicted
       N       E                     dE             d eps       ncg     rms          rms(c)
DAV:   1    -0.369281687790E+02   -0.59231E-09   -0.80753E-07  1184   0.780E-03    0.156E-04
DAV:   2    -0.369281687795E+02   -0.57980E-09   -0.97200E-09   976   0.963E-04    0.108E-04
DAV:   3    -0.369281687797E+02   -0.18213E-09   -0.17221E-09   988   0.473E-04    0.560E-05
DAV:   4    -0.369281687798E+02   -0.40700E-10   -0.41491E-10   884   0.242E-04    0.343E-05
DAV:   5    -0.369281687796E+02    0.14074E-09   -0.12489E-10   868   0.135E-04
  15 F= -.36928169E+02 E0= -.36928118E+02  d E =-.173778E-06
 curvature:  -1.99 expect dE=-0.334E-09 dE for cont linesearch -0.228E-09
 ZBRENT: interpolating
 opt : 764.7317  next Energy=   -36.928169 (dE=-0.167E-06)
 bond charge predicted
       N       E                     dE             d eps       ncg     rms          rms(c)
DAV:   1    -0.369281687801E+02   -0.38335E-09   -0.13192E-07  1276   0.318E-03    0.653E-05
DAV:   2    -0.369281687801E+02    0.38881E-10   -0.18056E-09   940   0.400E-04    0.461E-05
DAV:   3    -0.369281687802E+02   -0.80945E-10   -0.31305E-10   988   0.210E-04    0.318E-05
DAV:   4    -0.369281687802E+02    0.22965E-10   -0.74927E-11   840   0.118E-04    0.118E-05
DAV:   5    -0.369281687802E+02   -0.62528E-10   -0.26781E-11   728   0.619E-05
  16 F= -.36928169E+02 E0= -.36928118E+02  d E =-.174383E-06
 curvature:  -0.61 expect dE=-0.117E-09 dE for cont linesearch -0.797E-10
 ZBRENT: interpolating
 opt : 765.5495  next Energy=   -36.928169 (dE=-0.167E-06)
 bond charge predicted
       N       E                     dE             d eps       ncg     rms          rms(c)
DAV:   1    -0.369281687804E+02   -0.26353E-09   -0.18658E-08  1084   0.121E-03    0.235E-05
DAV:   2    -0.369281687803E+02    0.11642E-09   -0.47210E-10   984   0.215E-04    0.180E-05
DAV:   3    -0.369281687805E+02   -0.22737E-09   -0.48369E-11   876   0.888E-05    0.154E-05
DAV:   4    -0.369281687805E+02    0.47066E-10   -0.16692E-11   848   0.554E-05    0.574E-06
DAV:   5    -0.369281687805E+02   -0.15234E-10   -0.12672E-12   828   0.274E-05
  17 F= -.36928169E+02 E0= -.36928118E+02  d E =-.174663E-06
 curvature:  -0.19 expect dE=-0.397E-10 dE for cont linesearch -0.271E-10
 ZBRENT: interpolating
 opt : 765.8440  next Energy=   -36.928169 (dE=-0.167E-06)
 bond charge predicted
       N       E                     dE             d eps       ncg     rms          rms(c)
DAV:   1    -0.369281687806E+02   -0.13051E-09   -0.23775E-09   792   0.437E-04    0.990E-06
DAV:   2    -0.369281687805E+02    0.91177E-10   -0.10278E-10   960   0.112E-04    0.808E-06
DAV:   3    -0.369281687806E+02   -0.98453E-10   -0.79123E-12   756   0.382E-05    0.755E-06
DAV:   4    -0.369281687807E+02   -0.97998E-10    0.58995E-12   832   0.211E-05    0.516E-06
DAV:   5    -0.369281687806E+02    0.15871E-09   -0.66487E-13   832   0.103E-05
  18 F= -.36928169E+02 E0= -.36928118E+02  d E =-.174725E-06
 curvature:  -0.06 expect dE=-0.132E-10 dE for cont linesearch -0.902E-11
 ZBRENT: interpolating
 opt : 765.9467  next Energy=   -36.928169 (dE=-0.167E-06)
 bond charge predicted
       N       E                     dE             d eps       ncg     rms          rms(c)
DAV:   1    -0.369281687809E+02   -0.19168E-09   -0.29033E-10   836   0.154E-04    0.599E-06
DAV:   2    -0.369281687808E+02    0.12369E-09   -0.11184E-11   960   0.400E-05    0.561E-06
DAV:   3    -0.369281687809E+02   -0.14006E-09    0.46573E-12   720   0.142E-05    0.545E-06
DAV:   4    -0.369281687809E+02    0.48885E-10    0.19440E-12   800   0.830E-06    0.498E-06
DAV:   5    -0.369281687809E+02   -0.43883E-10    0.60010E-12   832   0.420E-06
  19 F= -.36928169E+02 E0= -.36928118E+02  d E =-.175087E-06
 curvature:  -0.02 expect dE=-0.440E-11 dE for cont linesearch -0.300E-11
 ZBRENT:  can not reach accuracy
 opt :   0.0000  next Energy=     0.000000 (dE= 0.369E+02)
 bond charge predicted
       N       E                     dE             d eps       ncg     rms          rms(c)
DAV:   1    -0.369281620512E+02    0.67297E-05   -0.16242E-02  1152   0.111E+00    0.219E-02
DAV:   2    -0.369281718242E+02   -0.97731E-05   -0.22713E-04  1388   0.126E-01    0.160E-02
DAV:   3    -0.369281680253E+02    0.37989E-05   -0.19888E-05  1488   0.463E-02    0.301E-03
DAV:   4    -0.369281685361E+02   -0.51077E-06   -0.62731E-06  1332   0.155E-02    0.155E-03
DAV:   5    -0.369281686613E+02   -0.12522E-06   -0.16384E-07  1684   0.337E-03    0.168E-03
DAV:   6    -0.369281686072E+02    0.54139E-07   -0.12618E-08  1112   0.145E-03    0.467E-04
DAV:   7    -0.369281686065E+02    0.67189E-09   -0.43324E-08  1496   0.175E-03
  20 F= -.36928169E+02 E0= -.36928117E+02  d E =-.678938E-09
 curvature:   0.00 expect dE= 0.330-309 dE for cont linesearch  0.225-309
 ZBRENT: fatal error in bracketing
     please rerun with smaller EDIFF, or copy CONTCAR
     to POSCAR and continue
