       N       E                     dE             d eps       ncg     rms          rms(c)
DAV:   1     0.127731963598E+03    0.12773E+03   -0.80793E+03  1152   0.149E+03
DAV:   2    -0.251609759909E+02   -0.15289E+03   -0.13891E+03  1880   0.243E+02
DAV:   3    -0.392158737999E+02   -0.14055E+02   -0.13501E+02  1440   0.841E+01
DAV:   4    -0.395235344650E+02   -0.30766E+00   -0.30697E+00  1460   0.153E+01
DAV:   5    -0.395325200812E+02   -0.89856E-02   -0.89643E-02  1472   0.254E+00    0.902E+00
DAV:   6    -0.376524314070E+02    0.18801E+01   -0.17244E+00  1364   0.919E+00    0.529E+00
DAV:   7    -0.369383876462E+02    0.71404E+00   -0.23304E+00  1412   0.106E+01    0.138E+00
DAV:   8    -0.369385596208E+02   -0.17197E-03   -0.69062E-02  1436   0.189E+00    0.133E-01
DAV:   9    -0.369373857259E+02    0.11739E-02   -0.18363E-03  1464   0.351E-01    0.934E-02
DAV:  10    -0.369334156901E+02    0.39700E-02   -0.24621E-03  1356   0.329E-01    0.687E-02
DAV:  11    -0.369324286523E+02    0.98704E-03   -0.46856E-04  1292   0.151E-01    0.553E-02
DAV:  12    -0.369294746193E+02    0.29540E-02   -0.16381E-03  1208   0.236E-01    0.102E-01
DAV:  13    -0.369275911927E+02    0.18834E-02   -0.58908E-04  1316   0.167E-01    0.398E-02
DAV:  14    -0.369286418718E+02   -0.10507E-02   -0.31598E-04  1312   0.137E-01    0.381E-02
DAV:  15    -0.369290472548E+02   -0.40538E-03   -0.34104E-05  1340   0.538E-02    0.156E-02
DAV:  16    -0.369298555958E+02   -0.80834E-03   -0.12582E-04  1268   0.598E-02    0.153E-02
DAV:  17    -0.369299474075E+02   -0.91812E-04   -0.10599E-05  1320   0.290E-02    0.535E-03
DAV:  18    -0.369299633075E+02   -0.15900E-04   -0.18916E-06  1308   0.159E-02    0.198E-03
DAV:  19    -0.369299672442E+02   -0.39367E-05   -0.47013E-07  1344   0.611E-03    0.616E-04
DAV:  20    -0.369299682155E+02   -0.97127E-06   -0.93104E-08  1348   0.232E-03    0.334E-04
DAV:  21    -0.369299684356E+02   -0.22015E-06   -0.12303E-08  1064   0.764E-04    0.120E-04
DAV:  22    -0.369299684951E+02   -0.59443E-07   -0.20102E-09   964   0.309E-04    0.576E-05
DAV:  23    -0.369299685562E+02   -0.61144E-07   -0.29035E-09   916   0.263E-04    0.306E-05
DAV:  24    -0.369299685721E+02   -0.15841E-07   -0.45964E-10   872   0.125E-04    0.749E-06
DAV:  25    -0.369299685807E+02   -0.86511E-08   -0.16166E-10   908   0.672E-05
   1 F= -.36929969E+02 E0= -.36929966E+02  d E =-.369300E+02
       N       E                     dE             d eps       ncg     rms          rms(c)
DAV:   1    -0.369299687222E+02   -0.15018E-06   -0.18180E-05  1272   0.373E-02    0.756E-04
DAV:   2    -0.369299687293E+02   -0.70959E-08   -0.21663E-07  1308   0.446E-03    0.525E-04
DAV:   3    -0.369299687253E+02    0.40145E-08   -0.20089E-08  1016   0.151E-03    0.102E-04
DAV:   4    -0.369299687260E+02   -0.64279E-09   -0.62399E-09   904   0.656E-04    0.464E-05
DAV:   5    -0.369299687262E+02   -0.25557E-09   -0.90209E-10   932   0.283E-04
   2 F= -.36929969E+02 E0= -.36929966E+02  d E =-.145504E-06
       N       E                     dE             d eps       ncg     rms          rms(c)
DAV:   1    -0.369299691273E+02   -0.40132E-06   -0.16378E-04  1168   0.112E-01    0.228E-03
DAV:   2    -0.369299691756E+02   -0.48303E-07   -0.19067E-06  1312   0.133E-02    0.157E-03
DAV:   3    -0.369299691412E+02    0.34403E-07   -0.18802E-07  1372   0.447E-03    0.305E-04
DAV:   4    -0.369299691459E+02   -0.47619E-08   -0.53281E-08  1288   0.174E-03    0.150E-04
DAV:   5    -0.369299691466E+02   -0.64870E-09   -0.11597E-09   916   0.542E-04
   3 F= -.36929969E+02 E0= -.36929966E+02  d E =-.565880E-06
       N       E                     dE             d eps       ncg     rms          rms(c)
DAV:   1    -0.369299698746E+02   -0.72867E-06   -0.65490E-04  1160   0.223E-01    0.455E-03
DAV:   2    -0.369299701046E+02   -0.23004E-06   -0.78758E-06  1296   0.266E-02    0.315E-03
DAV:   3    -0.369299699645E+02    0.14020E-06   -0.73817E-07  1364   0.881E-03    0.661E-04
DAV:   4    -0.369299699845E+02   -0.20081E-07   -0.20343E-07  1320   0.342E-03    0.322E-04
DAV:   5    -0.369299699863E+02   -0.17671E-08   -0.46642E-09   964   0.114E-03
   4 F= -.36929970E+02 E0= -.36929967E+02  d E =-.140559E-05
       N       E                     dE             d eps       ncg     rms          rms(c)
DAV:   1    -0.369299711963E+02   -0.12118E-05   -0.26196E-03  1152   0.446E-01    0.910E-03
DAV:   2    -0.369299721442E+02   -0.94791E-06   -0.31660E-05  1280   0.531E-02    0.630E-03
DAV:   3    -0.369299715822E+02    0.56200E-06   -0.29661E-06  1380   0.176E-02    0.132E-03
DAV:   4    -0.369299716582E+02   -0.75981E-07   -0.81665E-07  1324   0.679E-03    0.647E-04
DAV:   5    -0.369299716645E+02   -0.63603E-08   -0.22117E-08  1240   0.219E-03
   5 F= -.36929972E+02 E0= -.36929969E+02  d E =-.308382E-05
       N       E                     dE             d eps       ncg     rms          rms(c)
DAV:   1    -0.369299730459E+02   -0.13877E-05   -0.10476E-02  1152   0.886E-01    0.182E-02
DAV:   2    -0.369299769540E+02   -0.39081E-05   -0.12727E-04  1276   0.106E-01    0.126E-02
DAV:   3    -0.369299747070E+02    0.22470E-05   -0.11770E-05  1356   0.351E-02    0.269E-03
DAV:   4    -0.369299749972E+02   -0.29021E-06   -0.32340E-06  1316   0.133E-02    0.129E-03
DAV:   5    -0.369299750209E+02   -0.23747E-07   -0.89937E-08  1476   0.406E-03    0.729E-04
DAV:   6    -0.369299750293E+02   -0.83371E-08   -0.25314E-08  1348   0.224E-03
   6 F= -.36929975E+02 E0= -.36929972E+02  d E =-.644857E-05
       N       E                     dE             d eps       ncg     rms          rms(c)
DAV:   1    -0.369299753709E+02   -0.34991E-06   -0.41903E-02  1152   0.179E+00    0.365E-02
DAV:   2    -0.369299895155E+02   -0.14145E-04   -0.49927E-04  1296   0.212E-01    0.252E-02
DAV:   3    -0.369299806034E+02    0.89121E-05   -0.47985E-05  1364   0.711E-02    0.506E-03
DAV:   4    -0.369299816604E+02   -0.10570E-05   -0.13360E-05  1320   0.268E-02    0.243E-03
DAV:   5    -0.369299817672E+02   -0.10673E-06   -0.39663E-07  1512   0.702E-03    0.118E-03
DAV:   6    -0.369299817680E+02   -0.78694E-09   -0.61873E-08  1356   0.384E-03
   7 F= -.36929982E+02 E0= -.36929979E+02  d E =-.131873E-04
       N       E                     dE             d eps       ncg     rms          rms(c)
DAV:   1    -0.369299616565E+02    0.20111E-04   -0.16752E-01  1152   0.356E+00    0.725E-02
DAV:   2    -0.369300269361E+02   -0.65280E-04   -0.20623E-03  1280   0.422E-01    0.506E-02
DAV:   3    -0.369299906514E+02    0.36285E-04   -0.18954E-04  1368   0.142E-01    0.105E-02
DAV:   4    -0.369299948857E+02   -0.42343E-05   -0.52220E-05  1320   0.524E-02    0.486E-03
DAV:   5    -0.369299952198E+02   -0.33415E-06   -0.15142E-06  1520   0.109E-02    0.194E-03
DAV:   6    -0.369299952600E+02   -0.40133E-07   -0.12529E-07  1372   0.602E-03    0.102E-03
DAV:   7    -0.369299952561E+02    0.38074E-08   -0.55306E-08  1384   0.339E-03
   8 F= -.36929995E+02 E0= -.36929993E+02  d E =-.266754E-04
       N       E                     dE             d eps       ncg     rms          rms(c)
DAV:   1    -0.369298402030E+02    0.15506E-03   -0.66916E-01  1152   0.714E+00    0.143E-01
DAV:   2    -0.369301555582E+02   -0.31536E-03   -0.86676E-03  1292   0.827E-01    0.102E-01
DAV:   3    -0.369300049921E+02    0.15057E-03   -0.76153E-04  1424   0.271E-01    0.205E-02
DAV:   4    -0.369300213676E+02   -0.16376E-04   -0.21807E-04  1272   0.103E-01    0.989E-03
DAV:   5    -0.369300225383E+02   -0.11707E-05   -0.59634E-06  1496   0.255E-02    0.601E-03
DAV:   6    -0.369300223370E+02    0.20139E-06   -0.11847E-06  1360   0.125E-02    0.158E-03
DAV:   7    -0.369300222922E+02    0.44741E-07   -0.43255E-07  1380   0.576E-03    0.757E-04
DAV:   8    -0.369300221790E+02    0.11319E-06   -0.63468E-08  1436   0.225E-03    0.199E-04
DAV:   9    -0.369300222006E+02   -0.21596E-07   -0.85558E-09   980   0.824E-04    0.258E-04
DAV:  10    -0.369300224122E+02   -0.21163E-06   -0.12972E-08  1240   0.589E-04    0.865E-05
DAV:  11    -0.369300225688E+02   -0.15659E-06   -0.72605E-09  1140   0.377E-04    0.974E-05
DAV:  12    -0.369300227013E+02   -0.13245E-06   -0.10972E-08  1240   0.468E-04    0.435E-05
DAV:  13    -0.369300227353E+02   -0.34027E-07   -0.27756E-09   964   0.281E-04    0.311E-05
DAV:  14    -0.369300227191E+02    0.16204E-07   -0.36880E-09   980   0.239E-04    0.343E-05
DAV:  15    -0.369300227120E+02    0.71470E-08   -0.27281E-10  1024   0.983E-05
   9 F= -.36930023E+02 E0= -.36930020E+02  d E =-.541313E-04
       N       E                     dE             d eps       ncg     rms          rms(c)
DAV:   1    -0.369292003106E+02    0.82241E-03   -0.26732E+00  1152   0.143E+01    0.285E-01
DAV:   2    -0.369306154768E+02   -0.14152E-02   -0.35943E-02  1304   0.157E+00    0.205E-01
DAV:   3    -0.369300065623E+02    0.60891E-03   -0.28614E-03  1380   0.479E-01    0.479E-02
DAV:   4    -0.369300798193E+02   -0.73257E-04   -0.79487E-04  1268   0.174E-01    0.212E-02
DAV:   5    -0.369300756217E+02    0.41976E-05   -0.21128E-05  1576   0.452E-02    0.134E-02
DAV:   6    -0.369300760289E+02   -0.40717E-06   -0.69455E-06  1356   0.217E-02    0.273E-03
DAV:   7    -0.369300762472E+02   -0.21831E-06   -0.98345E-07  1392   0.890E-03    0.131E-03
DAV:   8    -0.369300760583E+02    0.18890E-06   -0.22922E-07  1380   0.401E-03    0.641E-04
DAV:   9    -0.369300762684E+02   -0.21009E-06   -0.25147E-08  1348   0.145E-03    0.424E-04
DAV:  10    -0.369300767821E+02   -0.51370E-06   -0.30964E-08  1232   0.105E-03    0.214E-04
DAV:  11    -0.369300772731E+02   -0.49098E-06   -0.36073E-08  1340   0.759E-04    0.204E-04
DAV:  12    -0.369300775045E+02   -0.23147E-06   -0.22460E-08  1340   0.774E-04    0.168E-04
DAV:  13    -0.369300775582E+02   -0.53673E-07   -0.61102E-09  1036   0.403E-04    0.139E-04
DAV:  14    -0.369300775402E+02    0.17993E-07   -0.35595E-09   968   0.301E-04    0.605E-05
DAV:  15    -0.369300775084E+02    0.31830E-07   -0.10946E-09   988   0.171E-04    0.503E-05
DAV:  16    -0.369300774764E+02    0.31941E-07   -0.47952E-10   964   0.105E-04    0.385E-05
DAV:  17    -0.369300774702E+02    0.62644E-08   -0.29176E-10   832   0.105E-04
  10 F= -.36930077E+02 E0= -.36930076E+02  d E =-.108889E-03
       N       E                     dE             d eps       ncg     rms          rms(c)
DAV:   1    -0.369259098634E+02    0.41676E-02   -0.10657E+01  1152   0.285E+01    0.584E-01
DAV:   2    -0.369323688416E+02   -0.64590E-02   -0.15113E-01  1220   0.293E+00    0.414E-01
DAV:   3    -0.369300523305E+02    0.23165E-02   -0.92242E-03  1400   0.786E-01    0.155E-01
DAV:   4    -0.369302213488E+02   -0.16902E-03   -0.25418E-03  1372   0.337E-01    0.444E-02
DAV:   5    -0.369301807634E+02    0.40585E-04   -0.10899E-04  1444   0.103E-01    0.260E-02
DAV:   6    -0.369301822677E+02   -0.15043E-05   -0.37388E-05  1356   0.483E-02    0.661E-03
DAV:   7    -0.369301827918E+02   -0.52409E-06   -0.29999E-06  1396   0.151E-02    0.243E-03
DAV:   8    -0.369301823569E+02    0.43493E-06   -0.59638E-07  1380   0.634E-03    0.861E-04
DAV:   9    -0.369301830448E+02   -0.68797E-06   -0.91898E-08  1484   0.248E-03    0.803E-04
DAV:  10    -0.369301851994E+02   -0.21545E-05   -0.23693E-07  1244   0.253E-03    0.493E-04
DAV:  11    -0.369301858138E+02   -0.61441E-06   -0.33521E-08  1380   0.149E-03    0.342E-04
DAV:  12    -0.369301866807E+02   -0.86690E-06   -0.14706E-07  1352   0.181E-03    0.267E-04
DAV:  13    -0.369301867485E+02   -0.67867E-07   -0.50105E-09  1036   0.553E-04    0.150E-04
DAV:  14    -0.369301867672E+02   -0.18622E-07   -0.21805E-08  1300   0.647E-04    0.147E-04
DAV:  15    -0.369301866775E+02    0.89701E-07   -0.58699E-09   988   0.481E-04    0.162E-04
DAV:  16    -0.369301866334E+02    0.44024E-07   -0.34248E-09   964   0.359E-04    0.794E-05
DAV:  17    -0.369301866199E+02    0.13545E-07   -0.16390E-09   860   0.182E-04    0.272E-05
DAV:  18    -0.369301866099E+02    0.10040E-07   -0.34737E-10   908   0.996E-05    0.274E-05
DAV:  19    -0.369301866183E+02   -0.84594E-08   -0.14422E-09   892   0.166E-04
  11 F= -.36930187E+02 E0= -.36930186E+02  d E =-.218038E-03
       N       E                     dE             d eps       ncg     rms          rms(c)
DAV:   1    -0.369031837479E+02    0.27003E-01   -0.42095E+01  1152   0.566E+01    0.135E+00
DAV:   2    -0.369394155162E+02   -0.36232E-01   -0.70391E-01  1184   0.599E+00    0.875E-01
DAV:   3    -0.369322444351E+02    0.71711E-02   -0.30132E-02  1444   0.128E+00    0.517E-01
DAV:   4    -0.369302619804E+02    0.19825E-02   -0.87085E-03  1392   0.860E-01    0.973E-02
DAV:   5    -0.369304043823E+02   -0.14240E-03   -0.22038E-03  1360   0.288E-01    0.389E-02
DAV:   6    -0.369303906542E+02    0.13728E-04   -0.12881E-04  1456   0.998E-02    0.105E-02
DAV:   7    -0.369303872664E+02    0.33878E-05   -0.17872E-05  1384   0.368E-02    0.408E-03
DAV:   8    -0.369303889117E+02   -0.16454E-05   -0.10211E-06  1420   0.117E-02    0.194E-03
DAV:   9    -0.369303939782E+02   -0.50664E-05   -0.10826E-06  1352   0.752E-03    0.186E-03
DAV:  10    -0.369303972552E+02   -0.32770E-05   -0.25760E-07  1328   0.303E-03    0.138E-03
DAV:  11    -0.369304013012E+02   -0.40459E-05   -0.49134E-07  1240   0.377E-03    0.830E-04
DAV:  12    -0.369304028306E+02   -0.15295E-05   -0.22025E-07  1384   0.213E-03    0.386E-04
DAV:  13    -0.369304032742E+02   -0.44355E-06   -0.76608E-08  1376   0.136E-03    0.283E-04
DAV:  14    -0.369304031838E+02    0.90421E-07   -0.55928E-08  1372   0.108E-03    0.392E-04
DAV:  15    -0.369304031126E+02    0.71210E-07   -0.14198E-08  1320   0.578E-04    0.960E-05
DAV:  16    -0.369304030066E+02    0.10595E-06   -0.99351E-09  1232   0.498E-04    0.145E-04
DAV:  17    -0.369304029882E+02    0.18423E-07   -0.30403E-09   884   0.304E-04    0.364E-05
DAV:  18    -0.369304029919E+02   -0.37433E-08   -0.28184E-09   888   0.251E-04
  12 F= -.36930403E+02 E0= -.36930403E+02  d E =-.434411E-03
       N       E                     dE             d eps       ncg     rms          rms(c)
DAV:   1    -0.366783546378E+02    0.25205E+00   -0.16012E+02  1152   0.110E+02    0.493E+00
DAV:   2    -0.369696296945E+02   -0.29128E+00   -0.42047E+00  1160   0.141E+01    0.241E+00
DAV:   3    -0.369464234607E+02    0.23206E-01   -0.12995E-01  1580   0.245E+00    0.175E+00
DAV:   4    -0.369304181504E+02    0.16005E-01   -0.52222E-02  1412   0.177E+00    0.290E-01
DAV:   5    -0.369309191166E+02   -0.50097E-03   -0.10662E-02  1336   0.650E-01    0.760E-02
DAV:   6    -0.369307895312E+02    0.12959E-03   -0.66344E-04  1384   0.233E-01    0.312E-02
DAV:   7    -0.369307701855E+02    0.19346E-04   -0.93450E-05  1368   0.101E-01    0.156E-02
DAV:   8    -0.369307456956E+02    0.24490E-04   -0.36315E-05  1364   0.492E-02    0.963E-03
DAV:   9    -0.369307520634E+02   -0.63678E-05   -0.53943E-06  1444   0.280E-02    0.259E-03
DAV:  10    -0.369307676339E+02   -0.15571E-04   -0.58803E-06  1284   0.207E-02    0.559E-03
DAV:  11    -0.369307758151E+02   -0.81811E-05   -0.86033E-07  1320   0.101E-02    0.200E-03
DAV:  12    -0.369307838210E+02   -0.80060E-05   -0.16693E-06  1248   0.160E-02    0.304E-03
DAV:  13    -0.369307848972E+02   -0.10761E-05   -0.41557E-07  1352   0.880E-03    0.595E-04
DAV:  14    -0.369307858432E+02   -0.94605E-06   -0.62528E-07  1316   0.599E-03    0.135E-03
DAV:  15    -0.369307858285E+02    0.14714E-07   -0.66830E-08  1412   0.234E-03    0.687E-04
DAV:  16    -0.369307852680E+02    0.56050E-06   -0.88277E-08  1368   0.196E-03    0.112E-03
DAV:  17    -0.369307852605E+02    0.75102E-08   -0.71696E-08  1364   0.266E-03
  13 F= -.36930785E+02 E0= -.36930785E+02  d E =-.816680E-03
       N       E                     dE             d eps       ncg     rms          rms(c)
DAV:   1    -0.345296512508E+02    0.24011E+01   -0.52679E+02  1152   0.192E+02    0.210E+01
DAV:   2    -0.370783777380E+02   -0.25487E+01   -0.29605E+01  1216   0.355E+01    0.867E+00
DAV:   3    -0.370157169825E+02    0.62661E-01   -0.74881E-01  1436   0.537E+00    0.654E+00
DAV:   4    -0.369300667248E+02    0.85650E-01   -0.31000E-01  1372   0.370E+00    0.894E-01
DAV:   5    -0.369316936241E+02   -0.16269E-02   -0.28493E-02  1332   0.107E+00    0.327E-01
DAV:   6    -0.369307154354E+02    0.97819E-03   -0.36789E-03  1424   0.548E-01    0.140E-01
DAV:   7    -0.369307357650E+02   -0.20330E-04   -0.59003E-04  1308   0.194E-01    0.314E-02
DAV:   8    -0.369306970781E+02    0.38687E-04   -0.57791E-05  1456   0.962E-02    0.147E-02
DAV:   9    -0.369307051940E+02   -0.81160E-05   -0.29811E-05  1364   0.519E-02    0.870E-03
DAV:  10    -0.369307423806E+02   -0.37187E-04   -0.95457E-06  1360   0.227E-02    0.342E-03
DAV:  11    -0.369307613711E+02   -0.18990E-04   -0.43994E-06  1308   0.127E-02    0.607E-03
DAV:  12    -0.369307807491E+02   -0.19378E-04   -0.38304E-06  1288   0.204E-02    0.213E-03
DAV:  13    -0.369307844452E+02   -0.36961E-05   -0.11803E-06  1356   0.937E-03    0.256E-03
DAV:  14    -0.369307858607E+02   -0.14155E-05   -0.19176E-06  1352   0.135E-02    0.230E-03
DAV:  15    -0.369307855981E+02    0.26263E-06   -0.16418E-07  1432   0.823E-03    0.106E-03
DAV:  16    -0.369307862129E+02   -0.61484E-06   -0.26039E-07  1364   0.596E-03    0.728E-04
DAV:  17    -0.369307860323E+02    0.18063E-06   -0.85591E-08  1376   0.245E-03    0.349E-04
DAV:  18    -0.369307864311E+02   -0.39884E-06   -0.74033E-08  1340   0.202E-03    0.607E-04
DAV:  19    -0.369307863729E+02    0.58163E-07   -0.83383E-09  1036   0.241E-03    0.225E-04
DAV:  20    -0.369307863810E+02   -0.80536E-08   -0.50705E-08  1304   0.167E-03
  14 F= -.36930786E+02 E0= -.36930786E+02  d E =-.817800E-03
       N       E                     dE             d eps       ncg     rms          rms(c)
DAV:   1    -0.364296225542E+02    0.50116E+00   -0.23873E+02  1152   0.133E+02    0.818E+00
DAV:   2    -0.369951562642E+02   -0.56553E+00   -0.76636E+00  1224   0.192E+01    0.375E+00
DAV:   3    -0.369573099398E+02    0.37846E-01   -0.18149E-01  1468   0.298E+00    0.269E+00
DAV:   4    -0.369303926701E+02    0.26917E-01   -0.86651E-02  1340   0.225E+00    0.461E-01
DAV:   5    -0.369312928800E+02   -0.90021E-03   -0.16388E-02  1376   0.787E-01    0.128E-01
DAV:   6    -0.369309970810E+02    0.29580E-03   -0.11207E-03  1452   0.322E-01    0.534E-02
DAV:   7    -0.369309737281E+02    0.23353E-04   -0.18249E-04  1292   0.130E-01    0.183E-02
DAV:   8    -0.369309551144E+02    0.18614E-04   -0.45472E-05  1380   0.591E-02    0.936E-03
DAV:   9    -0.369309451963E+02    0.99181E-05   -0.92709E-06  1408   0.329E-02    0.355E-03
DAV:  10    -0.369309404513E+02    0.47450E-05   -0.40293E-06  1376   0.287E-02    0.480E-03
DAV:  11    -0.369309423898E+02   -0.19385E-05   -0.14424E-06  1384   0.115E-02    0.418E-03
DAV:  12    -0.369309488407E+02   -0.64508E-05   -0.41942E-06  1240   0.246E-02    0.404E-03
DAV:  13    -0.369309486987E+02    0.14194E-06   -0.14795E-06  1328   0.102E-02    0.476E-03
DAV:  14    -0.369309533958E+02   -0.46971E-05   -0.59219E-07  1388   0.969E-03    0.690E-04
DAV:  15    -0.369309600308E+02   -0.66350E-05   -0.60921E-07  1648   0.143E-02    0.397E-03
DAV:  16    -0.369309630668E+02   -0.30360E-05   -0.42178E-07  1384   0.727E-03    0.119E-03
DAV:  17    -0.369309655816E+02   -0.25148E-05   -0.35305E-07  1368   0.560E-03    0.109E-03
DAV:  18    -0.369309671548E+02   -0.15732E-05   -0.62008E-08  1304   0.197E-03    0.316E-04
DAV:  19    -0.369309685182E+02   -0.13635E-05   -0.31488E-08  1328   0.104E-03    0.427E-04
DAV:  20    -0.369309693010E+02   -0.78276E-06   -0.21150E-08  1280   0.828E-04    0.281E-04
DAV:  21    -0.369309697315E+02   -0.43049E-06   -0.60404E-09   980   0.130E-03    0.730E-05
DAV:  22    -0.369309700295E+02   -0.29802E-06   -0.50780E-09  1004   0.120E-03    0.467E-04
DAV:  23    -0.369309701473E+02   -0.11782E-06   -0.56882E-09   952   0.672E-04    0.147E-04
DAV:  24    -0.369309701917E+02   -0.44398E-07   -0.54048E-09   928   0.659E-04    0.109E-04
DAV:  25    -0.369309702136E+02   -0.21869E-07   -0.11666E-09   920   0.484E-04    0.932E-05
DAV:  26    -0.369309702136E+02    0.17508E-10   -0.23659E-10  1000   0.177E-04
  15 F= -.36930970E+02 E0= -.36930970E+02  d E =-.100163E-02
       N       E                     dE             d eps       ncg     rms          rms(c)
DAV:   1    -0.369087004357E+02    0.22270E-01   -0.37436E+01  1152   0.534E+01    0.125E+00
DAV:   2    -0.369390032993E+02   -0.30303E-01   -0.60768E-01  1160   0.589E+00    0.813E-01
DAV:   3    -0.369323250709E+02    0.66782E-02   -0.26230E-02  1492   0.124E+00    0.463E-01
DAV:   4    -0.369308807530E+02    0.14443E-02   -0.83433E-03  1472   0.754E-01    0.774E-02
DAV:   5    -0.369309895584E+02   -0.10881E-03   -0.14664E-03  1292   0.288E-01    0.221E-02
DAV:   6    -0.369309846754E+02    0.48829E-05   -0.81610E-05  1504   0.782E-02    0.124E-02
DAV:   7    -0.369309829818E+02    0.16936E-05   -0.78579E-06  1388   0.319E-02    0.408E-03
DAV:   8    -0.369309861858E+02   -0.32040E-05   -0.13358E-06  1376   0.121E-02    0.123E-03
DAV:   9    -0.369309888867E+02   -0.27009E-05   -0.30151E-07  1364   0.468E-03    0.101E-03
DAV:  10    -0.369309932343E+02   -0.43475E-05   -0.39693E-07  1308   0.344E-03    0.727E-04
DAV:  11    -0.369309961622E+02   -0.29279E-05   -0.34986E-07  1264   0.300E-03    0.321E-04
DAV:  12    -0.369309974260E+02   -0.12638E-05   -0.18700E-07  1320   0.233E-03    0.307E-04
DAV:  13    -0.369309977811E+02   -0.35505E-06   -0.79356E-08  1376   0.126E-03    0.219E-04
DAV:  14    -0.369309977424E+02    0.38659E-07   -0.31854E-08  1396   0.868E-04    0.214E-04
DAV:  15    -0.369309976935E+02    0.48894E-07   -0.59639E-09  1016   0.412E-04    0.127E-04
DAV:  16    -0.369309976558E+02    0.37729E-07   -0.15226E-08  1292   0.724E-04    0.169E-04
DAV:  17    -0.369309976458E+02    0.99583E-08   -0.47402E-09   892   0.548E-04
  16 F= -.36930998E+02 E0= -.36930998E+02  d E =-.102907E-02
       N       E                     dE             d eps       ncg     rms          rms(c)
DAV:   1    -0.369306174539E+02    0.38020E-03   -0.19516E+00  1152   0.122E+01    0.246E-01
DAV:   2    -0.369313769955E+02   -0.75954E-03   -0.24014E-02  1292   0.140E+00    0.173E-01
DAV:   3    -0.369309479264E+02    0.42907E-03   -0.21353E-03  1380   0.470E-01    0.337E-02
DAV:   4    -0.369309967211E+02   -0.48795E-04   -0.64440E-04  1300   0.182E-01    0.172E-02
DAV:   5    -0.369310008057E+02   -0.40846E-05   -0.17405E-05  1560   0.331E-02    0.650E-03
DAV:   6    -0.369309993624E+02    0.14433E-05   -0.48886E-06  1396   0.204E-02    0.110E-03
DAV:   7    -0.369309992592E+02    0.10326E-06   -0.32497E-07  1416   0.547E-03    0.346E-04
DAV:   8    -0.369309989043E+02    0.35487E-06   -0.67624E-08  1380   0.226E-03    0.446E-04
DAV:   9    -0.369309988592E+02    0.45078E-07   -0.10667E-08  1204   0.975E-04    0.154E-04
DAV:  10    -0.369309988281E+02    0.31085E-07   -0.16394E-08  1316   0.621E-04    0.136E-04
DAV:  11    -0.369309989058E+02   -0.77675E-07   -0.26810E-09   888   0.301E-04    0.133E-04
DAV:  12    -0.369309990774E+02   -0.17157E-06   -0.12333E-08  1228   0.528E-04    0.715E-05
DAV:  13    -0.369309992462E+02   -0.16882E-06   -0.23206E-09   960   0.315E-04    0.458E-05
DAV:  14    -0.369309993601E+02   -0.11385E-06   -0.31714E-09   980   0.253E-04    0.361E-05
DAV:  15    -0.369309994618E+02   -0.10176E-06   -0.11989E-09   984   0.179E-04    0.289E-05
DAV:  16    -0.369309994916E+02   -0.29811E-07   -0.21256E-10   864   0.906E-05    0.246E-05
DAV:  17    -0.369309995261E+02   -0.34501E-07   -0.48452E-10   880   0.103E-04    0.322E-05
DAV:  18    -0.369309995319E+02   -0.57910E-08   -0.43694E-11   976   0.428E-05
  17 F= -.36931000E+02 E0= -.36931000E+02  d E =-.103095E-02
