<?xml version="1.0" encoding="ISO-8859-1"?>
<modeling>
 <generator>
  <i name="program" type="string">vasp </i>
  <i name="version" type="string">5.4.4.18Apr17-6-g9f103f2a35  </i>
  <i name="subversion" type="string">(build May 31 2018 21:15:54) complex            parallel </i>
  <i name="platform" type="string">c7_intel_O1 </i>
  <i name="date" type="string">2020 07 24 </i>
  <i name="time" type="string">01:13:53 </i>
 </generator>
 <incar>
  <i type="string" name="SYSTEM"> bilayer_graphene_AA</i>
  <i type="int" name="ISTART">     0</i>
  <i type="string" name="PREC">accurate</i>
  <i type="string" name="ALGO"> N</i>
  <i type="logical" name="ADDGRID"> T  </i>
  <i name="AMIN">      0.01000000</i>
  <i type="int" name="NELMIN">     5</i>
  <i type="int" name="IBRION">     2</i>
  <i name="EDIFF">      0.00000001</i>
  <i name="EDIFFG">     -0.00010000</i>
  <i type="int" name="NSW">    40</i>
  <i name="SYMPREC">      0.00010000</i>
  <i name="ENCUT">    800.00000000</i>
  <i type="logical" name="LREAL"> F  </i>
  <i type="int" name="ISMEAR">     0</i>
  <i name="SIGMA">      0.01000000</i>
  <i type="logical" name="LWAVE"> F  </i>
  <v type="int" name="KPOINT_BSE">    -1     0     0     0</v>
 </incar>
 <structure name="primitive_cell" >
  <crystal>
   <varray name="basis" >
    <v>       2.13000000      -1.22975600       0.00000000 </v>
    <v>       2.13000000       1.22975600       0.00000000 </v>
    <v>       0.00000000       0.00000000      20.00000000 </v>
   </varray>
   <i name="volume">    104.77521120 </i>
   <varray name="rec_basis" >
    <v>       0.23474178      -0.40658472       0.00000000 </v>
    <v>       0.23474178       0.40658472       0.00000000 </v>
    <v>       0.00000000       0.00000000       0.05000000 </v>
   </varray>
  </crystal>
  <varray name="positions" >
   <v>       0.00000000       0.00000000       0.00000000 </v>
   <v>       0.33333300       0.33333300       0.00000000 </v>
   <v>       0.00000000       0.00000000       0.25000000 </v>
   <v>       0.33333300       0.33333300       0.25000000 </v>
  </varray>
 </structure>
 <varray name="primitive_index" >
  <v type="int" >        1 </v>
  <v type="int" >        2 </v>
  <v type="int" >        3 </v>
  <v type="int" >        4 </v>
 </varray>
 <kpoints>
  <generation param="Gamma">
   <v type="int" name="divisions">      21       21        1 </v>
   <v name="usershift">      0.00000000       0.00000000       0.00000000 </v>
   <v name="genvec1">      0.04761905       0.00000000       0.00000000 </v>
   <v name="genvec2">      0.00000000       0.04761905       0.00000000 </v>
   <v name="genvec3">      0.00000000       0.00000000       1.00000000 </v>
   <v name="shift">      0.00000000       0.00000000       0.00000000 </v>
  </generation>
  <varray name="kpointlist" >
   <v>       0.00000000       0.00000000       0.00000000 </v>
   <v>       0.04761905       0.00000000       0.00000000 </v>
   <v>       0.09523810       0.00000000       0.00000000 </v>
   <v>       0.14285714       0.00000000       0.00000000 </v>
   <v>       0.19047619       0.00000000       0.00000000 </v>
   <v>       0.23809524       0.00000000       0.00000000 </v>
   <v>       0.28571429       0.00000000       0.00000000 </v>
   <v>       0.33333333       0.00000000       0.00000000 </v>
   <v>       0.38095238       0.00000000       0.00000000 </v>
   <v>       0.42857143       0.00000000       0.00000000 </v>
   <v>       0.47619048       0.00000000       0.00000000 </v>
   <v>       0.09523810       0.04761905       0.00000000 </v>
   <v>       0.14285714       0.04761905       0.00000000 </v>
   <v>       0.19047619       0.04761905       0.00000000 </v>
   <v>       0.23809524       0.04761905       0.00000000 </v>
   <v>       0.28571429       0.04761905       0.00000000 </v>
   <v>       0.33333333       0.04761905       0.00000000 </v>
   <v>       0.38095238       0.04761905       0.00000000 </v>
   <v>       0.42857143       0.04761905       0.00000000 </v>
   <v>       0.47619048       0.04761905       0.00000000 </v>
   <v>      -0.47619048       0.04761905       0.00000000 </v>
   <v>       0.19047619       0.09523810       0.00000000 </v>
   <v>       0.23809524       0.09523810       0.00000000 </v>
   <v>       0.28571429       0.09523810       0.00000000 </v>
   <v>       0.33333333       0.09523810       0.00000000 </v>
   <v>       0.38095238       0.09523810       0.00000000 </v>
   <v>       0.42857143       0.09523810       0.00000000 </v>
   <v>       0.47619048       0.09523810       0.00000000 </v>
   <v>      -0.47619048       0.09523810       0.00000000 </v>
   <v>       0.28571429       0.14285714       0.00000000 </v>
   <v>       0.33333333       0.14285714       0.00000000 </v>
   <v>       0.38095238       0.14285714       0.00000000 </v>
   <v>       0.42857143       0.14285714       0.00000000 </v>
   <v>       0.47619048       0.14285714       0.00000000 </v>
   <v>      -0.47619048       0.14285714       0.00000000 </v>
   <v>      -0.42857143       0.14285714       0.00000000 </v>
   <v>       0.38095238       0.19047619       0.00000000 </v>
   <v>       0.42857143       0.19047619       0.00000000 </v>
   <v>       0.47619048       0.19047619       0.00000000 </v>
   <v>      -0.47619048       0.19047619       0.00000000 </v>
   <v>      -0.42857143       0.19047619       0.00000000 </v>
   <v>       0.47619048       0.23809524       0.00000000 </v>
   <v>      -0.47619048       0.23809524       0.00000000 </v>
   <v>      -0.42857143       0.23809524       0.00000000 </v>
   <v>      -0.38095238       0.23809524       0.00000000 </v>
   <v>      -0.42857143       0.28571429       0.00000000 </v>
   <v>      -0.38095238       0.28571429       0.00000000 </v>
   <v>      -0.33333333       0.33333333       0.00000000 </v>
  </varray>
  <varray name="weights" >
   <v>       0.00226757 </v>
   <v>       0.01360544 </v>
   <v>       0.01360544 </v>
   <v>       0.01360544 </v>
   <v>       0.01360544 </v>
   <v>       0.01360544 </v>
   <v>       0.01360544 </v>
   <v>       0.01360544 </v>
   <v>       0.01360544 </v>
   <v>       0.01360544 </v>
   <v>       0.01360544 </v>
   <v>       0.01360544 </v>
   <v>       0.02721088 </v>
   <v>       0.02721088 </v>
   <v>       0.02721088 </v>
   <v>       0.02721088 </v>
   <v>       0.02721088 </v>
   <v>       0.02721088 </v>
   <v>       0.02721088 </v>
   <v>       0.02721088 </v>
   <v>       0.01360544 </v>
   <v>       0.01360544 </v>
   <v>       0.02721088 </v>
   <v>       0.02721088 </v>
   <v>       0.02721088 </v>
   <v>       0.02721088 </v>
   <v>       0.02721088 </v>
   <v>       0.02721088 </v>
   <v>       0.02721088 </v>
   <v>       0.01360544 </v>
   <v>       0.02721088 </v>
   <v>       0.02721088 </v>
   <v>       0.02721088 </v>
   <v>       0.02721088 </v>
   <v>       0.02721088 </v>
   <v>       0.01360544 </v>
   <v>       0.01360544 </v>
   <v>       0.02721088 </v>
   <v>       0.02721088 </v>
   <v>       0.02721088 </v>
   <v>       0.02721088 </v>
   <v>       0.01360544 </v>
   <v>       0.02721088 </v>
   <v>       0.02721088 </v>
   <v>       0.01360544 </v>
   <v>       0.01360544 </v>
   <v>       0.02721088 </v>
   <v>       0.00453515 </v>
  </varray>
 </kpoints>
 <parameters>
  <separator name="general" >
   <i type="string" name="SYSTEM">bilayer_graphene_AA</i>
   <i type="logical" name="LCOMPAT"> F  </i>
  </separator>
  <separator name="electronic" >
   <i type="string" name="PREC">accura</i>
   <i name="ENMAX">    800.00000000</i>
   <i name="ENAUG">    644.87300000</i>
   <i name="EDIFF">      0.00000001</i>
   <i type="int" name="IALGO">    38</i>
   <i type="int" name="IWAVPR">    11</i>
   <i type="int" name="NBANDS">    12</i>
   <i name="NELECT">     16.00000000</i>
   <i type="int" name="TURBO">     0</i>
   <i type="int" name="IRESTART">     0</i>
   <i type="int" name="NREBOOT">     0</i>
   <i type="int" name="NMIN">     0</i>
   <i name="EREF">      0.00000000</i>
   <separator name="electronic smearing" >
    <i type="int" name="ISMEAR">     0</i>
    <i name="SIGMA">      0.01000000</i>
    <i name="KSPACING">      0.50000000</i>
    <i type="logical" name="KGAMMA"> T  </i>
   </separator>
   <separator name="electronic projectors" >
    <i type="logical" name="LREAL"> F  </i>
    <v name="ROPT">      0.00000000</v>
    <i type="int" name="LMAXPAW">  -100</i>
    <i type="int" name="LMAXMIX">     2</i>
    <i type="logical" name="NLSPLINE"> F  </i>
   </separator>
   <separator name="electronic startup" >
    <i type="int" name="ISTART">     0</i>
    <i type="int" name="ICHARG">     2</i>
    <i type="int" name="INIWAV">     1</i>
   </separator>
   <separator name="electronic spin" >
    <i type="int" name="ISPIN">     1</i>
    <i type="logical" name="LNONCOLLINEAR"> F  </i>
    <v name="MAGMOM">      1.00000000      1.00000000      1.00000000      1.00000000</v>
    <i name="NUPDOWN">     -1.00000000</i>
    <i type="logical" name="LSORBIT"> F  </i>
    <v name="SAXIS">      0.00000000      0.00000000      1.00000000</v>
    <i type="logical" name="LSPIRAL"> F  </i>
    <v name="QSPIRAL">      0.00000000      0.00000000      0.00000000</v>
    <i type="logical" name="LZEROZ"> F  </i>
   </separator>
   <separator name="electronic exchange-correlation" >
    <i type="logical" name="LASPH"> F  </i>
    <i type="logical" name="LMETAGGA"> F  </i>
   </separator>
   <separator name="electronic convergence" >
    <i type="int" name="NELM">    60</i>
    <i type="int" name="NELMDL">    -5</i>
    <i type="int" name="NELMIN">     5</i>
    <i name="ENINI">    800.00000000</i>
    <separator name="electronic convergence detail" >
     <i type="logical" name="LDIAG"> T  </i>
     <i type="logical" name="LSUBROT"> F  </i>
     <i name="WEIMIN">      0.00100000</i>
     <i name="EBREAK">      0.00000000</i>
     <i name="DEPER">      0.30000000</i>
     <i type="int" name="NRMM">     4</i>
     <i name="TIME">      0.40000000</i>
    </separator>
   </separator>
   <separator name="electronic mixer" >
    <i name="AMIX">      0.40000000</i>
    <i name="BMIX">      1.00000000</i>
    <i name="AMIN">      0.01000000</i>
    <i name="AMIX_MAG">      1.60000000</i>
    <i name="BMIX_MAG">      1.00000000</i>
    <separator name="electronic mixer details" >
     <i type="int" name="IMIX">     4</i>
     <i type="logical" name="MIXFIRST"> F  </i>
     <i type="int" name="MAXMIX">   -45</i>
     <i name="WC">    100.00000000</i>
     <i type="int" name="INIMIX">     1</i>
     <i type="int" name="MIXPRE">     1</i>
     <i type="int" name="MREMOVE">     5</i>
    </separator>
   </separator>
   <separator name="electronic dipolcorrection" >
    <i type="logical" name="LDIPOL"> F  </i>
    <i type="logical" name="LMONO"> F  </i>
    <i type="int" name="IDIPOL">     0</i>
    <i name="EPSILON">      1.00000000</i>
    <v name="DIPOL">   -100.00000000   -100.00000000   -100.00000000</v>
    <i name="EFIELD">      0.00000000</i>
   </separator>
  </separator>
  <separator name="grids" >
   <i type="int" name="NGX">    24</i>
   <i type="int" name="NGY">    24</i>
   <i type="int" name="NGZ">   192</i>
   <i type="int" name="NGXF">    48</i>
   <i type="int" name="NGYF">    48</i>
   <i type="int" name="NGZF">   384</i>
   <i type="logical" name="ADDGRID"> T  </i>
  </separator>
  <separator name="ionic" >
   <i type="int" name="NSW">    40</i>
   <i type="int" name="IBRION">     2</i>
   <i type="int" name="MDALGO">     0</i>
   <i type="int" name="ISIF">     2</i>
   <i name="PSTRESS">      0.00000000</i>
   <i name="EDIFFG">     -0.00010000</i>
   <i type="int" name="NFREE">     1</i>
   <i name="POTIM">      0.50000000</i>
   <i name="SMASS">     -3.00000000</i>
   <i name="SCALEE">      1.00000000</i>
  </separator>
  <separator name="ionic md" >
   <i name="TEBEG">      0.00010000</i>
   <i name="TEEND">      0.00010000</i>
   <i type="int" name="NBLOCK">     1</i>
   <i type="int" name="KBLOCK">    40</i>
   <i type="int" name="NPACO">   256</i>
   <i name="APACO">     16.00000000</i>
  </separator>
  <separator name="symmetry" >
   <i type="int" name="ISYM">     2</i>
   <i name="SYMPREC">      0.00010000</i>
  </separator>
  <separator name="dos" >
   <i type="int" name="LORBIT">     0</i>
   <v name="RWIGS">     -1.00000000</v>
   <i type="int" name="NEDOS">   301</i>
   <i name="EMIN">     10.00000000</i>
   <i name="EMAX">    -10.00000000</i>
   <i name="EFERMI">      0.00000000</i>
  </separator>
  <separator name="writing" >
   <i type="int" name="NWRITE">     2</i>
   <i type="logical" name="LWAVE"> F  </i>
   <i type="logical" name="LDOWNSAMPLE"> F  </i>
   <i type="logical" name="LCHARG"> T  </i>
   <i type="logical" name="LPARD"> F  </i>
   <i type="logical" name="LVTOT"> F  </i>
   <i type="logical" name="LVHAR"> F  </i>
   <i type="logical" name="LELF"> F  </i>
   <i type="logical" name="LOPTICS"> F  </i>
   <v name="STM">      0.00000000      0.00000000      0.00000000      0.00000000      0.00000000      0.00000000      0.00000000</v>
  </separator>
  <separator name="performance" >
   <i type="int" name="NPAR">     4</i>
   <i type="int" name="NSIM">     4</i>
   <i type="int" name="NBLK">    -1</i>
   <i type="logical" name="LPLANE"> T  </i>
   <i type="logical" name="LSCALAPACK"> T  </i>
   <i type="logical" name="LSCAAWARE"> F  </i>
   <i type="logical" name="LSCALU"> F  </i>
   <i type="logical" name="LASYNC"> F  </i>
   <i type="logical" name="LORBITALREAL"> F  </i>
  </separator>
  <separator name="miscellaneous" >
   <i type="int" name="IDIOT">     3</i>
   <i type="int" name="ISPECIAL">     0</i>
   <i type="logical" name="LMUSIC"> F  </i>
   <v name="POMASS">     12.01100000</v>
   <v name="DARWINR">      0.00000000</v>
   <v name="DARWINV">      1.00000000</v>
   <i type="logical" name="LCORR"> T  </i>
  </separator>
  <i type="logical" name="GGA_COMPAT"> T  </i>
  <i type="logical" name="LBERRY"> F  </i>
  <i type="int" name="ICORELEVEL">     0</i>
  <i type="logical" name="LDAU"> F  </i>
  <i type="int" name="I_CONSTRAINED_M">     0</i>
  <separator name="electronic exchange-correlation" >
   <i type="string" name="GGA">--</i>
   <i type="int" name="VOSKOWN">     0</i>
   <i type="logical" name="LHFCALC"> F  </i>
   <i type="string" name="PRECFOCK"></i>
   <i type="logical" name="LSYMGRAD"> F  </i>
   <i type="logical" name="LHFONE"> F  </i>
   <i type="logical" name="LRHFCALC"> F  </i>
   <i type="logical" name="LTHOMAS"> F  </i>
   <i type="logical" name="LMODELHF"> F  </i>
   <i name="ENCUT4O">     -1.00000000</i>
   <i type="int" name="EXXOEP">     0</i>
   <i type="int" name="FOURORBIT">     0</i>
   <i name="AEXX">      0.00000000</i>
   <i name="HFALPHA">      0.00000000</i>
   <i name="MCALPHA">      0.00000000</i>
   <i name="ALDAX">      1.00000000</i>
   <i name="AGGAX">      1.00000000</i>
   <i name="ALDAC">      1.00000000</i>
   <i name="AGGAC">      1.00000000</i>
   <i type="int" name="NKREDX">     1</i>
   <i type="int" name="NKREDY">     1</i>
   <i type="int" name="NKREDZ">     1</i>
   <i type="logical" name="SHIFTRED"> F  </i>
   <i type="logical" name="ODDONLY"> F  </i>
   <i type="logical" name="EVENONLY"> F  </i>
   <i type="int" name="LMAXFOCK">     0</i>
   <i type="int" name="NMAXFOCKAE">     0</i>
   <i type="logical" name="LFOCKAEDFT"> F  </i>
   <i name="HFSCREEN">      0.00000000</i>
   <i name="HFSCREENC">      0.00000000</i>
   <i type="int" name="NBANDSGWLOW">     0</i>
  </separator>
  <separator name="vdW DFT" >
   <i type="logical" name="LUSE_VDW"> F  </i>
   <i name="Zab_VDW">     -0.84910000</i>
   <i name="PARAM1">      0.12340000</i>
   <i name="PARAM2">      1.00000000</i>
   <i name="PARAM3">      0.00000000</i>
  </separator>
  <separator name="model GW" >
   <i type="int" name="MODEL_GW">     0</i>
   <i name="MODEL_EPS0">     15.71628168</i>
   <i name="MODEL_ALPHA">      1.00000000</i>
  </separator>
  <separator name="linear response parameters" >
   <i type="logical" name="LEPSILON"> F  </i>
   <i type="logical" name="LRPA"> F  </i>
   <i type="logical" name="LNABLA"> F  </i>
   <i type="logical" name="LVEL"> F  </i>
   <i type="int" name="KINTER">     0</i>
   <i name="CSHIFT">      0.10000000</i>
   <i name="OMEGAMAX">     -1.00000000</i>
   <i name="DEG_THRESHOLD">      0.00200000</i>
   <i name="RTIME">     -0.10000000</i>
   <i name="WPLASMAI">      0.00000000</i>
   <v name="DFIELD">      0.00000000      0.00000000      0.00000000</v>
   <v name="WPLASMA">      0.00000000      0.00000000      0.00000000      0.00000000      0.00000000      0.00000000      0.00000000      0.00000000      0.00000000</v>
  </separator>
  <separator name="orbital magnetization" >
   <i type="logical" name="NUCIND"> F  </i>
   <v name="MAGPOS">      0.00000000      0.00000000      0.00000000</v>
   <i type="logical" name="LNICSALL"> T  </i>
   <i type="logical" name="ORBITALMAG"> F  </i>
   <i type="logical" name="LMAGBLOCH"> F  </i>
   <i type="logical" name="LCHIMAG"> F  </i>
   <i type="logical" name="LGAUGE"> T  </i>
   <i type="int" name="MAGATOM">     0</i>
   <v name="MAGDIPOL">      0.00000000      0.00000000      0.00000000</v>
   <v name="AVECCONST">      0.00000000      0.00000000      0.00000000</v>
  </separator>
  <separator name="response functions" >
   <i type="logical" name="LADDER"> F  </i>
   <i type="logical" name="LRPAFORCE"> F  </i>
   <i type="logical" name="LFXC"> F  </i>
   <i type="logical" name="LHARTREE"> T  </i>
   <i type="int" name="IBSE">     0</i>
   <v type="int" name="KPOINT">    -1     0     0     0</v>
   <i type="logical" name="LTCTE"> F  </i>
   <i type="logical" name="LTETE"> F  </i>
   <i type="logical" name="LTRIPLET"> F  </i>
   <i type="logical" name="LFXCEPS"> F  </i>
   <i type="logical" name="LFXHEG"> F  </i>
   <i type="int" name="NATURALO">     2</i>
   <i type="logical" name="L2ORDER"> F  </i>
   <i type="logical" name="LMP2LT"> F  </i>
   <i type="logical" name="LUSEW"> F  </i>
   <i name="ENCUTGW">     -2.00000000</i>
   <i name="ENCUTGWSOFT">     -2.00000000</i>
   <i name="ENCUTLF">     -1.00000000</i>
   <i type="int" name="LMAXMP2">    -1</i>
   <i name="SCISSOR">      0.00000000</i>
   <i type="int" name="NOMEGA">     0</i>
   <i type="int" name="NOMEGAR">     0</i>
   <i type="int" name="NBANDSGW">    -1</i>
   <i type="int" name="NBANDSO">    -1</i>
   <i type="int" name="NBANDSV">    -1</i>
   <i type="int" name="NELM">     1</i>
   <i type="int" name="NELMHF">     1</i>
   <i type="int" name="DIM">     3</i>
   <i type="int" name="ANTIRES">     0</i>
   <i name="OMEGAMAX">    -30.00000000</i>
   <i name="OMEGAMIN">    -30.00000000</i>
   <i name="OMEGATL">   -200.00000000</i>
   <i type="int" name="OMEGAGRID">   140</i>
   <i name="CSHIFT">     -0.10000000</i>
   <i type="logical" name="SELFENERGY"> F  </i>
   <i type="logical" name="LSPECTRAL"> F  </i>
   <i type="logical" name="LSPECTRALGW"> F  </i>
   <i type="logical" name="LSINGLES"> F  </i>
   <i type="logical" name="LFERMIGW"> F  </i>
   <i type="logical" name="ODDONLYGW"> F  </i>
   <i type="logical" name="EVENONLYGW"> F  </i>
   <i type="int" name="NKREDLFX">     1</i>
   <i type="int" name="NKREDLFY">     1</i>
   <i type="int" name="NKREDLFZ">     1</i>
   <i type="int" name="MAXMEM">  2800</i>
   <i type="int" name="TELESCOPE">     0</i>
   <i type="int" name="TAUPAR">     1</i>
   <i type="int" name="OMEGAPAR">    -1</i>
   <i name="LAMBDA">      1.00000000</i>
  </separator>
  <separator name="External order field" >
   <i name="OFIELD_KAPPA">      0.00000000</i>
   <v name="OFIELD_K">      0.00000000      0.00000000      0.00000000</v>
   <i name="OFIELD_Q6_NEAR">      0.00000000</i>
   <i name="OFIELD_Q6_FAR">      0.00000000</i>
   <i name="OFIELD_A">      0.00000000</i>
  </separator>
 </parameters>
 <atominfo>
  <atoms>       4 </atoms>
  <types>       1 </types>
  <array name="atoms" >
   <dimension dim="1">ion</dimension>
   <field type="string">element</field>
   <field type="int">atomtype</field>
   <set>
    <rc><c>C </c><c>   1</c></rc>
    <rc><c>C </c><c>   1</c></rc>
    <rc><c>C </c><c>   1</c></rc>
    <rc><c>C </c><c>   1</c></rc>
   </set>
  </array>
  <array name="atomtypes" >
   <dimension dim="1">type</dimension>
   <field type="int">atomspertype</field>
   <field type="string">element</field>
   <field>mass</field>
   <field>valence</field>
   <field type="string">pseudopotential</field>
   <set>
    <rc><c>   4</c><c>C </c><c>     12.01100000</c><c>      4.00000000</c><c>  PAW_PBE C 08Apr2002                   </c></rc>
   </set>
  </array>
 </atominfo>
 <structure name="initialpos" >
  <crystal>
   <varray name="basis" >
    <v>       2.13000000      -1.22975600       0.00000000 </v>
    <v>       2.13000000       1.22975600       0.00000000 </v>
    <v>       0.00000000       0.00000000      20.00000000 </v>
   </varray>
   <i name="volume">    104.77521120 </i>
   <varray name="rec_basis" >
    <v>       0.23474178      -0.40658472       0.00000000 </v>
    <v>       0.23474178       0.40658472       0.00000000 </v>
    <v>       0.00000000       0.00000000       0.05000000 </v>
   </varray>
  </crystal>
  <varray name="positions" >
   <v>       0.00000000       0.00000000       0.00000000 </v>
   <v>       0.33333300       0.33333300       0.00000000 </v>
   <v>       0.00000000       0.00000000       0.25000000 </v>
   <v>       0.33333300       0.33333300       0.25000000 </v>
  </varray>
  <varray name="selective"  type="logical" >
   <v type="logical" >  F  F  F </v>
   <v type="logical" >  F  F  F </v>
   <v type="logical" >  F  F  T </v>
   <v type="logical" >  F  F  T </v>
  </varray>
  <nose>
   <v>      -3.00000000       0.00000000       0.00010000       0.00010000 </v>
  </nose>
 </structure>
 <calculation>
  <scstep>
   <time name="dav">    1.51    1.52</time>
   <time name="total">    1.64    1.66</time>
   <energy>
    <i name="alphaZ">     12.54445055 </i>
    <i name="ewald">   2145.51726299 </i>
    <i name="hartreedc">  -2607.28434386 </i>
    <i name="XCdc">     52.79485799 </i>
    <i name="pawpsdc">    434.08818552 </i>
    <i name="pawaedc">   -436.36580876 </i>
    <i name="eentropy">     -0.00000000 </i>
    <i name="bandstr">    -62.18033464 </i>
    <i name="atom">    588.61769381 </i>
    <i name="e_fr_energy">    127.73196360 </i>
    <i name="e_wo_entrp">    127.73196360 </i>
    <i name="e_0_energy">    127.73196360 </i>
   </energy>
  </scstep>
  <scstep>
   <time name="dav">    2.12    2.13</time>
   <time name="total">    2.12    2.13</time>
   <energy>
    <i name="e_fr_energy">    -25.16097599 </i>
    <i name="e_wo_entrp">    -25.16085370 </i>
    <i name="e_0_energy">    -25.16091485 </i>
   </energy>
  </scstep>
  <scstep>
   <time name="dav">    1.74    1.74</time>
   <time name="total">    1.74    1.74</time>
   <energy>
    <i name="e_fr_energy">    -39.21587380 </i>
    <i name="e_wo_entrp">    -39.21584581 </i>
    <i name="e_0_energy">    -39.21585981 </i>
   </energy>
  </scstep>
  <scstep>
   <time name="dav">    1.75    1.76</time>
   <time name="total">    1.75    1.76</time>
   <energy>
    <i name="e_fr_energy">    -39.52353447 </i>
    <i name="e_wo_entrp">    -39.52348274 </i>
    <i name="e_0_energy">    -39.52350860 </i>
   </energy>
  </scstep>
  <scstep>
   <time name="dav">    1.76    1.76</time>
   <time name="total">    1.95    1.96</time>
   <energy>
    <i name="e_fr_energy">    -39.53252008 </i>
    <i name="e_wo_entrp">    -39.53246996 </i>
    <i name="e_0_energy">    -39.53249502 </i>
   </energy>
  </scstep>
  <scstep>
   <time name="dav">    1.70    1.70</time>
   <time name="total">    2.01    2.01</time>
   <energy>
    <i name="e_fr_energy">    -37.65243141 </i>
    <i name="e_wo_entrp">    -37.65240567 </i>
    <i name="e_0_energy">    -37.65241854 </i>
   </energy>
  </scstep>
  <scstep>
   <time name="dav">    1.73    1.73</time>
   <time name="total">    2.03    2.03</time>
   <energy>
    <i name="e_fr_energy">    -36.93838765 </i>
    <i name="e_wo_entrp">    -36.93838238 </i>
    <i name="e_0_energy">    -36.93838501 </i>
   </energy>
  </scstep>
  <scstep>
   <time name="dav">    1.76    1.77</time>
   <time name="total">    2.06    2.07</time>
   <energy>
    <i name="e_fr_energy">    -36.93855962 </i>
    <i name="e_wo_entrp">    -36.93855375 </i>
    <i name="e_0_energy">    -36.93855669 </i>
   </energy>
  </scstep>
  <scstep>
   <time name="dav">    1.77    1.78</time>
   <time name="total">    2.08    2.08</time>
   <energy>
    <i name="e_fr_energy">    -36.93738573 </i>
    <i name="e_wo_entrp">    -36.93737995 </i>
    <i name="e_0_energy">    -36.93738284 </i>
   </energy>
  </scstep>
  <scstep>
   <time name="dav">    1.68    1.69</time>
   <time name="total">    1.99    1.99</time>
   <energy>
    <i name="e_fr_energy">    -36.93341569 </i>
    <i name="e_wo_entrp">    -36.93341407 </i>
    <i name="e_0_energy">    -36.93341488 </i>
   </energy>
  </scstep>
  <scstep>
   <time name="dav">    1.63    1.64</time>
   <time name="total">    1.94    1.94</time>
   <energy>
    <i name="e_fr_energy">    -36.93242865 </i>
    <i name="e_wo_entrp">    -36.93242359 </i>
    <i name="e_0_energy">    -36.93242612 </i>
   </energy>
  </scstep>
  <scstep>
   <time name="dav">    1.55    1.56</time>
   <time name="total">    1.86    1.86</time>
   <energy>
    <i name="e_fr_energy">    -36.92947462 </i>
    <i name="e_wo_entrp">    -36.92946982 </i>
    <i name="e_0_energy">    -36.92947222 </i>
   </energy>
  </scstep>
  <scstep>
   <time name="dav">    1.64    1.65</time>
   <time name="total">    1.94    1.95</time>
   <energy>
    <i name="e_fr_energy">    -36.92759119 </i>
    <i name="e_wo_entrp">    -36.92758532 </i>
    <i name="e_0_energy">    -36.92758826 </i>
   </energy>
  </scstep>
  <scstep>
   <time name="dav">    1.64    1.64</time>
   <time name="total">    1.93    1.94</time>
   <energy>
    <i name="e_fr_energy">    -36.92864187 </i>
    <i name="e_wo_entrp">    -36.92863650 </i>
    <i name="e_0_energy">    -36.92863919 </i>
   </energy>
  </scstep>
  <scstep>
   <time name="dav">    1.67    1.67</time>
   <time name="total">    1.96    1.97</time>
   <energy>
    <i name="e_fr_energy">    -36.92904725 </i>
    <i name="e_wo_entrp">    -36.92904115 </i>
    <i name="e_0_energy">    -36.92904420 </i>
   </energy>
  </scstep>
  <scstep>
   <time name="dav">    1.60    1.60</time>
   <time name="total">    1.89    1.90</time>
   <energy>
    <i name="e_fr_energy">    -36.92985560 </i>
    <i name="e_wo_entrp">    -36.92984985 </i>
    <i name="e_0_energy">    -36.92985272 </i>
   </energy>
  </scstep>
  <scstep>
   <time name="dav">    1.64    1.65</time>
   <time name="total">    1.94    1.94</time>
   <energy>
    <i name="e_fr_energy">    -36.92994741 </i>
    <i name="e_wo_entrp">    -36.92994143 </i>
    <i name="e_0_energy">    -36.92994442 </i>
   </energy>
  </scstep>
  <scstep>
   <time name="dav">    1.63    1.63</time>
   <time name="total">    1.93    1.93</time>
   <energy>
    <i name="e_fr_energy">    -36.92996331 </i>
    <i name="e_wo_entrp">    -36.92995727 </i>
    <i name="e_0_energy">    -36.92996029 </i>
   </energy>
  </scstep>
  <scstep>
   <time name="dav">    1.66    1.67</time>
   <time name="total">    1.96    1.97</time>
   <energy>
    <i name="e_fr_energy">    -36.92996724 </i>
    <i name="e_wo_entrp">    -36.92996121 </i>
    <i name="e_0_energy">    -36.92996423 </i>
   </energy>
  </scstep>
  <scstep>
   <time name="dav">    1.67    1.67</time>
   <time name="total">    1.97    1.97</time>
   <energy>
    <i name="e_fr_energy">    -36.92996822 </i>
    <i name="e_wo_entrp">    -36.92996218 </i>
    <i name="e_0_energy">    -36.92996520 </i>
   </energy>
  </scstep>
  <scstep>
   <time name="dav">    1.43    1.43</time>
   <time name="total">    1.73    1.73</time>
   <energy>
    <i name="e_fr_energy">    -36.92996844 </i>
    <i name="e_wo_entrp">    -36.92996240 </i>
    <i name="e_0_energy">    -36.92996542 </i>
   </energy>
  </scstep>
  <scstep>
   <time name="dav">    1.34    1.34</time>
   <time name="total">    1.64    1.64</time>
   <energy>
    <i name="e_fr_energy">    -36.92996850 </i>
    <i name="e_wo_entrp">    -36.92996246 </i>
    <i name="e_0_energy">    -36.92996548 </i>
   </energy>
  </scstep>
  <scstep>
   <time name="dav">    1.30    1.30</time>
   <time name="total">    1.59    1.60</time>
   <energy>
    <i name="e_fr_energy">    -36.92996856 </i>
    <i name="e_wo_entrp">    -36.92996252 </i>
    <i name="e_0_energy">    -36.92996554 </i>
   </energy>
  </scstep>
  <scstep>
   <time name="dav">    1.26    1.26</time>
   <time name="total">    1.56    1.56</time>
   <energy>
    <i name="e_fr_energy">    -36.92996857 </i>
    <i name="e_wo_entrp">    -36.92996254 </i>
    <i name="e_0_energy">    -36.92996556 </i>
   </energy>
  </scstep>
  <scstep>
   <time name="dav">    1.29    1.30</time>
   <time name="total">    1.40    1.41</time>
   <energy>
    <i name="alphaZ">     12.54445055 </i>
    <i name="ewald">   2145.51726299 </i>
    <i name="hartreedc">  -2669.89767839 </i>
    <i name="XCdc">     55.18497831 </i>
    <i name="pawpsdc">   1695.61262586 </i>
    <i name="pawaedc">  -1698.33526580 </i>
    <i name="eentropy">     -0.00000603 </i>
    <i name="bandstr">   -166.17402988 </i>
    <i name="atom">    588.61769381 </i>
    <i name="e_fr_energy">    -36.92996858 </i>
    <i name="e_wo_entrp">    -36.92996255 </i>
    <i name="e_0_energy">    -36.92996556 </i>
   </energy>
  </scstep>
  <structure>
   <crystal>
    <varray name="basis" >
     <v>       2.13000000      -1.22975600       0.00000000 </v>
     <v>       2.13000000       1.22975600       0.00000000 </v>
     <v>       0.00000000       0.00000000      20.00000000 </v>
    </varray>
    <i name="volume">    104.77521120 </i>
    <varray name="rec_basis" >
     <v>       0.23474178      -0.40658472       0.00000000 </v>
     <v>       0.23474178       0.40658472       0.00000000 </v>
     <v>       0.00000000       0.00000000       0.05000000 </v>
    </varray>
   </crystal>
   <varray name="positions" >
    <v>       0.00000000       0.00000000       0.00000000 </v>
    <v>       0.33333300       0.33333300       0.00000000 </v>
    <v>       0.00000000       0.00000000       0.25000000 </v>
    <v>       0.33333300       0.33333300       0.25000000 </v>
   </varray>
  </structure>
  <varray name="forces" >
   <v>       0.00000000       0.00000000       0.00120785 </v>
   <v>      -0.00000000      -0.00000000       0.00120785 </v>
   <v>       0.00000000       0.00000000      -0.00120785 </v>
   <v>      -0.00000000      -0.00000000      -0.00120785 </v>
  </varray>
  <varray name="stress" >
   <v>      12.73907187       0.00000000       0.00000000 </v>
   <v>       0.00000000      12.73907035       0.00000000 </v>
   <v>       0.00000000      -0.00000000      -0.86191949 </v>
  </varray>
  <energy>
   <i name="e_fr_energy">    -36.92996858 </i>
   <i name="e_wo_entrp">    -36.92996556 </i>
   <i name="e_0_energy">     -0.00000603 </i>
  </energy>
  <time name="totalsc">   49.47   49.80</time>
 </calculation>
 <calculation>
  <scstep>
   <time name="dav">    1.56    1.56</time>
   <time name="total">    1.86    1.88</time>
   <energy>
    <i name="alphaZ">     12.54445055 </i>
    <i name="ewald">   2145.54946659 </i>
    <i name="hartreedc">  -2669.92990815 </i>
    <i name="XCdc">     55.18497963 </i>
    <i name="pawpsdc">   1695.61213366 </i>
    <i name="pawaedc">  -1698.33477418 </i>
    <i name="eentropy">     -0.00000603 </i>
    <i name="bandstr">   -166.17400460 </i>
    <i name="atom">    588.61769381 </i>
    <i name="e_fr_energy">    -36.92996872 </i>
    <i name="e_wo_entrp">    -36.92996269 </i>
    <i name="e_0_energy">    -36.92996571 </i>
   </energy>
  </scstep>
  <scstep>
   <time name="dav">    1.58    1.58</time>
   <time name="total">    1.87    1.88</time>
   <energy>
    <i name="e_fr_energy">    -36.92996873 </i>
    <i name="e_wo_entrp">    -36.92996270 </i>
    <i name="e_0_energy">    -36.92996571 </i>
   </energy>
  </scstep>
  <scstep>
   <time name="dav">    1.34    1.35</time>
   <time name="total">    1.64    1.64</time>
   <energy>
    <i name="e_fr_energy">    -36.92996873 </i>
    <i name="e_wo_entrp">    -36.92996270 </i>
    <i name="e_0_energy">    -36.92996571 </i>
   </energy>
  </scstep>
  <scstep>
   <time name="dav">    1.25    1.25</time>
   <time name="total">    1.55    1.57</time>
   <energy>
    <i name="e_fr_energy">    -36.92996873 </i>
    <i name="e_wo_entrp">    -36.92996270 </i>
    <i name="e_0_energy">    -36.92996571 </i>
   </energy>
  </scstep>
  <scstep>
   <time name="dav">    1.27    1.28</time>
   <time name="total">    1.39    1.39</time>
   <energy>
    <i name="alphaZ">     12.54445055 </i>
    <i name="ewald">   2145.54946659 </i>
    <i name="hartreedc">  -2669.92993891 </i>
    <i name="XCdc">     55.18497905 </i>
    <i name="pawpsdc">   1695.61273619 </i>
    <i name="pawaedc">  -1698.33537651 </i>
    <i name="eentropy">     -0.00000603 </i>
    <i name="bandstr">   -166.17397347 </i>
    <i name="atom">    588.61769381 </i>
    <i name="e_fr_energy">    -36.92996873 </i>
    <i name="e_wo_entrp">    -36.92996270 </i>
    <i name="e_0_energy">    -36.92996571 </i>
   </energy>
  </scstep>
  <structure>
   <crystal>
    <varray name="basis" >
     <v>       2.13000000      -1.22975600       0.00000000 </v>
     <v>       2.13000000       1.22975600       0.00000000 </v>
     <v>       0.00000000       0.00000000      20.00000000 </v>
    </varray>
    <i name="volume">    104.77521120 </i>
    <varray name="rec_basis" >
     <v>       0.23474178      -0.40658472       0.00000000 </v>
     <v>       0.23474178       0.40658472       0.00000000 </v>
     <v>       0.00000000       0.00000000       0.05000000 </v>
    </varray>
   </crystal>
   <varray name="positions" >
    <v>       0.00000000       0.00000000       0.00000000 </v>
    <v>       0.33333300       0.33333300       0.00000000 </v>
    <v>       0.00000000       0.00000000       0.24999709 </v>
    <v>       0.33333300       0.33333300       0.24999709 </v>
   </varray>
  </structure>
  <varray name="forces" >
   <v>       0.00000000      -0.00000000       0.00119141 </v>
   <v>      -0.00000000       0.00000000       0.00119141 </v>
   <v>      -0.00000000      -0.00000000      -0.00119141 </v>
   <v>       0.00000000      -0.00000000      -0.00119141 </v>
  </varray>
  <varray name="stress" >
   <v>      12.73896942       0.00000000       0.00000000 </v>
   <v>       0.00000000      12.73896790       0.00000000 </v>
   <v>       0.00000000       0.00000000      -0.86235322 </v>
  </varray>
  <energy>
   <i name="e_fr_energy">    -36.92996873 </i>
   <i name="e_wo_entrp">    -36.92996571 </i>
   <i name="e_0_energy">     -0.00000603 </i>
  </energy>
  <time name="totalsc">   10.58   10.69</time>
 </calculation>
 <calculation>
  <scstep>
   <time name="dav">    1.47    1.48</time>
   <time name="total">    1.78    1.80</time>
   <energy>
    <i name="alphaZ">     12.54445055 </i>
    <i name="ewald">   2145.64607963 </i>
    <i name="hartreedc">  -2670.02654948 </i>
    <i name="XCdc">     55.18497946 </i>
    <i name="pawpsdc">   1695.61260502 </i>
    <i name="pawaedc">  -1698.33524530 </i>
    <i name="eentropy">     -0.00000602 </i>
    <i name="bandstr">   -166.17397679 </i>
    <i name="atom">    588.61769381 </i>
    <i name="e_fr_energy">    -36.92996913 </i>
    <i name="e_wo_entrp">    -36.92996311 </i>
    <i name="e_0_energy">    -36.92996612 </i>
   </energy>
  </scstep>
  <scstep>
   <time name="dav">    1.58    1.59</time>
   <time name="total">    1.88    1.89</time>
   <energy>
    <i name="e_fr_energy">    -36.92996918 </i>
    <i name="e_wo_entrp">    -36.92996316 </i>
    <i name="e_0_energy">    -36.92996617 </i>
   </energy>
  </scstep>
  <scstep>
   <time name="dav">    1.64    1.64</time>
   <time name="total">    1.94    1.95</time>
   <energy>
    <i name="e_fr_energy">    -36.92996914 </i>
    <i name="e_wo_entrp">    -36.92996312 </i>
    <i name="e_0_energy">    -36.92996613 </i>
   </energy>
  </scstep>
  <scstep>
   <time name="dav">    1.57    1.57</time>
   <time name="total">    1.87    1.88</time>
   <energy>
    <i name="e_fr_energy">    -36.92996915 </i>
    <i name="e_wo_entrp">    -36.92996313 </i>
    <i name="e_0_energy">    -36.92996614 </i>
   </energy>
  </scstep>
  <scstep>
   <time name="dav">    1.27    1.28</time>
   <time name="total">    1.38    1.39</time>
   <energy>
    <i name="alphaZ">     12.54445055 </i>
    <i name="ewald">   2145.64607963 </i>
    <i name="hartreedc">  -2670.02666750 </i>
    <i name="XCdc">     55.18497908 </i>
    <i name="pawpsdc">   1695.61413639 </i>
    <i name="pawaedc">  -1698.33677706 </i>
    <i name="eentropy">     -0.00000602 </i>
    <i name="bandstr">   -166.17385802 </i>
    <i name="atom">    588.61769381 </i>
    <i name="e_fr_energy">    -36.92996915 </i>
    <i name="e_wo_entrp">    -36.92996313 </i>
    <i name="e_0_energy">    -36.92996614 </i>
   </energy>
  </scstep>
  <structure>
   <crystal>
    <varray name="basis" >
     <v>       2.13000000      -1.22975600       0.00000000 </v>
     <v>       2.13000000       1.22975600       0.00000000 </v>
     <v>       0.00000000       0.00000000      20.00000000 </v>
    </varray>
    <i name="volume">    104.77521120 </i>
    <varray name="rec_basis" >
     <v>       0.23474178      -0.40658472       0.00000000 </v>
     <v>       0.23474178       0.40658472       0.00000000 </v>
     <v>       0.00000000       0.00000000       0.05000000 </v>
    </varray>
   </crystal>
   <varray name="positions" >
    <v>       0.00000000       0.00000000       0.00000000 </v>
    <v>       0.33333300       0.33333300       0.00000000 </v>
    <v>       0.00000000       0.00000000       0.24998835 </v>
    <v>       0.33333300       0.33333300       0.24998835 </v>
   </varray>
  </structure>
  <varray name="forces" >
   <v>       0.00000000      -0.00000000       0.00117665 </v>
   <v>       0.00000000       0.00000000       0.00117665 </v>
   <v>      -0.00000000      -0.00000000      -0.00117665 </v>
   <v>       0.00000000       0.00000000      -0.00117665 </v>
  </varray>
  <varray name="stress" >
   <v>      12.73887036       0.00000000       0.00000000 </v>
   <v>       0.00000000      12.73886884      -0.00000000 </v>
   <v>       0.00000000       0.00000000      -0.86270169 </v>
  </varray>
  <energy>
   <i name="e_fr_energy">    -36.92996915 </i>
   <i name="e_wo_entrp">    -36.92996614 </i>
   <i name="e_0_energy">     -0.00000602 </i>
  </energy>
  <time name="totalsc">   11.14   11.24</time>
 </calculation>
 <calculation>
  <scstep>
   <time name="dav">    1.47    1.47</time>
   <time name="total">    1.78    1.80</time>
   <energy>
    <i name="alphaZ">     12.54445055 </i>
    <i name="ewald">   2145.83931585 </i>
    <i name="hartreedc">  -2670.21989231 </i>
    <i name="XCdc">     55.18497997 </i>
    <i name="pawpsdc">   1695.61315422 </i>
    <i name="pawaedc">  -1698.33579478 </i>
    <i name="eentropy">     -0.00000599 </i>
    <i name="bandstr">   -166.17387118 </i>
    <i name="atom">    588.61769381 </i>
    <i name="e_fr_energy">    -36.92996987 </i>
    <i name="e_wo_entrp">    -36.92996388 </i>
    <i name="e_0_energy">    -36.92996688 </i>
   </energy>
  </scstep>
  <scstep>
   <time name="dav">    1.58    1.58</time>
   <time name="total">    1.87    1.88</time>
   <energy>
    <i name="e_fr_energy">    -36.92997010 </i>
    <i name="e_wo_entrp">    -36.92996411 </i>
    <i name="e_0_energy">    -36.92996711 </i>
   </energy>
  </scstep>
  <scstep>
   <time name="dav">    1.63    1.64</time>
   <time name="total">    1.93    1.94</time>
   <energy>
    <i name="e_fr_energy">    -36.92996996 </i>
    <i name="e_wo_entrp">    -36.92996397 </i>
    <i name="e_0_energy">    -36.92996697 </i>
   </energy>
  </scstep>
  <scstep>
   <time name="dav">    1.59    1.60</time>
   <time name="total">    1.89    1.89</time>
   <energy>
    <i name="e_fr_energy">    -36.92996998 </i>
    <i name="e_wo_entrp">    -36.92996399 </i>
    <i name="e_0_energy">    -36.92996699 </i>
   </energy>
  </scstep>
  <scstep>
   <time name="dav">    1.31    1.31</time>
   <time name="total">    1.42    1.42</time>
   <energy>
    <i name="alphaZ">     12.54445055 </i>
    <i name="ewald">   2145.83931585 </i>
    <i name="hartreedc">  -2670.22011577 </i>
    <i name="XCdc">     55.18497896 </i>
    <i name="pawpsdc">   1695.61924783 </i>
    <i name="pawaedc">  -1698.34188877 </i>
    <i name="eentropy">     -0.00000600 </i>
    <i name="bandstr">   -166.17364644 </i>
    <i name="atom">    588.61769381 </i>
    <i name="e_fr_energy">    -36.92996999 </i>
    <i name="e_wo_entrp">    -36.92996399 </i>
    <i name="e_0_energy">    -36.92996699 </i>
   </energy>
  </scstep>
  <structure>
   <crystal>
    <varray name="basis" >
     <v>       2.13000000      -1.22975600       0.00000000 </v>
     <v>       2.13000000       1.22975600       0.00000000 </v>
     <v>       0.00000000       0.00000000      20.00000000 </v>
    </varray>
    <i name="volume">    104.77521120 </i>
    <varray name="rec_basis" >
     <v>       0.23474178      -0.40658472       0.00000000 </v>
     <v>       0.23474178       0.40658472       0.00000000 </v>
     <v>       0.00000000       0.00000000       0.05000000 </v>
    </varray>
   </crystal>
   <varray name="positions" >
    <v>       0.00000000       0.00000000       0.00000000 </v>
    <v>       0.33333300       0.33333300       0.00000000 </v>
    <v>       0.00000000       0.00000000       0.24997087 </v>
    <v>       0.33333300       0.33333300       0.24997087 </v>
   </varray>
  </structure>
  <varray name="forces" >
   <v>       0.00000000       0.00000000       0.00114973 </v>
   <v>      -0.00000000      -0.00000000       0.00114973 </v>
   <v>       0.00000000      -0.00000000      -0.00114973 </v>
   <v>      -0.00000000      -0.00000000      -0.00114973 </v>
  </varray>
  <varray name="stress" >
   <v>      12.73867473       0.00000000       0.00000000 </v>
   <v>      -0.00000000      12.73867321       0.00000000 </v>
   <v>       0.00000000       0.00000000      -0.86348115 </v>
  </varray>
  <energy>
   <i name="e_fr_energy">    -36.92996999 </i>
   <i name="e_wo_entrp">    -36.92996699 </i>
   <i name="e_0_energy">     -0.00000600 </i>
  </energy>
  <time name="totalsc">   11.17   11.28</time>
 </calculation>
 <calculation>
  <scstep>
   <time name="dav">    1.46    1.46</time>
   <time name="total">    1.77    1.79</time>
   <energy>
    <i name="alphaZ">     12.54445055 </i>
    <i name="ewald">   2146.22582882 </i>
    <i name="hartreedc">  -2670.60658975 </i>
    <i name="XCdc">     55.18498047 </i>
    <i name="pawpsdc">   1695.61525045 </i>
    <i name="pawaedc">  -1698.33789121 </i>
    <i name="eentropy">     -0.00000595 </i>
    <i name="bandstr">   -166.17368839 </i>
    <i name="atom">    588.61769381 </i>
    <i name="e_fr_energy">    -36.92997120 </i>
    <i name="e_wo_entrp">    -36.92996525 </i>
    <i name="e_0_energy">    -36.92996822 </i>
   </energy>
  </scstep>
  <scstep>
   <time name="dav">    1.56    1.56</time>
   <time name="total">    1.85    1.86</time>
   <energy>
    <i name="e_fr_energy">    -36.92997214 </i>
    <i name="e_wo_entrp">    -36.92996619 </i>
    <i name="e_0_energy">    -36.92996917 </i>
   </energy>
  </scstep>
  <scstep>
   <time name="dav">    1.64    1.64</time>
   <time name="total">    1.94    1.94</time>
   <energy>
    <i name="e_fr_energy">    -36.92997158 </i>
    <i name="e_wo_entrp">    -36.92996563 </i>
    <i name="e_0_energy">    -36.92996861 </i>
   </energy>
  </scstep>
  <scstep>
   <time name="dav">    1.59    1.60</time>
   <time name="total">    1.89    1.90</time>
   <energy>
    <i name="e_fr_energy">    -36.92997166 </i>
    <i name="e_wo_entrp">    -36.92996570 </i>
    <i name="e_0_energy">    -36.92996868 </i>
   </energy>
  </scstep>
  <scstep>
   <time name="dav">    1.52    1.53</time>
   <time name="total">    1.63    1.64</time>
   <energy>
    <i name="alphaZ">     12.54445055 </i>
    <i name="ewald">   2146.22582882 </i>
    <i name="hartreedc">  -2670.60704054 </i>
    <i name="XCdc">     55.18497911 </i>
    <i name="pawpsdc">   1695.62787178 </i>
    <i name="pawaedc">  -1698.35051326 </i>
    <i name="eentropy">     -0.00000595 </i>
    <i name="bandstr">   -166.17323598 </i>
    <i name="atom">    588.61769381 </i>
    <i name="e_fr_energy">    -36.92997166 </i>
    <i name="e_wo_entrp">    -36.92996571 </i>
    <i name="e_0_energy">    -36.92996869 </i>
   </energy>
  </scstep>
  <structure>
   <crystal>
    <varray name="basis" >
     <v>       2.13000000      -1.22975600       0.00000000 </v>
     <v>       2.13000000       1.22975600       0.00000000 </v>
     <v>       0.00000000       0.00000000      20.00000000 </v>
    </varray>
    <i name="volume">    104.77521120 </i>
    <varray name="rec_basis" >
     <v>       0.23474178      -0.40658472       0.00000000 </v>
     <v>       0.23474178       0.40658472       0.00000000 </v>
     <v>       0.00000000       0.00000000       0.05000000 </v>
    </varray>
   </crystal>
   <varray name="positions" >
    <v>       0.00000000       0.00000000       0.00000000 </v>
    <v>       0.33333300       0.33333300       0.00000000 </v>
    <v>       0.00000000       0.00000000       0.24993590 </v>
    <v>       0.33333300       0.33333300       0.24993590 </v>
   </varray>
  </structure>
  <varray name="forces" >
   <v>       0.00000000      -0.00000000       0.00110613 </v>
   <v>       0.00000000       0.00000000       0.00110613 </v>
   <v>      -0.00000000      -0.00000000      -0.00110613 </v>
   <v>      -0.00000000       0.00000000      -0.00110613 </v>
  </varray>
  <varray name="stress" >
   <v>      12.73809640       0.00000000       0.00000000 </v>
   <v>       0.00000000      12.73809488       0.00000000 </v>
   <v>       0.00000000      -0.00000000      -0.86508048 </v>
  </varray>
  <energy>
   <i name="e_fr_energy">    -36.92997166 </i>
   <i name="e_wo_entrp">    -36.92996869 </i>
   <i name="e_0_energy">     -0.00000595 </i>
  </energy>
  <time name="totalsc">   11.35   11.47</time>
 </calculation>
 <calculation>
  <scstep>
   <time name="dav">    1.46    1.46</time>
   <time name="total">    1.77    1.79</time>
   <energy>
    <i name="alphaZ">     12.54445055 </i>
    <i name="ewald">   2146.99901690 </i>
    <i name="hartreedc">  -2671.38011239 </i>
    <i name="XCdc">     55.18498094 </i>
    <i name="pawpsdc">   1695.61938676 </i>
    <i name="pawaedc">  -1698.34202765 </i>
    <i name="eentropy">     -0.00000586 </i>
    <i name="bandstr">   -166.17335611 </i>
    <i name="atom">    588.61769381 </i>
    <i name="e_fr_energy">    -36.92997305 </i>
    <i name="e_wo_entrp">    -36.92996719 </i>
    <i name="e_0_energy">    -36.92997012 </i>
   </energy>
  </scstep>
  <scstep>
   <time name="dav">    1.56    1.56</time>
   <time name="total">    1.86    1.86</time>
   <energy>
    <i name="e_fr_energy">    -36.92997695 </i>
    <i name="e_wo_entrp">    -36.92997109 </i>
    <i name="e_0_energy">    -36.92997402 </i>
   </energy>
  </scstep>
  <scstep>
   <time name="dav">    1.63    1.63</time>
   <time name="total">    1.92    1.93</time>
   <energy>
    <i name="e_fr_energy">    -36.92997471 </i>
    <i name="e_wo_entrp">    -36.92996884 </i>
    <i name="e_0_energy">    -36.92997177 </i>
   </energy>
  </scstep>
  <scstep>
   <time name="dav">    1.59    1.60</time>
   <time name="total">    1.89    1.90</time>
   <energy>
    <i name="e_fr_energy">    -36.92997500 </i>
    <i name="e_wo_entrp">    -36.92996913 </i>
    <i name="e_0_energy">    -36.92997206 </i>
   </energy>
  </scstep>
  <scstep>
   <time name="dav">    1.73    1.73</time>
   <time name="total">    2.03    2.03</time>
   <energy>
    <i name="e_fr_energy">    -36.92997502 </i>
    <i name="e_wo_entrp">    -36.92996916 </i>
    <i name="e_0_energy">    -36.92997209 </i>
   </energy>
  </scstep>
  <scstep>
   <time name="dav">    1.62    1.63</time>
   <time name="total">    1.73    1.74</time>
   <energy>
    <i name="alphaZ">     12.54445055 </i>
    <i name="ewald">   2146.99901690 </i>
    <i name="hartreedc">  -2671.38093175 </i>
    <i name="XCdc">     55.18497968 </i>
    <i name="pawpsdc">   1695.62733473 </i>
    <i name="pawaedc">  -1698.34997560 </i>
    <i name="eentropy">     -0.00000587 </i>
    <i name="bandstr">   -166.17253747 </i>
    <i name="atom">    588.61769381 </i>
    <i name="e_fr_energy">    -36.92997503 </i>
    <i name="e_wo_entrp">    -36.92996916 </i>
    <i name="e_0_energy">    -36.92997210 </i>
   </energy>
  </scstep>
  <structure>
   <crystal>
    <varray name="basis" >
     <v>       2.13000000      -1.22975600       0.00000000 </v>
     <v>       2.13000000       1.22975600       0.00000000 </v>
     <v>       0.00000000       0.00000000      20.00000000 </v>
    </varray>
    <i name="volume">    104.77521120 </i>
    <varray name="rec_basis" >
     <v>       0.23474178      -0.40658472       0.00000000 </v>
     <v>       0.23474178       0.40658472       0.00000000 </v>
     <v>       0.00000000       0.00000000       0.05000000 </v>
    </varray>
   </crystal>
   <varray name="positions" >
    <v>       0.00000000       0.00000000       0.00000000 </v>
    <v>       0.33333300       0.33333300       0.00000000 </v>
    <v>       0.00000000       0.00000000       0.24986598 </v>
    <v>       0.33333300       0.33333300       0.24986598 </v>
   </varray>
  </structure>
  <varray name="forces" >
   <v>      -0.00000000       0.00000000       0.00108221 </v>
   <v>       0.00000000      -0.00000000       0.00108221 </v>
   <v>      -0.00000000       0.00000000      -0.00108221 </v>
   <v>       0.00000000      -0.00000000      -0.00108221 </v>
  </varray>
  <varray name="stress" >
   <v>      12.73968735      -0.00000000       0.00000000 </v>
   <v>      -0.00000000      12.73968583       0.00000000 </v>
   <v>      -0.00000000      -0.00000000      -0.86009066 </v>
  </varray>
  <energy>
   <i name="e_fr_energy">    -36.92997503 </i>
   <i name="e_wo_entrp">    -36.92997210 </i>
   <i name="e_0_energy">     -0.00000587 </i>
  </energy>
  <time name="totalsc">   13.46   13.58</time>
 </calculation>
 <calculation>
  <scstep>
   <time name="dav">    1.46    1.46</time>
   <time name="total">    1.77    1.79</time>
   <energy>
    <i name="alphaZ">     12.54445055 </i>
    <i name="ewald">   2148.54604157 </i>
    <i name="hartreedc">  -2672.92767895 </i>
    <i name="XCdc">     55.18498550 </i>
    <i name="pawpsdc">   1695.61663548 </i>
    <i name="pawaedc">  -1698.33927703 </i>
    <i name="eentropy">     -0.00000568 </i>
    <i name="bandstr">   -166.17282063 </i>
    <i name="atom">    588.61769381 </i>
    <i name="e_fr_energy">    -36.92997537 </i>
    <i name="e_wo_entrp">    -36.92996970 </i>
    <i name="e_0_energy">    -36.92997253 </i>
   </energy>
  </scstep>
  <scstep>
   <time name="dav">    1.57    1.58</time>
   <time name="total">    1.87    1.88</time>
   <energy>
    <i name="e_fr_energy">    -36.92998952 </i>
    <i name="e_wo_entrp">    -36.92998383 </i>
    <i name="e_0_energy">    -36.92998667 </i>
   </energy>
  </scstep>
  <scstep>
   <time name="dav">    1.63    1.63</time>
   <time name="total">    1.93    1.93</time>
   <energy>
    <i name="e_fr_energy">    -36.92998060 </i>
    <i name="e_wo_entrp">    -36.92997490 </i>
    <i name="e_0_energy">    -36.92997775 </i>
   </energy>
  </scstep>
  <scstep>
   <time name="dav">    1.59    1.60</time>
   <time name="total">    1.89    1.90</time>
   <energy>
    <i name="e_fr_energy">    -36.92998166 </i>
    <i name="e_wo_entrp">    -36.92997597 </i>
    <i name="e_0_energy">    -36.92997881 </i>
   </energy>
  </scstep>
  <scstep>
   <time name="dav">    1.75    1.76</time>
   <time name="total">    2.05    2.07</time>
   <energy>
    <i name="e_fr_energy">    -36.92998177 </i>
    <i name="e_wo_entrp">    -36.92997608 </i>
    <i name="e_0_energy">    -36.92997892 </i>
   </energy>
  </scstep>
  <scstep>
   <time name="dav">    1.62    1.63</time>
   <time name="total">    1.73    1.74</time>
   <energy>
    <i name="alphaZ">     12.54445055 </i>
    <i name="ewald">   2148.54604157 </i>
    <i name="hartreedc">  -2672.92937992 </i>
    <i name="XCdc">     55.18498333 </i>
    <i name="pawpsdc">   1695.64093057 </i>
    <i name="pawaedc">  -1698.36357195 </i>
    <i name="eentropy">     -0.00000569 </i>
    <i name="bandstr">   -166.17112404 </i>
    <i name="atom">    588.61769381 </i>
    <i name="e_fr_energy">    -36.92998177 </i>
    <i name="e_wo_entrp">    -36.92997608 </i>
    <i name="e_0_energy">    -36.92997892 </i>
   </energy>
  </scstep>
  <structure>
   <crystal>
    <varray name="basis" >
     <v>       2.13000000      -1.22975600       0.00000000 </v>
     <v>       2.13000000       1.22975600       0.00000000 </v>
     <v>       0.00000000       0.00000000      20.00000000 </v>
    </varray>
    <i name="volume">    104.77521120 </i>
    <varray name="rec_basis" >
     <v>       0.23474178      -0.40658472       0.00000000 </v>
     <v>       0.23474178       0.40658472       0.00000000 </v>
     <v>       0.00000000       0.00000000       0.05000000 </v>
    </varray>
   </crystal>
   <varray name="positions" >
    <v>       0.00000000       0.00000000       0.00000000 </v>
    <v>       0.33333300       0.33333300       0.00000000 </v>
    <v>       0.00000000       0.00000000       0.24972613 </v>
    <v>       0.33333300       0.33333300       0.24972613 </v>
   </varray>
  </structure>
  <varray name="forces" >
   <v>      -0.00000000       0.00000000       0.00098622 </v>
   <v>       0.00000000      -0.00000000       0.00098622 </v>
   <v>      -0.00000000      -0.00000000      -0.00098622 </v>
   <v>       0.00000000       0.00000000      -0.00098622 </v>
  </varray>
  <varray name="stress" >
   <v>      12.73991073       0.00000000       0.00000000 </v>
   <v>       0.00000000      12.73990921      -0.00000000 </v>
   <v>       0.00000000       0.00000000      -0.85925240 </v>
  </varray>
  <energy>
   <i name="e_fr_energy">    -36.92998177 </i>
   <i name="e_wo_entrp">    -36.92997892 </i>
   <i name="e_0_energy">     -0.00000569 </i>
  </energy>
  <time name="totalsc">   13.51   13.63</time>
 </calculation>
 <calculation>
  <scstep>
   <time name="dav">    1.45    1.46</time>
   <time name="total">    1.76    1.78</time>
   <energy>
    <i name="alphaZ">     12.54445055 </i>
    <i name="ewald">   2151.64268503 </i>
    <i name="hartreedc">  -2676.02494273 </i>
    <i name="XCdc">     55.18497917 </i>
    <i name="pawpsdc">   1695.62188257 </i>
    <i name="pawaedc">  -1698.34452415 </i>
    <i name="eentropy">     -0.00000532 </i>
    <i name="bandstr">   -166.17218058 </i>
    <i name="atom">    588.61769381 </i>
    <i name="e_fr_energy">    -36.92996166 </i>
    <i name="e_wo_entrp">    -36.92995633 </i>
    <i name="e_0_energy">    -36.92995899 </i>
   </energy>
  </scstep>
  <scstep>
   <time name="dav">    1.56    1.57</time>
   <time name="total">    1.86    1.87</time>
   <energy>
    <i name="e_fr_energy">    -36.93002694 </i>
    <i name="e_wo_entrp">    -36.93002158 </i>
    <i name="e_0_energy">    -36.93002426 </i>
   </energy>
  </scstep>
  <scstep>
   <time name="dav">    1.64    1.64</time>
   <time name="total">    1.94    1.94</time>
   <energy>
    <i name="e_fr_energy">    -36.92999065 </i>
    <i name="e_wo_entrp">    -36.92998528 </i>
    <i name="e_0_energy">    -36.92998797 </i>
   </energy>
  </scstep>
  <scstep>
   <time name="dav">    1.60    1.61</time>
   <time name="total">    1.90    1.91</time>
   <energy>
    <i name="e_fr_energy">    -36.92999489 </i>
    <i name="e_wo_entrp">    -36.92998952 </i>
    <i name="e_0_energy">    -36.92999220 </i>
   </energy>
  </scstep>
  <scstep>
   <time name="dav">    1.76    1.77</time>
   <time name="total">    2.06    2.07</time>
   <energy>
    <i name="e_fr_energy">    -36.92999522 </i>
    <i name="e_wo_entrp">    -36.92998986 </i>
    <i name="e_0_energy">    -36.92999254 </i>
   </energy>
  </scstep>
  <scstep>
   <time name="dav">    1.64    1.64</time>
   <time name="total">    1.94    1.94</time>
   <energy>
    <i name="e_fr_energy">    -36.92999526 </i>
    <i name="e_wo_entrp">    -36.92998990 </i>
    <i name="e_0_energy">    -36.92999258 </i>
   </energy>
  </scstep>
  <scstep>
   <time name="dav">    1.65    1.66</time>
   <time name="total">    1.76    1.77</time>
   <energy>
    <i name="alphaZ">     12.54445055 </i>
    <i name="ewald">   2151.64268503 </i>
    <i name="hartreedc">  -2676.02865286 </i>
    <i name="XCdc">     55.18499826 </i>
    <i name="pawpsdc">   1695.63509272 </i>
    <i name="pawaedc">  -1698.35773330 </i>
    <i name="eentropy">     -0.00000536 </i>
    <i name="bandstr">   -166.16852411 </i>
    <i name="atom">    588.61769381 </i>
    <i name="e_fr_energy">    -36.92999526 </i>
    <i name="e_wo_entrp">    -36.92998990 </i>
    <i name="e_0_energy">    -36.92999258 </i>
   </energy>
  </scstep>
  <structure>
   <crystal>
    <varray name="basis" >
     <v>       2.13000000      -1.22975600       0.00000000 </v>
     <v>       2.13000000       1.22975600       0.00000000 </v>
     <v>       0.00000000       0.00000000      20.00000000 </v>
    </varray>
    <i name="volume">    104.77521120 </i>
    <varray name="rec_basis" >
     <v>       0.23474178      -0.40658472       0.00000000 </v>
     <v>       0.23474178       0.40658472       0.00000000 </v>
     <v>       0.00000000       0.00000000       0.05000000 </v>
    </varray>
   </crystal>
   <varray name="positions" >
    <v>       0.00000000       0.00000000       0.00000000 </v>
    <v>       0.33333300       0.33333300       0.00000000 </v>
    <v>       0.00000000       0.00000000       0.24944644 </v>
    <v>       0.33333300       0.33333300       0.24944644 </v>
   </varray>
  </structure>
  <varray name="forces" >
   <v>      -0.00000000       0.00000000       0.00106233 </v>
   <v>      -0.00000000      -0.00000000       0.00106233 </v>
   <v>      -0.00000000       0.00000000      -0.00106233 </v>
   <v>       0.00000000      -0.00000000      -0.00106233 </v>
  </varray>
  <varray name="stress" >
   <v>      12.73805100      -0.00000000       0.00000000 </v>
   <v>       0.00000000      12.73804948       0.00000000 </v>
   <v>      -0.00000000       0.00000000      -0.86495715 </v>
  </varray>
  <energy>
   <i name="e_fr_energy">    -36.92999526 </i>
   <i name="e_wo_entrp">    -36.92999258 </i>
   <i name="e_0_energy">     -0.00000536 </i>
  </energy>
  <time name="totalsc">   15.48   15.60</time>
 </calculation>
 <calculation>
  <scstep>
   <time name="dav">    1.46    1.46</time>
   <time name="total">    1.76    1.78</time>
   <energy>
    <i name="alphaZ">     12.54445055 </i>
    <i name="ewald">   2157.84634834 </i>
    <i name="hartreedc">  -2682.22781124 </i>
    <i name="XCdc">     55.18492899 </i>
    <i name="pawpsdc">   1695.61580853 </i>
    <i name="pawaedc">  -1698.33844723 </i>
    <i name="eentropy">     -0.00000467 </i>
    <i name="bandstr">   -166.17280728 </i>
    <i name="atom">    588.61769381 </i>
    <i name="e_fr_energy">    -36.92984020 </i>
    <i name="e_wo_entrp">    -36.92983554 </i>
    <i name="e_0_energy">    -36.92983787 </i>
   </energy>
  </scstep>
  <scstep>
   <time name="dav">    1.57    1.58</time>
   <time name="total">    1.87    1.87</time>
   <energy>
    <i name="e_fr_energy">    -36.93015556 </i>
    <i name="e_wo_entrp">    -36.93015084 </i>
    <i name="e_0_energy">    -36.93015320 </i>
   </energy>
  </scstep>
  <scstep>
   <time name="dav">    1.68    1.68</time>
   <time name="total">    1.98    1.98</time>
   <energy>
    <i name="e_fr_energy">    -36.93000499 </i>
    <i name="e_wo_entrp">    -36.93000025 </i>
    <i name="e_0_energy">    -36.93000262 </i>
   </energy>
  </scstep>
  <scstep>
   <time name="dav">    1.56    1.56</time>
   <time name="total">    1.85    1.86</time>
   <energy>
    <i name="e_fr_energy">    -36.93002137 </i>
    <i name="e_wo_entrp">    -36.93001667 </i>
    <i name="e_0_energy">    -36.93001902 </i>
   </energy>
  </scstep>
  <scstep>
   <time name="dav">    1.73    1.74</time>
   <time name="total">    2.03    2.04</time>
   <energy>
    <i name="e_fr_energy">    -36.93002254 </i>
    <i name="e_wo_entrp">    -36.93001784 </i>
    <i name="e_0_energy">    -36.93002019 </i>
   </energy>
  </scstep>
  <scstep>
   <time name="dav">    1.63    1.63</time>
   <time name="total">    1.92    1.93</time>
   <energy>
    <i name="e_fr_energy">    -36.93002234 </i>
    <i name="e_wo_entrp">    -36.93001761 </i>
    <i name="e_0_energy">    -36.93001997 </i>
   </energy>
  </scstep>
  <scstep>
   <time name="dav">    1.64    1.64</time>
   <time name="total">    1.94    1.94</time>
   <energy>
    <i name="e_fr_energy">    -36.93002229 </i>
    <i name="e_wo_entrp">    -36.93001757 </i>
    <i name="e_0_energy">    -36.93001993 </i>
   </energy>
  </scstep>
  <scstep>
   <time name="dav">    1.68    1.69</time>
   <time name="total">    1.98    1.99</time>
   <energy>
    <i name="e_fr_energy">    -36.93002218 </i>
    <i name="e_wo_entrp">    -36.93001746 </i>
    <i name="e_0_energy">    -36.93001982 </i>
   </energy>
  </scstep>
  <scstep>
   <time name="dav">    1.31    1.32</time>
   <time name="total">    1.61    1.62</time>
   <energy>
    <i name="e_fr_energy">    -36.93002220 </i>
    <i name="e_wo_entrp">    -36.93001748 </i>
    <i name="e_0_energy">    -36.93001984 </i>
   </energy>
  </scstep>
  <scstep>
   <time name="dav">    1.52    1.53</time>
   <time name="total">    1.82    1.82</time>
   <energy>
    <i name="e_fr_energy">    -36.93002241 </i>
    <i name="e_wo_entrp">    -36.93001769 </i>
    <i name="e_0_energy">    -36.93002005 </i>
   </energy>
  </scstep>
  <scstep>
   <time name="dav">    1.45    1.45</time>
   <time name="total">    1.74    1.75</time>
   <energy>
    <i name="e_fr_energy">    -36.93002257 </i>
    <i name="e_wo_entrp">    -36.93001785 </i>
    <i name="e_0_energy">    -36.93002021 </i>
   </energy>
  </scstep>
  <scstep>
   <time name="dav">    1.52    1.52</time>
   <time name="total">    1.81    1.82</time>
   <energy>
    <i name="e_fr_energy">    -36.93002270 </i>
    <i name="e_wo_entrp">    -36.93001798 </i>
    <i name="e_0_energy">    -36.93002034 </i>
   </energy>
  </scstep>
  <scstep>
   <time name="dav">    1.30    1.30</time>
   <time name="total">    1.59    1.60</time>
   <energy>
    <i name="e_fr_energy">    -36.93002274 </i>
    <i name="e_wo_entrp">    -36.93001801 </i>
    <i name="e_0_energy">    -36.93002037 </i>
   </energy>
  </scstep>
  <scstep>
   <time name="dav">    1.31    1.32</time>
   <time name="total">    1.61    1.61</time>
   <energy>
    <i name="e_fr_energy">    -36.93002272 </i>
    <i name="e_wo_entrp">    -36.93001800 </i>
    <i name="e_0_energy">    -36.93002036 </i>
   </energy>
  </scstep>
  <scstep>
   <time name="dav">    1.35    1.36</time>
   <time name="total">    1.45    1.46</time>
   <energy>
    <i name="alphaZ">     12.54445055 </i>
    <i name="ewald">   2157.84634834 </i>
    <i name="hartreedc">  -2682.22798661 </i>
    <i name="XCdc">     55.18498536 </i>
    <i name="pawpsdc">   1695.61116366 </i>
    <i name="pawaedc">  -1698.33380393 </i>
    <i name="eentropy">     -0.00000472 </i>
    <i name="bandstr">   -166.17286917 </i>
    <i name="atom">    588.61769381 </i>
    <i name="e_fr_energy">    -36.93002271 </i>
    <i name="e_wo_entrp">    -36.93001799 </i>
    <i name="e_0_energy">    -36.93002035 </i>
   </energy>
  </scstep>
  <structure>
   <crystal>
    <varray name="basis" >
     <v>       2.13000000      -1.22975600       0.00000000 </v>
     <v>       2.13000000       1.22975600       0.00000000 </v>
     <v>       0.00000000       0.00000000      20.00000000 </v>
    </varray>
    <i name="volume">    104.77521120 </i>
    <varray name="rec_basis" >
     <v>       0.23474178      -0.40658472       0.00000000 </v>
     <v>       0.23474178       0.40658472       0.00000000 </v>
     <v>       0.00000000       0.00000000       0.05000000 </v>
    </varray>
   </crystal>
   <varray name="positions" >
    <v>       0.00000000       0.00000000       0.00000000 </v>
    <v>       0.33333300       0.33333300       0.00000000 </v>
    <v>       0.00000000       0.00000000       0.24888705 </v>
    <v>       0.33333300       0.33333300       0.24888705 </v>
   </varray>
  </structure>
  <varray name="forces" >
   <v>       0.00000000      -0.00000000       0.00121730 </v>
   <v>      -0.00000000       0.00000000       0.00121730 </v>
   <v>      -0.00000000      -0.00000000      -0.00121730 </v>
   <v>       0.00000000      -0.00000000      -0.00121730 </v>
  </varray>
  <varray name="stress" >
   <v>      12.73917725       0.00000000       0.00000000 </v>
   <v>       0.00000000      12.73917573       0.00000000 </v>
   <v>      -0.00000000       0.00000000      -0.86293656 </v>
  </varray>
  <energy>
   <i name="e_fr_energy">    -36.93002271 </i>
   <i name="e_wo_entrp">    -36.93002035 </i>
   <i name="e_0_energy">     -0.00000472 </i>
  </energy>
  <time name="totalsc">   29.24   29.40</time>
 </calculation>
 <calculation>
  <scstep>
   <time name="dav">    1.46    1.47</time>
   <time name="total">    1.77    1.79</time>
   <energy>
    <i name="alphaZ">     12.54445055 </i>
    <i name="ewald">   2170.29518060 </i>
    <i name="hartreedc">  -2694.66105007 </i>
    <i name="XCdc">     55.18464561 </i>
    <i name="pawpsdc">   1695.61128132 </i>
    <i name="pawaedc">  -1698.33392139 </i>
    <i name="eentropy">     -0.00000351 </i>
    <i name="bandstr">   -166.18747723 </i>
    <i name="atom">    588.61769381 </i>
    <i name="e_fr_energy">    -36.92920031 </i>
    <i name="e_wo_entrp">    -36.92919680 </i>
    <i name="e_0_energy">    -36.92919855 </i>
   </energy>
  </scstep>
  <scstep>
   <time name="dav">    1.59    1.59</time>
   <time name="total">    1.88    1.89</time>
   <energy>
    <i name="e_fr_energy">    -36.93061548 </i>
    <i name="e_wo_entrp">    -36.93061192 </i>
    <i name="e_0_energy">    -36.93061370 </i>
   </energy>
  </scstep>
  <scstep>
   <time name="dav">    1.65    1.65</time>
   <time name="total">    1.94    1.95</time>
   <energy>
    <i name="e_fr_energy">    -36.93000656 </i>
    <i name="e_wo_entrp">    -36.93000320 </i>
    <i name="e_0_energy">    -36.93000488 </i>
   </energy>
  </scstep>
  <scstep>
   <time name="dav">    1.56    1.56</time>
   <time name="total">    1.85    1.86</time>
   <energy>
    <i name="e_fr_energy">    -36.93007982 </i>
    <i name="e_wo_entrp">    -36.93007666 </i>
    <i name="e_0_energy">    -36.93007824 </i>
   </energy>
  </scstep>
  <scstep>
   <time name="dav">    1.81    1.81</time>
   <time name="total">    2.11    2.11</time>
   <energy>
    <i name="e_fr_energy">    -36.93007562 </i>
    <i name="e_wo_entrp">    -36.93007203 </i>
    <i name="e_0_energy">    -36.93007382 </i>
   </energy>
  </scstep>
  <scstep>
   <time name="dav">    1.63    1.63</time>
   <time name="total">    1.93    1.94</time>
   <energy>
    <i name="e_fr_energy">    -36.93007603 </i>
    <i name="e_wo_entrp">    -36.93007241 </i>
    <i name="e_0_energy">    -36.93007422 </i>
   </energy>
  </scstep>
  <scstep>
   <time name="dav">    1.65    1.65</time>
   <time name="total">    1.94    1.95</time>
   <energy>
    <i name="e_fr_energy">    -36.93007625 </i>
    <i name="e_wo_entrp">    -36.93007263 </i>
    <i name="e_0_energy">    -36.93007444 </i>
   </energy>
  </scstep>
  <scstep>
   <time name="dav">    1.63    1.64</time>
   <time name="total">    1.93    1.94</time>
   <energy>
    <i name="e_fr_energy">    -36.93007606 </i>
    <i name="e_wo_entrp">    -36.93007245 </i>
    <i name="e_0_energy">    -36.93007425 </i>
   </energy>
  </scstep>
  <scstep>
   <time name="dav">    1.61    1.62</time>
   <time name="total">    1.91    1.92</time>
   <energy>
    <i name="e_fr_energy">    -36.93007627 </i>
    <i name="e_wo_entrp">    -36.93007266 </i>
    <i name="e_0_energy">    -36.93007446 </i>
   </energy>
  </scstep>
  <scstep>
   <time name="dav">    1.51    1.52</time>
   <time name="total">    1.81    1.82</time>
   <energy>
    <i name="e_fr_energy">    -36.93007678 </i>
    <i name="e_wo_entrp">    -36.93007317 </i>
    <i name="e_0_energy">    -36.93007498 </i>
   </energy>
  </scstep>
  <scstep>
   <time name="dav">    1.61    1.62</time>
   <time name="total">    1.90    1.91</time>
   <energy>
    <i name="e_fr_energy">    -36.93007727 </i>
    <i name="e_wo_entrp">    -36.93007366 </i>
    <i name="e_0_energy">    -36.93007547 </i>
   </energy>
  </scstep>
  <scstep>
   <time name="dav">    1.60    1.60</time>
   <time name="total">    1.89    1.90</time>
   <energy>
    <i name="e_fr_energy">    -36.93007750 </i>
    <i name="e_wo_entrp">    -36.93007390 </i>
    <i name="e_0_energy">    -36.93007570 </i>
   </energy>
  </scstep>
  <scstep>
   <time name="dav">    1.36    1.36</time>
   <time name="total">    1.65    1.66</time>
   <energy>
    <i name="e_fr_energy">    -36.93007756 </i>
    <i name="e_wo_entrp">    -36.93007395 </i>
    <i name="e_0_energy">    -36.93007575 </i>
   </energy>
  </scstep>
  <scstep>
   <time name="dav">    1.30    1.31</time>
   <time name="total">    1.60    1.60</time>
   <energy>
    <i name="e_fr_energy">    -36.93007754 </i>
    <i name="e_wo_entrp">    -36.93007393 </i>
    <i name="e_0_energy">    -36.93007574 </i>
   </energy>
  </scstep>
  <scstep>
   <time name="dav">    1.32    1.32</time>
   <time name="total">    1.61    1.62</time>
   <energy>
    <i name="e_fr_energy">    -36.93007751 </i>
    <i name="e_wo_entrp">    -36.93007390 </i>
    <i name="e_0_energy">    -36.93007570 </i>
   </energy>
  </scstep>
  <scstep>
   <time name="dav">    1.30    1.30</time>
   <time name="total">    1.60    1.60</time>
   <energy>
    <i name="e_fr_energy">    -36.93007748 </i>
    <i name="e_wo_entrp">    -36.93007387 </i>
    <i name="e_0_energy">    -36.93007567 </i>
   </energy>
  </scstep>
  <scstep>
   <time name="dav">    1.20    1.20</time>
   <time name="total">    1.31    1.31</time>
   <energy>
    <i name="alphaZ">     12.54445055 </i>
    <i name="ewald">   2170.29518060 </i>
    <i name="hartreedc">  -2694.67654015 </i>
    <i name="XCdc">     55.18499381 </i>
    <i name="pawpsdc">   1695.61208762 </i>
    <i name="pawaedc">  -1698.33472665 </i>
    <i name="eentropy">     -0.00000361 </i>
    <i name="bandstr">   -166.17321346 </i>
    <i name="atom">    588.61769381 </i>
    <i name="e_fr_energy">    -36.93007747 </i>
    <i name="e_wo_entrp">    -36.93007386 </i>
    <i name="e_0_energy">    -36.93007567 </i>
   </energy>
  </scstep>
  <structure>
   <crystal>
    <varray name="basis" >
     <v>       2.13000000      -1.22975600       0.00000000 </v>
     <v>       2.13000000       1.22975600       0.00000000 </v>
     <v>       0.00000000       0.00000000      20.00000000 </v>
    </varray>
    <i name="volume">    104.77521120 </i>
    <varray name="rec_basis" >
     <v>       0.23474178      -0.40658472       0.00000000 </v>
     <v>       0.23474178       0.40658472       0.00000000 </v>
     <v>       0.00000000       0.00000000       0.05000000 </v>
    </varray>
   </crystal>
   <varray name="positions" >
    <v>       0.00000000       0.00000000       0.00000000 </v>
    <v>       0.33333300       0.33333300       0.00000000 </v>
    <v>       0.00000000       0.00000000       0.24776826 </v>
    <v>       0.33333300       0.33333300       0.24776826 </v>
   </varray>
  </structure>
  <varray name="forces" >
   <v>      -0.00000000      -0.00000000       0.00122352 </v>
   <v>       0.00000000       0.00000000       0.00122352 </v>
   <v>       0.00000000       0.00000000      -0.00122352 </v>
   <v>      -0.00000000      -0.00000000      -0.00122352 </v>
  </varray>
  <varray name="stress" >
   <v>      12.73929080       0.00000000       0.00000000 </v>
   <v>       0.00000000      12.73928928       0.00000000 </v>
   <v>       0.00000000       0.00000000      -0.86304666 </v>
  </varray>
  <energy>
   <i name="e_fr_energy">    -36.93007747 </i>
   <i name="e_wo_entrp">    -36.93007567 </i>
   <i name="e_0_energy">     -0.00000361 </i>
  </energy>
  <time name="totalsc">   32.91   33.09</time>
 </calculation>
 <calculation>
  <scstep>
   <time name="dav">    1.46    1.46</time>
   <time name="total">    1.76    1.78</time>
   <energy>
    <i name="alphaZ">     12.54445055 </i>
    <i name="ewald">   2195.35886795 </i>
    <i name="hartreedc">  -2719.67834800 </i>
    <i name="XCdc">     55.18353072 </i>
    <i name="pawpsdc">   1695.61240083 </i>
    <i name="pawaedc">  -1698.33503995 </i>
    <i name="eentropy">     -0.00000183 </i>
    <i name="bandstr">   -166.22946395 </i>
    <i name="atom">    588.61769381 </i>
    <i name="e_fr_energy">    -36.92590986 </i>
    <i name="e_wo_entrp">    -36.92590804 </i>
    <i name="e_0_energy">    -36.92590895 </i>
   </energy>
  </scstep>
  <scstep>
   <time name="dav">    1.51    1.52</time>
   <time name="total">    1.81    1.81</time>
   <energy>
    <i name="e_fr_energy">    -36.93236884 </i>
    <i name="e_wo_entrp">    -36.93236725 </i>
    <i name="e_0_energy">    -36.93236805 </i>
   </energy>
  </scstep>
  <scstep>
   <time name="dav">    1.66    1.67</time>
   <time name="total">    1.96    1.96</time>
   <energy>
    <i name="e_fr_energy">    -36.93005233 </i>
    <i name="e_wo_entrp">    -36.93005112 </i>
    <i name="e_0_energy">    -36.93005173 </i>
   </energy>
  </scstep>
  <scstep>
   <time name="dav">    1.64    1.64</time>
   <time name="total">    1.94    1.94</time>
   <energy>
    <i name="e_fr_energy">    -36.93022135 </i>
    <i name="e_wo_entrp">    -36.93022051 </i>
    <i name="e_0_energy">    -36.93022093 </i>
   </energy>
  </scstep>
  <scstep>
   <time name="dav">    1.70    1.70</time>
   <time name="total">    1.99    2.00</time>
   <energy>
    <i name="e_fr_energy">    -36.93018076 </i>
    <i name="e_wo_entrp">    -36.93017879 </i>
    <i name="e_0_energy">    -36.93017978 </i>
   </energy>
  </scstep>
  <scstep>
   <time name="dav">    1.62    1.63</time>
   <time name="total">    1.92    1.93</time>
   <energy>
    <i name="e_fr_energy">    -36.93018227 </i>
    <i name="e_wo_entrp">    -36.93018030 </i>
    <i name="e_0_energy">    -36.93018128 </i>
   </energy>
  </scstep>
  <scstep>
   <time name="dav">    1.65    1.66</time>
   <time name="total">    1.95    1.96</time>
   <energy>
    <i name="e_fr_energy">    -36.93018279 </i>
    <i name="e_wo_entrp">    -36.93018083 </i>
    <i name="e_0_energy">    -36.93018181 </i>
   </energy>
  </scstep>
  <scstep>
   <time name="dav">    1.64    1.64</time>
   <time name="total">    1.93    1.94</time>
   <energy>
    <i name="e_fr_energy">    -36.93018236 </i>
    <i name="e_wo_entrp">    -36.93018039 </i>
    <i name="e_0_energy">    -36.93018137 </i>
   </energy>
  </scstep>
  <scstep>
   <time name="dav">    1.72    1.73</time>
   <time name="total">    2.02    2.02</time>
   <energy>
    <i name="e_fr_energy">    -36.93018304 </i>
    <i name="e_wo_entrp">    -36.93018108 </i>
    <i name="e_0_energy">    -36.93018206 </i>
   </energy>
  </scstep>
  <scstep>
   <time name="dav">    1.52    1.53</time>
   <time name="total">    1.82    1.83</time>
   <energy>
    <i name="e_fr_energy">    -36.93018520 </i>
    <i name="e_wo_entrp">    -36.93018324 </i>
    <i name="e_0_energy">    -36.93018422 </i>
   </energy>
  </scstep>
  <scstep>
   <time name="dav">    1.64    1.64</time>
   <time name="total">    1.93    1.94</time>
   <energy>
    <i name="e_fr_energy">    -36.93018581 </i>
    <i name="e_wo_entrp">    -36.93018385 </i>
    <i name="e_0_energy">    -36.93018483 </i>
   </energy>
  </scstep>
  <scstep>
   <time name="dav">    1.62    1.62</time>
   <time name="total">    1.91    1.91</time>
   <energy>
    <i name="e_fr_energy">    -36.93018668 </i>
    <i name="e_wo_entrp">    -36.93018472 </i>
    <i name="e_0_energy">    -36.93018570 </i>
   </energy>
  </scstep>
  <scstep>
   <time name="dav">    1.36    1.36</time>
   <time name="total">    1.65    1.66</time>
   <energy>
    <i name="e_fr_energy">    -36.93018675 </i>
    <i name="e_wo_entrp">    -36.93018479 </i>
    <i name="e_0_energy">    -36.93018577 </i>
   </energy>
  </scstep>
  <scstep>
   <time name="dav">    1.57    1.57</time>
   <time name="total">    1.86    1.87</time>
   <energy>
    <i name="e_fr_energy">    -36.93018677 </i>
    <i name="e_wo_entrp">    -36.93018481 </i>
    <i name="e_0_energy">    -36.93018579 </i>
   </energy>
  </scstep>
  <scstep>
   <time name="dav">    1.32    1.32</time>
   <time name="total">    1.61    1.62</time>
   <energy>
    <i name="e_fr_energy">    -36.93018668 </i>
    <i name="e_wo_entrp">    -36.93018472 </i>
    <i name="e_0_energy">    -36.93018570 </i>
   </energy>
  </scstep>
  <scstep>
   <time name="dav">    1.30    1.30</time>
   <time name="total">    1.59    1.60</time>
   <energy>
    <i name="e_fr_energy">    -36.93018663 </i>
    <i name="e_wo_entrp">    -36.93018467 </i>
    <i name="e_0_energy">    -36.93018565 </i>
   </energy>
  </scstep>
  <scstep>
   <time name="dav">    1.22    1.22</time>
   <time name="total">    1.51    1.52</time>
   <energy>
    <i name="e_fr_energy">    -36.93018662 </i>
    <i name="e_wo_entrp">    -36.93018466 </i>
    <i name="e_0_energy">    -36.93018564 </i>
   </energy>
  </scstep>
  <scstep>
   <time name="dav">    1.26    1.26</time>
   <time name="total">    1.56    1.56</time>
   <energy>
    <i name="e_fr_energy">    -36.93018661 </i>
    <i name="e_wo_entrp">    -36.93018465 </i>
    <i name="e_0_energy">    -36.93018563 </i>
   </energy>
  </scstep>
  <scstep>
   <time name="dav">    1.25    1.25</time>
   <time name="total">    1.36    1.36</time>
   <energy>
    <i name="alphaZ">     12.54445055 </i>
    <i name="ewald">   2195.35886795 </i>
    <i name="hartreedc">  -2719.73998101 </i>
    <i name="XCdc">     55.18501168 </i>
    <i name="pawpsdc">   1695.60943822 </i>
    <i name="pawaedc">  -1698.33207685 </i>
    <i name="eentropy">     -0.00000196 </i>
    <i name="bandstr">   -166.17358900 </i>
    <i name="atom">    588.61769381 </i>
    <i name="e_fr_energy">    -36.93018662 </i>
    <i name="e_wo_entrp">    -36.93018466 </i>
    <i name="e_0_energy">    -36.93018564 </i>
   </energy>
  </scstep>
  <structure>
   <crystal>
    <varray name="basis" >
     <v>       2.13000000      -1.22975600       0.00000000 </v>
     <v>       2.13000000       1.22975600       0.00000000 </v>
     <v>       0.00000000       0.00000000      20.00000000 </v>
    </varray>
    <i name="volume">    104.77521120 </i>
    <varray name="rec_basis" >
     <v>       0.23474178      -0.40658472       0.00000000 </v>
     <v>       0.23474178       0.40658472       0.00000000 </v>
     <v>       0.00000000       0.00000000       0.05000000 </v>
    </varray>
   </crystal>
   <varray name="positions" >
    <v>       0.00000000       0.00000000       0.00000000 </v>
    <v>       0.33333300       0.33333300       0.00000000 </v>
    <v>       0.00000000       0.00000000       0.24553070 </v>
    <v>       0.33333300       0.33333300       0.24553070 </v>
   </varray>
  </structure>
  <varray name="forces" >
   <v>       0.00000000      -0.00000000       0.00122449 </v>
   <v>      -0.00000000       0.00000000       0.00122449 </v>
[...]
       <r>    0.1865    0.0000 </r>
       <r>    0.3061    0.0000 </r>
       <r>    9.3905    0.0000 </r>
       <r>    9.4677    0.0000 </r>
      </set>
      <set comment="kpoint 42">
       <r>  -16.8767    1.0000 </r>
       <r>  -16.8684    1.0000 </r>
       <r>  -11.4058    1.0000 </r>
       <r>  -11.4017    1.0000 </r>
       <r>   -9.8663    1.0000 </r>
       <r>   -9.8630    1.0000 </r>
       <r>   -4.4532    1.0000 </r>
       <r>   -4.3195    1.0000 </r>
       <r>    2.0514    0.0000 </r>
       <r>    2.1291    0.0000 </r>
       <r>    7.2749    0.0000 </r>
       <r>    7.8708    0.0000 </r>
      </set>
      <set comment="kpoint 43">
       <r>  -16.0883    1.0000 </r>
       <r>  -16.0807    1.0000 </r>
       <r>  -12.2203    1.0000 </r>
       <r>  -12.2156    1.0000 </r>
       <r>  -10.4142    1.0000 </r>
       <r>  -10.4107    1.0000 </r>
       <r>   -3.6210    1.0000 </r>
       <r>   -3.4989    1.0000 </r>
       <r>    1.0859    0.0000 </r>
       <r>    1.1714    0.0000 </r>
       <r>    8.3610    0.0000 </r>
       <r>    8.9199    0.0000 </r>
      </set>
      <set comment="kpoint 44">
       <r>  -15.2530    1.0000 </r>
       <r>  -15.2461    1.0000 </r>
       <r>  -13.1264    1.0000 </r>
       <r>  -13.1212    1.0000 </r>
       <r>  -10.6994    1.0000 </r>
       <r>  -10.6957    1.0000 </r>
       <r>   -2.8320    1.0000 </r>
       <r>   -2.7233    1.0000 </r>
       <r>    0.2142    0.0000 </r>
       <r>    0.3112    0.0000 </r>
       <r>    9.2854    0.0000 </r>
       <r>    9.6846    0.0000 </r>
      </set>
      <set comment="kpoint 45">
       <r>  -14.6596    1.0000 </r>
       <r>  -14.6531    1.0000 </r>
       <r>  -13.7532    1.0000 </r>
       <r>  -13.7475    1.0000 </r>
       <r>  -10.7867    1.0000 </r>
       <r>  -10.7830    1.0000 </r>
       <r>   -2.4238    1.0000 </r>
       <r>   -2.3244    1.0000 </r>
       <r>   -0.2222    0.0000 </r>
       <r>   -0.1164    0.0000 </r>
       <r>    9.4009    0.0000 </r>
       <r>   10.1935    0.0000 </r>
      </set>
      <set comment="kpoint 46">
       <r>  -15.2877    1.0000 </r>
       <r>  -15.2807    1.0000 </r>
       <r>  -12.7469    1.0000 </r>
       <r>  -12.7420    1.0000 </r>
       <r>  -11.1295    1.0000 </r>
       <r>  -11.1255    1.0000 </r>
       <r>   -2.7919    1.0000 </r>
       <r>   -2.6810    1.0000 </r>
       <r>    0.2378    0.0000 </r>
       <r>    0.3252    0.0000 </r>
       <r>    9.1354    0.0000 </r>
       <r>    9.6033    0.0000 </r>
      </set>
      <set comment="kpoint 47">
       <r>  -14.4959    1.0000 </r>
       <r>  -14.4895    1.0000 </r>
       <r>  -13.4111    1.0000 </r>
       <r>  -13.4056    1.0000 </r>
       <r>  -11.4845    1.0000 </r>
       <r>  -11.4803    1.0000 </r>
       <r>   -2.0486    1.0000 </r>
       <r>   -1.9486    1.0000 </r>
       <r>   -0.5111    0.0000 </r>
       <r>   -0.4176    0.0000 </r>
       <r>    9.1171    0.0000 </r>
       <r>    9.9379    0.0000 </r>
      </set>
      <set comment="kpoint 48">
       <r>  -13.8360    1.0000 </r>
       <r>  -13.8360    1.0000 </r>
       <r>  -13.8302    1.0000 </r>
       <r>  -13.8302    1.0000 </r>
       <r>  -11.8263    1.0000 </r>
       <r>  -11.8218    1.0000 </r>
       <r>   -1.2681    1.0000 </r>
       <r>   -1.2681    1.0000 </r>
       <r>   -1.1736    0.0000 </r>
       <r>   -1.1736    0.0000 </r>
       <r>    9.0062    0.0000 </r>
       <r>    9.8483    0.0000 </r>
      </set>
     </set>
    </set>
   </array>
  </eigenvalues>
  <separator name="orbital magnetization" >
   <v name="MAGDIPOLOUT">      0.00000000      0.00000000      0.00000000</v>
  </separator>
  <dos>
   <i name="efermi">     -1.22636985 </i>
   <total>
    <array>
     <dimension dim="1">gridpoints</dimension>
     <dimension dim="2">spin</dimension>
     <field>energy</field>
     <field>total</field>
     <field>integrated</field>
     <set>
      <set comment="spin 1">
       <r>   -22.3499     0.0000     0.0000 </r>
       <r>   -22.2363     0.0000     0.0000 </r>
       <r>   -22.1226     0.0000     0.0000 </r>
       <r>   -22.0090     0.0000     0.0000 </r>
       <r>   -21.8953     0.0000     0.0000 </r>
       <r>   -21.7817     0.0000     0.0000 </r>
       <r>   -21.6680     0.0000     0.0000 </r>
       <r>   -21.5544     0.0000     0.0000 </r>
       <r>   -21.4408     0.0000     0.0000 </r>
       <r>   -21.3271     0.0000     0.0000 </r>
       <r>   -21.2135     0.0000     0.0000 </r>
       <r>   -21.0998     0.0000     0.0000 </r>
       <r>   -20.9862     0.0000     0.0000 </r>
       <r>   -20.8725     0.0000     0.0000 </r>
       <r>   -20.7589     0.0890     0.0101 </r>
       <r>   -20.6453     0.0440     0.0685 </r>
       <r>   -20.5316     0.4789     0.1723 </r>
       <r>   -20.4180     0.4877     0.2278 </r>
       <r>   -20.3043     0.3633     0.3225 </r>
       <r>   -20.1907     0.0000     0.3356 </r>
       <r>   -20.0770     1.4267     0.4977 </r>
       <r>   -19.9634     0.0003     0.4989 </r>
       <r>   -19.8497     0.0000     0.5533 </r>
       <r>   -19.7361     0.9578     0.6621 </r>
       <r>   -19.6225     0.9578     0.7710 </r>
       <r>   -19.5088     0.0000     0.7710 </r>
       <r>   -19.3952     0.4789     0.8254 </r>
       <r>   -19.2815     1.4202     0.9868 </r>
       <r>   -19.1679     0.0005     0.9887 </r>
       <r>   -19.0542     0.0000     1.0975 </r>
       <r>   -18.9406     0.0000     1.0975 </r>
       <r>   -18.8270     0.9007     1.1999 </r>
       <r>   -18.7133     0.7565     1.3467 </r>
       <r>   -18.5997     0.0000     1.3696 </r>
       <r>   -18.4860     0.9566     1.4783 </r>
       <r>   -18.3724     0.0000     1.4785 </r>
       <r>   -18.2587     0.0956     1.4893 </r>
       <r>   -18.1451     1.4366     1.6961 </r>
       <r>   -18.0314     0.8790     1.7960 </r>
       <r>   -17.9178     0.0000     1.8050 </r>
       <r>   -17.8042     0.0083     1.8059 </r>
       <r>   -17.6905     0.0000     1.9138 </r>
       <r>   -17.5769     0.6673     1.9897 </r>
       <r>   -17.4632     0.9276     2.1281 </r>
       <r>   -17.3496     0.2394     2.1859 </r>
       <r>   -17.2359     0.9578     2.2948 </r>
       <r>   -17.1223     0.0000     2.2948 </r>
       <r>   -17.0087     0.0000     2.2948 </r>
       <r>   -16.8950     0.4800     2.4038 </r>
       <r>   -16.7814     0.9578     2.5669 </r>
       <r>   -16.6677     0.7173     2.6484 </r>
       <r>   -16.5541     0.4778     2.7300 </r>
       <r>   -16.4404     0.0851     2.7398 </r>
       <r>   -16.3268     0.0000     2.8390 </r>
       <r>   -16.2131     0.0000     2.8390 </r>
       <r>   -16.0995     0.6522     2.9131 </r>
       <r>   -15.9859     0.7310     3.1398 </r>
       <r>   -15.8722     0.0000     3.1655 </r>
       <r>   -15.7586     0.9579     3.2744 </r>
       <r>   -15.6449     0.0000     3.3288 </r>
       <r>   -15.5313     0.9578     3.4376 </r>
       <r>   -15.4176     0.4789     3.4921 </r>
       <r>   -15.3040     0.0026     3.4924 </r>
       <r>   -15.1904     1.4381     3.7099 </r>
       <r>   -15.0767     0.0000     3.8186 </r>
       <r>   -14.9631     0.0000     3.8186 </r>
       <r>   -14.8494     0.0000     3.8186 </r>
       <r>   -14.7358     0.0000     3.8186 </r>
       <r>   -14.6221     0.4789     3.8730 </r>
       <r>   -14.5085     0.0195     3.8752 </r>
       <r>   -14.3948     0.4789     4.0363 </r>
       <r>   -14.2812     0.0075     4.0371 </r>
       <r>   -14.1676     0.4789     4.1451 </r>
       <r>   -14.0539     0.4789     4.2540 </r>
       <r>   -13.9403     0.0000     4.2540 </r>
       <r>   -13.8266     0.2553     4.2830 </r>
       <r>   -13.7130     2.3944     4.5624 </r>
       <r>   -13.5993     0.0000     4.5624 </r>
       <r>   -13.4857     0.9578     4.6712 </r>
       <r>   -13.3721     0.9578     4.7800 </r>
       <r>   -13.2584     0.2923     4.8133 </r>
       <r>   -13.1448     0.3041     4.8690 </r>
       <r>   -13.0311     0.0000     5.0522 </r>
       <r>   -12.9175     0.0000     5.0522 </r>
       <r>   -12.8038     0.9524     5.1604 </r>
       <r>   -12.6902     0.4789     5.2154 </r>
       <r>   -12.5765     0.0000     5.3243 </r>
       <r>   -12.4629     0.0561     5.3306 </r>
       <r>   -12.3493     0.0000     5.4331 </r>
       <r>   -12.2356     0.0083     5.4341 </r>
       <r>   -12.1220     0.0002     5.5420 </r>
       <r>   -12.0083     0.0760     5.6050 </r>
       <r>   -11.8947     0.0000     5.7052 </r>
       <r>   -11.7810     0.3426     5.7442 </r>
       <r>   -11.6674     0.0000     5.8322 </r>
       <r>   -11.5537     0.0000     5.8322 </r>
       <r>   -11.4401     1.9153     6.0499 </r>
       <r>   -11.3265     0.5207     6.1091 </r>
       <r>   -11.2128     0.0000     6.2132 </r>
       <r>   -11.0992     0.4789     6.2676 </r>
       <r>   -10.9855     0.0000     6.2676 </r>
       <r>   -10.8719     0.1313     6.2825 </r>
       <r>   -10.7582     1.5312     6.4960 </r>
       <r>   -10.6446     0.9578     6.7029 </r>
       <r>   -10.5310     0.0000     6.7029 </r>
       <r>   -10.4173     0.2423     6.7305 </r>
       <r>   -10.3037     0.0000     6.8118 </r>
       <r>   -10.1900     0.9592     6.9208 </r>
       <r>   -10.0764     0.0000     7.0295 </r>
       <r>    -9.9627     0.0000     7.0295 </r>
       <r>    -9.8491     1.4689     7.1964 </r>
       <r>    -9.7354     0.9577     7.3560 </r>
       <r>    -9.6218     0.0032     7.3564 </r>
       <r>    -9.5082     0.9700     7.5207 </r>
       <r>    -9.3945     0.0000     7.6281 </r>
       <r>    -9.2809     0.0000     7.6281 </r>
       <r>    -9.1672     0.0000     7.6281 </r>
       <r>    -9.0536     1.6776     7.8188 </r>
       <r>    -8.9399     1.9554     8.1225 </r>
       <r>    -8.8263     0.4549     8.2014 </r>
       <r>    -8.7127     0.6881     8.3412 </r>
       <r>    -8.5990     0.1997     8.3674 </r>
       <r>    -8.4854     1.6761     8.5624 </r>
       <r>    -8.3717     1.6763     8.7529 </r>
       <r>    -8.2581     0.9578     8.9705 </r>
       <r>    -8.1444     1.6995     9.1637 </r>
       <r>    -8.0308     0.4037     9.3701 </r>
       <r>    -7.9171     1.6761     9.5692 </r>
       <r>    -7.8035     0.4793     9.6236 </r>
       <r>    -7.6899     1.4374     9.9230 </r>
       <r>    -7.5762     3.1549    10.3903 </r>
       <r>    -7.4626     0.9065    10.5157 </r>
       <r>    -7.3489     0.9254    10.6267 </r>
       <r>    -7.2353     2.1481    10.9561 </r>
       <r>    -7.1216     0.2062    11.0620 </r>
       <r>    -7.0080     1.3070    11.2687 </r>
       <r>    -6.8944     0.4503    11.4435 </r>
       <r>    -6.7807     0.4789    11.5011 </r>
       <r>    -6.6671     1.2043    11.6380 </r>
       <r>    -6.5534     2.3293    11.9563 </r>
       <r>    -6.4398     0.4789    12.0998 </r>
       <r>    -6.3261     0.9577    12.2086 </r>
       <r>    -6.2125     0.0000    12.2630 </r>
       <r>    -6.0988     1.9155    12.4807 </r>
       <r>    -5.9852     1.6241    12.6653 </r>
       <r>    -5.8716     0.7183    12.7528 </r>
       <r>    -5.7579     1.1689    12.9129 </r>
       <r>    -5.6443     0.2513    12.9447 </r>
       <r>    -5.5306     1.3157    13.2289 </r>
       <r>    -5.4170     0.4789    13.3515 </r>
       <r>    -5.3033     0.4789    13.4059 </r>
       <r>    -5.1897     0.4789    13.4603 </r>
       <r>    -5.0761     2.1307    13.7025 </r>
       <r>    -4.9624     1.6773    13.8958 </r>
       <r>    -4.8488     0.4788    14.0045 </r>
       <r>    -4.7351     0.4789    14.0590 </r>
       <r>    -4.6215     0.9580    14.1678 </r>
       <r>    -4.5078     0.4788    14.2766 </r>
       <r>    -4.3942     1.1962    14.4126 </r>
       <r>    -4.2805     1.2357    14.6075 </r>
       <r>    -4.1669     0.6438    14.7217 </r>
       <r>    -4.0533     0.4789    14.7846 </r>
       <r>    -3.9396     0.5199    14.8437 </r>
       <r>    -3.8260     0.0333    14.8972 </r>
       <r>    -3.7123     0.2394    14.9750 </r>
       <r>    -3.5987     0.9163    15.0792 </r>
       <r>    -3.4850     1.6649    15.3275 </r>
       <r>    -3.3714     0.9578    15.4921 </r>
       <r>    -3.2578     0.0000    15.4921 </r>
       <r>    -3.1441     0.2394    15.5193 </r>
       <r>    -3.0305     0.2394    15.5465 </r>
       <r>    -2.9168     0.4789    15.6009 </r>
       <r>    -2.8032     0.9709    15.7112 </r>
       <r>    -2.6895     0.5058    15.7944 </r>
       <r>    -2.5759     0.0000    15.8186 </r>
       <r>    -2.4622     0.0000    15.8186 </r>
       <r>    -2.3486     0.2395    15.8458 </r>
       <r>    -2.2350     0.0000    15.8730 </r>
       <r>    -2.1213     0.0000    15.8730 </r>
       <r>    -2.0077     0.4789    15.9274 </r>
       <r>    -1.8940     0.4789    15.9819 </r>
       <r>    -1.7804     0.0000    15.9819 </r>
       <r>    -1.6667     0.0000    15.9819 </r>
       <r>    -1.5531     0.0000    15.9819 </r>
       <r>    -1.4395     0.0000    15.9819 </r>
       <r>    -1.3258     0.0000    15.9819 </r>
       <r>    -1.2122     0.1596    16.0000 </r>
       <r>    -1.0985     0.1596    16.0181 </r>
       <r>    -0.9849     0.0000    16.0181 </r>
       <r>    -0.8712     0.0000    16.0181 </r>
       <r>    -0.7576     0.0000    16.0181 </r>
       <r>    -0.6439     0.0000    16.0181 </r>
       <r>    -0.5303     0.0016    16.0183 </r>
       <r>    -0.4167     0.2649    16.1027 </r>
       <r>    -0.3030     0.0000    16.1270 </r>
       <r>    -0.1894     0.2394    16.1542 </r>
       <r>    -0.0757     0.2394    16.1814 </r>
       <r>     0.0379     0.0000    16.1814 </r>
       <r>     0.1516     0.0000    16.1814 </r>
       <r>     0.2652     1.4365    16.3447 </r>
       <r>     0.3788     1.4815    16.5130 </r>
       <r>     0.4925     0.6768    16.6121 </r>
       <r>     0.6061     0.6967    16.6960 </r>
       <r>     0.7198     0.7183    16.7800 </r>
       <r>     0.8334     0.9578    16.8889 </r>
       <r>     0.9471     0.9170    16.9931 </r>
       <r>     1.0607     0.4790    17.0522 </r>
       <r>     1.1744     0.3771    17.1494 </r>
       <r>     1.2880     0.2394    17.2426 </r>
       <r>     1.4016     0.2365    17.3239 </r>
       <r>     1.5153     0.0000    17.3243 </r>
       <r>     1.6289     0.4789    17.3787 </r>
       <r>     1.7426     0.4851    17.4338 </r>
       <r>     1.8562     0.0000    17.4875 </r>
       <r>     1.9699     0.9977    17.6009 </r>
       <r>     2.0835     0.7183    17.7098 </r>
       <r>     2.1971     0.4836    17.7647 </r>
       <r>     2.3108     0.4782    17.8457 </r>
       <r>     2.4244     0.8600    17.9435 </r>
       <r>     2.5381     0.2814    18.0138 </r>
       <r>     2.6517     0.2394    18.0680 </r>
       <r>     2.7654     0.7414    18.1523 </r>
       <r>     2.8790     0.9555    18.3127 </r>
       <r>     2.9927     0.6624    18.3882 </r>
       <r>     3.1063     1.1523    18.6071 </r>
       <r>     3.2199     0.4789    18.6712 </r>
       <r>     3.3336     0.7078    18.7516 </r>
       <r>     3.4472     1.1580    18.9116 </r>
       <r>     3.5609     0.4788    18.9705 </r>
       <r>     3.6745     1.4335    19.1334 </r>
       <r>     3.7882     0.7141    19.2149 </r>
       <r>     3.9018     0.7183    19.2971 </r>
       <r>     4.0155     1.6355    19.4829 </r>
       <r>     4.1291     0.9579    19.6553 </r>
       <r>     4.2427     0.2394    19.7642 </r>
       <r>     4.3564     0.9578    19.9002 </r>
       <r>     4.4700     0.2376    19.9816 </r>
       <r>     4.5837     0.8761    20.1903 </r>
       <r>     4.6973     0.7185    20.3084 </r>
       <r>     4.8110     0.5834    20.4291 </r>
       <r>     4.9246     0.9669    20.5815 </r>
       <r>     5.0382     0.9577    20.7438 </r>
       <r>     5.1519     1.7623    20.9440 </r>
       <r>     5.2655     0.6521    21.0356 </r>
       <r>     5.3792     1.6253    21.2278 </r>
       <r>     5.4928     0.8200    21.3267 </r>
       <r>     5.6065     0.0000    21.3696 </r>
       <r>     5.7201     0.9578    21.5329 </r>
       <r>     5.8338     0.0000    21.5601 </r>
       <r>     5.9474     0.6889    21.6384 </r>
       <r>     6.0610     1.1083    21.7949 </r>
       <r>     6.1747     0.0000    21.8050 </r>
       <r>     6.2883     1.2356    21.9454 </r>
       <r>     6.4020     0.1422    22.0660 </r>
       <r>     6.5156     1.2460    22.2731 </r>
       <r>     6.6293     1.4366    22.4580 </r>
       <r>     6.7429     0.4789    22.5125 </r>
       <r>     6.8565     0.0000    22.5125 </r>
       <r>     6.9702     0.4789    22.5669 </r>
       <r>     7.0838     0.4789    22.6213 </r>
       <r>     7.1975     1.0980    22.7461 </r>
       <r>     7.3111     1.1972    22.9206 </r>
       <r>     7.4248     0.4789    22.9751 </r>
       <r>     7.5384     0.0535    22.9811 </r>
       <r>     7.6521     0.0000    23.0295 </r>
       <r>     7.7657     0.0000    23.0295 </r>
       <r>     7.8793     0.2122    23.0536 </r>
       <r>     7.9930     0.4789    23.1111 </r>
       <r>     8.1066     0.0000    23.1111 </r>
       <r>     8.2203     1.4314    23.2738 </r>
       <r>     8.3339     0.0000    23.3288 </r>
       <r>     8.4476     0.0000    23.3832 </r>
       <r>     8.5612     0.4789    23.4376 </r>
       <r>     8.6748     0.0000    23.4376 </r>
       <r>     8.7885     0.0000    23.4376 </r>
       <r>     8.9021     0.0029    23.4380 </r>
       <r>     9.0158     0.0729    23.5003 </r>
       <r>     9.1294     0.9860    23.6132 </r>
       <r>     9.2431     0.0000    23.6372 </r>
       <r>     9.3567     0.4789    23.6916 </r>
       <r>     9.4704     1.0282    23.8085 </r>
       <r>     9.5840     0.0008    23.8278 </r>
       <r>     9.6976     0.4633    23.9075 </r>
       <r>     9.8113     0.0000    23.9093 </r>
       <r>     9.9249     0.0956    23.9202 </r>
       <r>    10.0386     0.0000    23.9728 </r>
       <r>    10.1522     0.0000    23.9728 </r>
       <r>    10.2659     0.2394    24.0000 </r>
       <r>    10.3795     0.0000    24.0000 </r>
       <r>    10.4931     0.0000    24.0000 </r>
       <r>    10.6068     0.0000    24.0000 </r>
       <r>    10.7204     0.0000    24.0000 </r>
       <r>    10.8341     0.0000    24.0000 </r>
       <r>    10.9477     0.0000    24.0000 </r>
       <r>    11.0614     0.0000    24.0000 </r>
       <r>    11.1750     0.0000    24.0000 </r>
       <r>    11.2887     0.0000    24.0000 </r>
       <r>    11.4023     0.0000    24.0000 </r>
       <r>    11.5159     0.0000    24.0000 </r>
       <r>    11.6296     0.0000    24.0000 </r>
       <r>    11.7432     0.0000    24.0000 </r>
      </set>
     </set>
    </array>
   </total>
  </dos>
 </calculation>
 <structure name="finalpos" >
  <crystal>
   <varray name="basis" >
    <v>       2.13000000      -1.22975600       0.00000000 </v>
    <v>       2.13000000       1.22975600       0.00000000 </v>
    <v>       0.00000000       0.00000000      20.00000000 </v>
   </varray>
   <i name="volume">    104.77521120 </i>
   <varray name="rec_basis" >
    <v>       0.23474178      -0.40658472       0.00000000 </v>
    <v>       0.23474178       0.40658472       0.00000000 </v>
    <v>       0.00000000       0.00000000       0.05000000 </v>
   </varray>
  </crystal>
  <varray name="positions" >
   <v>       0.00000000       0.00000000       0.00000000 </v>
   <v>       0.33333300       0.33333300       0.00000000 </v>
   <v>       0.00000000       0.00000000       0.22207616 </v>
   <v>       0.33333300       0.33333300       0.22207616 </v>
  </varray>
  <varray name="selective"  type="logical" >
   <v type="logical" >  F  F  F </v>
   <v type="logical" >  F  F  F </v>
   <v type="logical" >  F  F  T </v>
   <v type="logical" >  F  F  T </v>
  </varray>
  <nose>
   <v>      -3.00000000       0.00000000       0.00010000       0.00010000 </v>
  </nose>
 </structure>
</modeling>
