   2   2   0   0
  0.5238761E+02  0.2459512E-09  0.2459512E-09  0.2000000E-08  0.5000000E-15
  1.000000000000000E-004
  CAR 
 C-2                                     
     14.41679818    -24.04530615  301     -2.72177105      1.00000000
    -24.045  0.0000E+00  0.0000E+00
    -23.917  0.0000E+00  0.0000E+00
    -23.789  0.0000E+00  0.0000E+00
    -23.661  0.0000E+00  0.0000E+00
    -23.532  0.0000E+00  0.0000E+00
    -23.404  0.0000E+00  0.0000E+00
    -23.276  0.0000E+00  0.0000E+00
    -23.148  0.0000E+00  0.0000E+00
    -23.020  0.0000E+00  0.0000E+00
    -22.891  0.0000E+00  0.0000E+00
    -22.763  0.0000E+00  0.0000E+00
    -22.635  0.0000E+00  0.0000E+00
    -22.507  0.0000E+00  0.0000E+00
    -22.379  0.0000E+00  0.0000E+00
    -22.250  0.9404E+00  0.1206E+00
    -22.122  0.4121E+00  0.2262E+00
    -21.994  0.2838E+00  0.2897E+00
    -21.866  0.3097E+00  0.3464E+00
    -21.738  0.2558E+00  0.3928E+00
    -21.609  0.2080E+00  0.4267E+00
    -21.481  0.2075E+00  0.4666E+00
    -21.353  0.1351E+00  0.4973E+00
    -21.225  0.1019E+00  0.5331E+00
    -21.097  0.2022E+00  0.5726E+00
    -20.968  0.2077E+00  0.6000E+00
    -20.840  0.2063E+00  0.6264E+00
    -20.712  0.1789E+00  0.6496E+00
    -20.584  0.1075E+00  0.6671E+00
    -20.456  0.1040E+00  0.6933E+00
    -20.327  0.1040E+00  0.7200E+00
    -20.199  0.2080E+00  0.7467E+00
    -20.071  0.2080E+00  0.7733E+00
    -19.943  0.1018E+00  0.7864E+00
    -19.814  0.6437E-02  0.8008E+00
    -19.686  0.1040E+00  0.8267E+00
    -19.558  0.1023E+00  0.8531E+00
    -19.430  0.1040E+00  0.8667E+00
    -19.302  0.1040E+00  0.8933E+00
    -19.173  0.1055E+00  0.9069E+00
    -19.045  0.7268E-12  0.9200E+00
    -18.917  0.1040E+00  0.9467E+00
    -18.789  0.1878E+00  0.9708E+00
    -18.661  0.4294E-05  0.9733E+00
    -18.532  0.1040E+00  0.1000E+01
    -18.404  0.1040E+00  0.1013E+01
    -18.276  0.8490E-02  0.1028E+01
    -18.148  0.9702E-01  0.1052E+01
    -18.020  0.1040E+00  0.1067E+01
    -17.891  0.1548E+00  0.1087E+01
    -17.763  0.4317E-13  0.1093E+01
    -17.635  0.2080E+00  0.1120E+01
    -17.507  0.9958E-01  0.1133E+01
    -17.379  0.1927E-07  0.1147E+01
    -17.250  0.6997E-01  0.1169E+01
    -17.122  0.1040E+00  0.1187E+01
    -16.994  0.1002E+01  0.1315E+01
    -16.866  0.4480E+00  0.1431E+01
    -16.738  0.4769E+00  0.1514E+01
    -16.609  0.2907E+00  0.1571E+01
    -16.481  0.3162E+00  0.1627E+01
    -16.353  0.2198E+00  0.1668E+01
    -16.225  0.2087E+00  0.1720E+01
    -16.096  0.2520E+00  0.1766E+01
    -15.968  0.9658E+00  0.1910E+01
    -15.840  0.7494E+00  0.2083E+01
    -15.712  0.5142E+00  0.2199E+01
    -15.584  0.5605E+00  0.2312E+01
    -15.455  0.5542E+00  0.2404E+01
    -15.327  0.6879E+00  0.2528E+01
    -15.199  0.5845E+00  0.2635E+01
    -15.071  0.7283E+00  0.2773E+01
    -14.943  0.1040E+00  0.2800E+01
    -14.814  0.2105E-13  0.2813E+01
    -14.686  0.2080E+00  0.2840E+01
    -14.558  0.1040E+00  0.2853E+01
    -14.430  0.5602E-02  0.2867E+01
    -14.302  0.1136E-04  0.2880E+01
    -14.173  0.1040E+00  0.2907E+01
    -14.045  0.1042E+00  0.2920E+01
    -13.917  0.3619E-05  0.2933E+01
    -13.789  0.6189E-03  0.2947E+01
    -13.661  0.1040E+00  0.2973E+01
    -13.532  0.5425E-03  0.2973E+01
    -13.404  0.0000E+00  0.3000E+01
    -13.276  0.6526E+00  0.3084E+01
    -13.148  0.2015E+00  0.3159E+01
    -13.020  0.1920E+00  0.3211E+01
    -12.891  0.3102E+00  0.3266E+01
    -12.763  0.1037E+00  0.3293E+01
    -12.635  0.1812E+00  0.3343E+01
    -12.507  0.1027E+00  0.3373E+01
    -12.378  0.1040E+00  0.3427E+01
    -12.250  0.3046E+00  0.3466E+01
    -12.122  0.2753E+00  0.3502E+01
    -11.994  0.2080E+00  0.3533E+01
    -11.866  0.3120E+00  0.3573E+01
    -11.737  0.3115E+00  0.3613E+01
    -11.609  0.2080E+00  0.3640E+01
    -11.481  0.1040E+00  0.3680E+01
    -11.353  0.3155E+00  0.3720E+01
    -11.225  0.1040E+00  0.3747E+01
    -11.096  0.3880E+00  0.3796E+01
    -10.968  0.1276E+00  0.3816E+01
    -10.840  0.2295E+00  0.3856E+01
    -10.712  0.1040E+00  0.3893E+01
    -10.584  0.1042E+00  0.3920E+01
    -10.455  0.7044E-02  0.3961E+01
    -10.327  0.1271E+01  0.4136E+01
    -10.199  0.4178E+00  0.4254E+01
    -10.071  0.5765E+00  0.4354E+01
     -9.943  0.4163E+00  0.4427E+01
     -9.814  0.4562E+00  0.4525E+01
     -9.686  0.4948E+00  0.4597E+01
     -9.558  0.3136E+00  0.4667E+01
     -9.430  0.4093E+00  0.4759E+01
     -9.301  0.3129E+00  0.4827E+01
     -9.173  0.5372E+00  0.4936E+01
     -9.045  0.5687E+00  0.5113E+01
     -8.917  0.5317E+00  0.5202E+01
     -8.789  0.6214E+00  0.5293E+01
     -8.660  0.4155E+00  0.5360E+01
     -8.532  0.4036E+00  0.5425E+01
     -8.404  0.3853E+00  0.5489E+01
     -8.276  0.4146E+00  0.5560E+01
     -8.148  0.4294E+00  0.5615E+01
     -8.019  0.1812E+00  0.5663E+01
     -7.891  0.2080E+00  0.5733E+01
     -7.763  0.4160E+00  0.5800E+01
     -7.635  0.1059E+00  0.5840E+01
     -7.507  0.1545E+00  0.5913E+01
     -7.378  0.3919E+00  0.5984E+01
     -7.250  0.3135E+00  0.6027E+01
     -7.122  0.3120E+00  0.6093E+01
     -6.994  0.2972E+00  0.6145E+01
     -6.866  0.3161E+00  0.6214E+01
     -6.737  0.4101E+00  0.6279E+01
     -6.609  0.1892E+00  0.6331E+01
     -6.481  0.3120E+00  0.6400E+01
     -6.353  0.2215E+00  0.6468E+01
     -6.225  0.3280E+00  0.6549E+01
     -6.096  0.4003E+00  0.6625E+01
     -5.968  0.3446E+00  0.6711E+01
     -5.840  0.7218E+00  0.6839E+01
     -5.712  0.1248E+01  0.7053E+01
     -5.583  0.2078E+00  0.7080E+01
     -5.455  0.9363E-01  0.7092E+01
     -5.327  0.1015E+00  0.7120E+01
     -5.199  0.1055E+00  0.7134E+01
     -5.071  0.7860E+00  0.7261E+01
     -4.942  0.4820E+00  0.7368E+01
     -4.814  0.2235E+00  0.7429E+01
     -4.686  0.3033E+00  0.7492E+01
     -4.558  0.1976E+00  0.7532E+01
     -4.430  0.2176E+00  0.7575E+01
     -4.301  0.2022E+00  0.7613E+01
     -4.173  0.2080E+00  0.7653E+01
     -4.045  0.1040E+00  0.7680E+01
     -3.917  0.1040E+00  0.7720E+01
     -3.789  0.1068E+00  0.7747E+01
     -3.660  0.1464E+00  0.7779E+01
     -3.532  0.2077E+00  0.7813E+01
     -3.404  0.1039E+00  0.7840E+01
     -3.276  0.2096E+00  0.7867E+01
     -3.148  0.1040E+00  0.7893E+01
     -3.019  0.1042E+00  0.7920E+01
     -2.891  0.2073E+00  0.7960E+01
     -2.763  0.1040E+00  0.7973E+01
     -2.635  0.1708E-01  0.8029E+01
     -2.507  0.2079E+00  0.8067E+01
     -2.378  0.1050E+00  0.8080E+01
     -2.250  0.2080E+00  0.8120E+01
     -2.122  0.1884E+00  0.8144E+01
     -1.994  0.1049E+00  0.8173E+01
     -1.865  0.2082E+00  0.8213E+01
     -1.737  0.1085E+00  0.8241E+01
     -1.609  0.3015E+00  0.8292E+01
     -1.481  0.1515E+00  0.8326E+01
     -1.353  0.2067E+00  0.8386E+01
     -1.224  0.3072E+00  0.8453E+01
     -1.096  0.6423E+00  0.8576E+01
     -0.968  0.1043E+01  0.8814E+01
     -0.840  0.1039E+00  0.8840E+01
     -0.712  0.2076E+00  0.8867E+01
     -0.583  0.1172E-01  0.8868E+01
     -0.455  0.1039E+00  0.8893E+01
     -0.327  0.1040E+00  0.8907E+01
     -0.199  0.1166E+00  0.8922E+01
     -0.071  0.0000E+00  0.8933E+01
      0.058  0.2041E+00  0.8960E+01
      0.186  0.0000E+00  0.8960E+01
      0.314  0.1519E+00  0.8979E+01
      0.442  0.0000E+00  0.8987E+01
      0.570  0.9093E+00  0.9103E+01
      0.699  0.3945E+00  0.9211E+01
      0.827  0.3093E+00  0.9280E+01
      0.955  0.2083E+00  0.9333E+01
      1.083  0.3171E+00  0.9387E+01
      1.211  0.3120E+00  0.9440E+01
      1.340  0.7349E+00  0.9534E+01
      1.468  0.6231E+00  0.9693E+01
      1.596  0.4302E+00  0.9788E+01
      1.724  0.9634E+00  0.9950E+01
      1.853  0.7337E+00  0.1013E+02
      1.981  0.5212E+00  0.1025E+02
      2.109  0.5448E+00  0.1038E+02
      2.237  0.3132E+00  0.1048E+02
      2.365  0.6232E+00  0.1059E+02
      2.494  0.5200E+00  0.1068E+02
      2.622  0.9008E+00  0.1081E+02
      2.750  0.9360E+00  0.1101E+02
      2.878  0.5331E+00  0.1114E+02
      3.006  0.8380E+00  0.1128E+02
      3.135  0.1516E+01  0.1150E+02
      3.263  0.8150E+00  0.1169E+02
      3.391  0.9357E+00  0.1187E+02
      3.519  0.5966E+00  0.1198E+02
      3.647  0.4968E+00  0.1213E+02
      3.776  0.7255E+00  0.1225E+02
      3.904  0.5246E+00  0.1233E+02
      4.032  0.4764E+00  0.1246E+02
      4.160  0.5542E+00  0.1258E+02
      4.288  0.5235E+00  0.1269E+02
      4.417  0.8228E+00  0.1281E+02
      4.545  0.2519E+00  0.1289E+02
      4.673  0.3120E+00  0.1299E+02
      4.801  0.2911E+01  0.1339E+02
      4.929  0.9973E+00  0.1365E+02
      5.058  0.1330E+01  0.1386E+02
      5.186  0.7150E+00  0.1406E+02
      5.314  0.1063E+01  0.1427E+02
      5.442  0.1555E+01  0.1456E+02
      5.571  0.1135E+01  0.1483E+02
      5.699  0.3042E+01  0.1531E+02
      5.827  0.1013E+01  0.1554E+02
      5.955  0.1510E+01  0.1577E+02
      6.083  0.5227E+00  0.1589E+02
      6.212  0.1040E+01  0.1609E+02
      6.340  0.4509E+00  0.1623E+02
      6.468  0.6943E+00  0.1641E+02
      6.596  0.6469E+00  0.1651E+02
      6.724  0.9004E+00  0.1665E+02
      6.853  0.4415E+00  0.1672E+02
      6.981  0.4294E+00  0.1682E+02
      7.109  0.1313E+00  0.1694E+02
      7.237  0.4240E+00  0.1701E+02
      7.365  0.3438E+00  0.1714E+02
      7.494  0.4954E+00  0.1722E+02
      7.622  0.6242E+00  0.1735E+02
      7.750  0.5849E+00  0.1743E+02
      7.878  0.1955E+00  0.1752E+02
      8.006  0.1554E+01  0.1781E+02
      8.135  0.5213E+00  0.1797E+02
      8.263  0.4096E+00  0.1808E+02
      8.391  0.6109E+00  0.1822E+02
      8.519  0.1065E+01  0.1847E+02
      8.647  0.1983E+01  0.1877E+02
      8.776  0.9270E+00  0.1901E+02
      8.904  0.1273E+01  0.1924E+02
      9.032  0.8990E+00  0.1942E+02
      9.160  0.9199E+00  0.1965E+02
      9.289  0.2344E+01  0.2003E+02
      9.417  0.7446E+00  0.2020E+02
      9.545  0.1440E+01  0.2045E+02
      9.673  0.1100E+01  0.2069E+02
      9.801  0.1173E+01  0.2088E+02
      9.930  0.7910E+00  0.2106E+02
     10.058  0.1703E+01  0.2152E+02
     10.186  0.1731E+01  0.2189E+02
     10.314  0.1580E+01  0.2223E+02
     10.442  0.1110E+01  0.2245E+02
     10.571  0.8215E+00  0.2263E+02
     10.699  0.5627E+00  0.2275E+02
     10.827  0.1248E+01  0.2299E+02
     10.955  0.4133E+00  0.2308E+02
     11.083  0.3120E+00  0.2316E+02
     11.212  0.4090E+00  0.2325E+02
     11.340  0.3047E+00  0.2332E+02
     11.468  0.2302E+00  0.2339E+02
     11.596  0.3517E+00  0.2347E+02
     11.724  0.3122E+00  0.2353E+02
     11.853  0.3150E+00  0.2360E+02
     11.981  0.3840E+00  0.2369E+02
     12.109  0.2968E+00  0.2374E+02
     12.237  0.7305E+00  0.2385E+02
     12.365  0.2082E+00  0.2392E+02
     12.494  0.2079E+00  0.2396E+02
     12.622  0.2080E+00  0.2399E+02
     12.750  0.0000E+00  0.2400E+02
     12.878  0.0000E+00  0.2400E+02
     13.007  0.0000E+00  0.2400E+02
     13.135  0.0000E+00  0.2400E+02
     13.263  0.0000E+00  0.2400E+02
     13.391  0.0000E+00  0.2400E+02
     13.519  0.0000E+00  0.2400E+02
     13.648  0.0000E+00  0.2400E+02
     13.776  0.0000E+00  0.2400E+02
     13.904  0.0000E+00  0.2400E+02
     14.032  0.0000E+00  0.2400E+02
     14.160  0.0000E+00  0.2400E+02
     14.289  0.0000E+00  0.2400E+02
     14.417  0.0000E+00  0.2400E+02
