    2    2    1    1
  0.5238761E+02  0.2459512E-09  0.2459512E-09  0.2000000E-08  0.5000000E-15
  1.000000000000000E-004
  CAR 
 C-2                                     
      8    150     12
 
  0.0000000E+00  0.0000000E+00  0.0000000E+00  0.6666667E-02
    1      -22.297029   1.000000
    2      -10.390167   1.000000
    3       -5.750040   1.000000
    4       -5.749982   1.000000
    5        0.526711   0.000000
    6        1.328724   0.000000
    7        1.697703   0.000000
    8        2.605304   0.000000
    9        3.068350   0.000000
   10        4.728155   0.000000
   11        5.350116   0.000000
   12        5.650178   0.000000
 
  0.1020408E-01  0.1020408E-01  0.0000000E+00  0.6666667E-02
    1      -22.294556   1.000000
    2      -10.387207   1.000000
    3       -5.760357   1.000000
    4       -5.755472   1.000000
    5        0.530067   0.000000
    6        1.332125   0.000000
    7        1.701144   0.000000
    8        2.608716   0.000000
    9        3.071750   0.000000
   10        4.731533   0.000000
   11        5.353219   0.000000
   12        5.652997   0.000000
 
  0.2040816E-01  0.2040816E-01  0.0000000E+00  0.6666667E-02
    1      -22.287140   1.000000
    2      -10.378328   1.000000
    3       -5.791197   1.000000
    4       -5.771861   1.000000
    5        0.540132   0.000000
    6        1.342327   0.000000
    7        1.711468   0.000000
    8        2.618952   0.000000
    9        3.081948   0.000000
   10        4.741666   0.000000
   11        5.362517   0.000000
   12        5.657659   0.000000
 
  0.3061224E-01  0.3061224E-01  0.0000000E+00  0.6666667E-02
    1      -22.274778   1.000000
    2      -10.363535   1.000000
    3       -5.842275   1.000000
    4       -5.798956   1.000000
    5        0.556909   0.000000
    6        1.359331   0.000000
    7        1.728675   0.000000
    8        2.636010   0.000000
    9        3.098946   0.000000
   10        4.758554   0.000000
   11        5.377969   0.000000
   12        5.666815   0.000000
 
  0.4081633E-01  0.4081633E-01  0.0000000E+00  0.6666667E-02
    1      -22.257474   1.000000
    2      -10.342833   1.000000
    3       -5.913077   1.000000
    4       -5.836382   1.000000
    5        0.580399   0.000000
    6        1.383135   0.000000
    7        1.752764   0.000000
    8        2.659892   0.000000
    9        3.122744   0.000000
   10        4.782194   0.000000
   11        5.399490   0.000000
   12        5.678453   0.000000
 
  0.5102041E-01  0.5102041E-01  0.0000000E+00  0.6666667E-02
    1      -22.235232   1.000000
    2      -10.316224   1.000000
    3       -6.002962   1.000000
    4       -5.883652   1.000000
    5        0.610600   0.000000
    6        1.413737   0.000000
    7        1.783736   0.000000
    8        2.690594   0.000000
    9        3.153344   0.000000
   10        4.812583   0.000000
   11        5.426910   0.000000
   12        5.692621   0.000000
 
  0.6122449E-01  0.6122449E-01  0.0000000E+00  0.6666667E-02
    1      -22.208054   1.000000
    2      -10.283709   1.000000
    3       -6.111089   1.000000
    4       -5.940198   1.000000
    5        0.647516   0.000000
    6        1.451136   0.000000
    7        1.821592   0.000000
    8        2.728117   0.000000
    9        3.190745   0.000000
   10        4.849719   0.000000
   11        5.459911   0.000000
   12        5.708632   0.000000
 
  0.7142857E-01  0.7142857E-01  0.0000000E+00  0.6666667E-02
    1      -22.175943   1.000000
    2      -10.245326   1.000000
    3       -6.236540   1.000000
    4       -6.005338   1.000000
    5        0.691147   0.000000
    6        1.495328   0.000000
    7        1.866331   0.000000
    8        2.772456   0.000000
    9        3.234950   0.000000
   10        4.893594   0.000000
   11        5.497880   0.000000
   12        5.726182   0.000000
 
  0.8163265E-01  0.8163265E-01  0.0000000E+00  0.6666667E-02
    1      -22.138904   1.000000
    2      -10.201076   1.000000
    3       -6.378281   1.000000
    4       -6.078351   1.000000
    5        0.741492   0.000000
    6        1.546309   0.000000
    7        1.917953   0.000000
    8        2.823610   0.000000
    9        3.285956   0.000000
   10        4.944203   0.000000
   11        5.539623   0.000000
   12        5.745567   0.000000
 
  0.9183673E-01  0.9183673E-01  0.0000000E+00  0.6666667E-02
    1      -22.096946   1.000000
    2      -10.150973   1.000000
    3       -6.535272   1.000000
    4       -6.158468   1.000000
    5        0.798551   0.000000
    6        1.604077   0.000000
    7        1.976459   0.000000
    8        2.881575   0.000000
    9        3.343764   0.000000
   10        5.001536   0.000000
   11        5.582776   0.000000
   12        5.768288   0.000000
 
  0.1020408E+00  0.1020408E+00  0.0000000E+00  0.6666667E-02
    1      -22.050076   1.000000
    2      -10.095049   1.000000
    3       -6.706415   1.000000
    4       -6.244920   1.000000
    5        0.862325   0.000000
    6        1.668625   0.000000
    7        2.041849   0.000000
    8        2.946348   0.000000
    9        3.408371   0.000000
   10        5.065582   0.000000
   11        5.623022   0.000000
   12        5.797936   0.000000
 
  0.1122449E+00  0.1122449E+00  0.0000000E+00  0.6666667E-02
    1      -21.998301   1.000000
    2      -10.033321   1.000000
    3       -6.890587   1.000000
    4       -6.336887   1.000000
    5        0.932810   0.000000
    6        1.739947   0.000000
    7        2.114122   0.000000
    8        3.017921   0.000000
    9        3.479776   0.000000
   10        5.136323   0.000000
   11        5.654565   0.000000
   12        5.839686   0.000000
 
  0.1224490E+00  0.1224490E+00  0.0000000E+00  0.6666667E-02
    1      -21.941625   1.000000
    2       -9.965813   1.000000
    3       -7.086636   1.000000
    4       -6.433586   1.000000
    5        1.010006   0.000000
    6        1.818037   0.000000
    7        2.193279   0.000000
    8        3.096291   0.000000
    9        3.557972   0.000000
   10        5.213736   0.000000
   11        5.673846   0.000000
   12        5.896679   0.000000
 
  0.1326531E+00  0.1326531E+00  0.0000000E+00  0.6666667E-02
    1      -21.880062   1.000000
    2       -9.892555   1.000000
    3       -7.293507   1.000000
    4       -6.534300   1.000000
    5        1.093909   0.000000
    6        1.902883   0.000000
    7        2.279318   0.000000
    8        3.181446   0.000000
    9        3.642954   0.000000
   10        5.297785   0.000000
   11        5.681725   0.000000
   12        5.967781   0.000000
 
  0.1428571E+00  0.1428571E+00  0.0000000E+00  0.6666667E-02
    1      -21.813621   1.000000
    2       -9.813579   1.000000
    3       -7.510182   1.000000
    4       -6.638262   1.000000
    5        1.184516   0.000000
    6        1.994476   0.000000
    7        2.372241   0.000000
    8        3.273378   0.000000
    9        3.734712   0.000000
   10        5.388411   0.000000
   11        5.680649   0.000000
   12        6.050376   0.000000
 
  0.1530612E+00  0.1530612E+00  0.0000000E+00  0.6666667E-02
    1      -21.742315   1.000000
    2       -9.728924   1.000000
    3       -7.735636   1.000000
    4       -6.744766   1.000000
    5        1.281823   0.000000
    6        2.092800   0.000000
    7        2.472045   0.000000
    8        3.372069   0.000000
    9        3.833234   0.000000
   10        5.485502   0.000000
   11        5.672574   0.000000
   12        6.142538   0.000000
 
  0.1632653E+00  0.1632653E+00  0.0000000E+00  0.6666667E-02
    1      -21.666158   1.000000
    2       -9.638639   1.000000
    3       -7.968951   1.000000
    4       -6.853176   1.000000
    5        1.385822   0.000000
    6        2.197836   0.000000
    7        2.578731   0.000000
    8        3.477500   0.000000
    9        3.938501   0.000000
   10        5.588825   0.000000
   11        5.658758   0.000000
   12        6.243148   0.000000
 
  0.1734694E+00  0.1734694E+00  0.0000000E+00  0.6666667E-02
    1      -21.585161   1.000000
    2       -9.542767   1.000000
    3       -8.209203   1.000000
    4       -6.962878   1.000000
    5        1.496509   0.000000
    6        2.309558   0.000000
    7        2.692297   0.000000
    8        3.589638   0.000000
    9        4.050486   0.000000
   10        5.640106   0.000000
   11        5.697760   0.000000
   12        6.351582   0.000000
 
  0.1836735E+00  0.1836735E+00  0.0000000E+00  0.6666667E-02
    1      -21.499339   1.000000
    2       -9.441347   1.000000
    3       -8.455562   1.000000
    4       -7.073286   1.000000
    5        1.613877   0.000000
    6        2.427933   0.000000
    7        2.812743   0.000000
    8        3.708436   0.000000
    9        4.169152   0.000000
   10        5.617309   0.000000
   11        5.809898   0.000000
   12        6.313332   0.000000
 
  0.1938776E+00  0.1938776E+00  0.0000000E+00  0.6666667E-02
    1      -21.408707   1.000000
    2       -9.334452   1.000000
    3       -8.707238   1.000000
    4       -7.183874   1.000000
    5        1.737916   0.000000
    6        2.552910   0.000000
    7        2.940066   0.000000
    8        3.833809   0.000000
    9        4.294436   0.000000
   10        5.591002   0.000000
   11        5.902924   0.000000
   12        6.098009   0.000000
 
  0.2040816E+00  0.2040816E+00  0.0000000E+00  0.6666667E-02
    1      -21.313284   1.000000
    2       -9.222128   1.000000
    3       -8.963487   1.000000
    4       -7.294171   1.000000
    5        1.868618   0.000000
    6        2.684416   0.000000
    7        3.074264   0.000000
    8        3.965605   0.000000
    9        4.426238   0.000000
   10        5.561821   0.000000
   11        5.776760   0.000000
   12        6.102185   0.000000
 
  0.2142857E+00  0.2142857E+00  0.0000000E+00  0.6666667E-02
    1      -21.213092   1.000000
    2       -9.223669   1.000000
    3       -9.104479   1.000000
    4       -7.403701   1.000000
    5        2.005969   0.000000
    6        2.822331   0.000000
    7        3.215336   0.000000
    8        4.103492   0.000000
    9        4.564379   0.000000
   10        5.530415   0.000000
   11        5.530804   0.000000
   12        6.227560   0.000000
 
  0.2244898E+00  0.2244898E+00  0.0000000E+00  0.6666667E-02
    1      -21.108145   1.000000
    2       -9.487103   1.000000
    3       -8.981566   1.000000
    4       -7.512047   1.000000
    5        2.149959   0.000000
    6        2.966449   0.000000
    7        3.363277   0.000000
    8        4.246608   0.000000
    9        4.708500   0.000000
   10        5.272492   0.000000
   11        5.497657   0.000000
   12        6.368454   0.000000
 
  0.2346939E+00  0.2346939E+00  0.0000000E+00  0.6666667E-02
    1      -20.998469   1.000000
    2       -9.753224   1.000000
    3       -8.853483   1.000000
    4       -7.618838   1.000000
    5        2.300570   0.000000
    6        3.116376   0.000000
    7        3.518082   0.000000
    8        4.391743   0.000000
    9        4.857782   0.000000
   10        5.013012   0.000000
   11        5.464810   0.000000
   12        6.517904   0.000000
 
  0.2448980E+00  0.2448980E+00  0.0000000E+00  0.6666667E-02
    1      -20.884092   1.000000
    2      -10.021489   1.000000
    3       -8.720332   1.000000
    4       -7.723741   1.000000
    5        2.457783   0.000000
    6        3.271236   0.000000
    7        3.679744   0.000000
    8        4.514055   0.000000
    9        4.779941   0.000000
   10        5.009871   0.000000
   11        5.434651   0.000000
   12        6.674670   0.000000
 
  0.2551020E+00  0.2551020E+00  0.0000000E+00  0.6666667E-02
    1      -20.765035   1.000000
    2      -10.291392   1.000000
    3       -8.582229   1.000000
    4       -7.826413   1.000000
    5        2.621577   0.000000
    6        3.428625   0.000000
    7        3.848249   0.000000
    8        4.414667   0.000000
    9        4.775561   0.000000
   10        5.155401   0.000000
   11        5.416951   0.000000
   12        6.838346   0.000000
 
  0.2653061E+00  0.2653061E+00  0.0000000E+00  0.6666667E-02
    1      -20.641332   1.000000
    2      -10.562450   1.000000
    3       -8.439310   1.000000
    4       -7.926585   1.000000
    5        2.791921   0.000000
    6        3.579083   0.000000
    7        4.023579   0.000000
    8        4.175525   0.000000
    9        4.928180   0.000000
   10        5.250966   0.000000
   11        5.455553   0.000000
   12        7.008751   0.000000
 
  0.2755102E+00  0.2755102E+00  0.0000000E+00  0.6666667E-02
    1      -20.513018   1.000000
    2      -10.834252   1.000000
    3       -8.291724   1.000000
    4       -8.023999   1.000000
    5        2.968777   0.000000
    6        3.659473   0.000000
    7        3.995769   0.000000
    8        4.205694   0.000000
    9        5.102490   0.000000
   10        5.257980   0.000000
   11        5.589407   0.000000
   12        7.185778   0.000000
 
  0.2857143E+00  0.2857143E+00  0.0000000E+00  0.6666667E-02
    1      -20.380118   1.000000
    2      -11.106367   1.000000
    3       -8.139639   1.000000
    4       -8.118403   1.000000
    5        3.152096   0.000000
    6        3.504741   0.000000
    7        4.052894   0.000000
    8        4.394515   0.000000
    9        5.232648   0.000000
   10        5.286732   0.000000
   11        5.762741   0.000000
   12        7.369348   0.000000
 
  0.2959184E+00  0.2959184E+00  0.0000000E+00  0.6666667E-02
    1      -20.242682   1.000000
    2      -11.378435   1.000000
    3       -8.209590   1.000000
    4       -7.983258   1.000000
    5        3.245976   0.000000
    6        3.341802   0.000000
    7        4.218471   0.000000
    8        4.589834   0.000000
    9        5.200281   0.000000
   10        5.478864   0.000000
   11        5.950775   0.000000
   12        7.559395   0.000000
 
  0.3061224E+00  0.3061224E+00  0.0000000E+00  0.6666667E-02
    1      -20.100746   1.000000
    2      -11.650072   1.000000
    3       -8.297339   1.000000
    4       -7.822792   1.000000
    5        2.968998   0.000000
    6        3.537788   0.000000
    7        4.407991   0.000000
    8        4.790914   0.000000
    9        5.167207   0.000000
   10        5.678252   0.000000
   11        6.148304   0.000000
   12        7.755855   0.000000
 
  0.3163265E+00  0.3163265E+00  0.0000000E+00  0.6666667E-02
    1      -19.954365   1.000000
    2      -11.920965   1.000000
    3       -8.381489   1.000000
    4       -7.658551   1.000000
    5        2.687117   0.000000
    6        3.739871   0.000000
    7        4.609033   0.000000
    8        4.992017   0.000000
    9        5.141029   0.000000
   10        5.884627   0.000000
   11        6.353813   0.000000
   12        7.958657   0.000000
 
  0.3265306E+00  0.3265306E+00  0.0000000E+00  0.6666667E-02
    1      -19.803592   1.000000
    2      -12.190806   1.000000
    3       -8.461873   1.000000
    4       -7.490808   1.000000
    5        2.404063   0.000000
    6        3.947726   0.000000
    7        4.818672   0.000000
    8        5.080200   0.000000
    9        5.235808   0.000000
   10        6.097851   0.000000
   11        6.566716   0.000000
   12        8.167728   0.000000
 
  0.3367347E+00  0.3367347E+00  0.0000000E+00  0.6666667E-02
    1      -19.648515   1.000000
    2      -12.459304   1.000000
    3       -8.538361   1.000000
    4       -7.319943   1.000000
    5        2.121627   0.000000
    6        4.160674   0.000000
    7        5.035875   0.000000
    8        5.056975   0.000000
    9        5.451130   0.000000
   10        6.317836   0.000000
   11        6.786733   0.000000
   12        8.382977   0.000000
 
  0.3469388E+00  0.3469388E+00  0.0000000E+00  0.6666667E-02
    1      -19.489179   1.000000
    2      -12.726125   1.000000
    3       -8.610787   1.000000
    4       -7.146416   1.000000
    5        1.841098   0.000000
    6        4.377023   0.000000
    7        5.031561   0.000000
    8        5.260175   0.000000
    9        5.679745   0.000000
   10        6.544519   0.000000
   11        7.013713   0.000000
   12        8.604299   0.000000
 
  0.3571429E+00  0.3571429E+00  0.0000000E+00  0.6666667E-02
    1      -19.325685   1.000000
    2      -12.990984   1.000000
    3       -8.679037   1.000000
    4       -6.970737   1.000000
    5        1.563550   0.000000
    6        4.591136   0.000000
    7        5.015181   0.000000
    8        5.491313   0.000000
    9        5.916306   0.000000
   10        6.777846   0.000000
   11        7.247562   0.000000
   12        8.831562   0.000000
 
  0.3673469E+00  0.3673469E+00  0.0000000E+00  0.6666667E-02
    1      -19.158144   1.000000
    2      -13.253614   1.000000
    3       -8.743008   1.000000
    4       -6.793524   1.000000
    5        1.290046   0.000000
    6        4.776149   0.000000
    7        5.035544   0.000000
    8        5.729126   0.000000
    9        6.160101   0.000000
   10        7.017769   0.000000
   11        7.488215   0.000000
   12        9.064601   0.000000
 
  0.3775510E+00  0.3775510E+00  0.0000000E+00  0.6666667E-02
    1      -18.986683   1.000000
    2      -13.513715   1.000000
    3       -8.802598   1.000000
    4       -6.615593   1.000000
    5        1.021733   0.000000
    6        4.855232   0.000000
    7        5.169827   0.000000
    8        5.973488   0.000000
    9        6.410925   0.000000
   10        7.264235   0.000000
   11        7.735620   0.000000
   12        9.303190   0.000000
 
  0.3877551E+00  0.3877551E+00  0.0000000E+00  0.6666667E-02
    1      -18.811486   1.000000
    2      -13.770961   1.000000
    3       -8.857721   1.000000
    4       -6.437861   1.000000
    5        0.759852   0.000000
    6        4.857588   0.000000
    7        5.388982   0.000000
    8        6.224292   0.000000
    9        6.668699   0.000000
   10        7.517188   0.000000
   11        7.989730   0.000000
   12        9.547019   0.000000
 
  0.3979592E+00  0.3979592E+00  0.0000000E+00  0.6666667E-02
    1      -18.632774   1.000000
    2      -14.025007   1.000000
    3       -8.908308   1.000000
    4       -6.261506   1.000000
    5        0.505833   0.000000
    6        4.842964   0.000000
    7        5.633340   0.000000
    8        6.481436   0.000000
    9        6.933381   0.000000
   10        7.776562   0.000000
   11        8.250502   0.000000
   12        9.795613   0.000000
 
  0.4081633E+00  0.4081633E+00  0.0000000E+00  0.6666667E-02
    1      -18.450850   1.000000
    2      -14.275434   1.000000
    3       -8.954274   1.000000
    4       -6.087936   1.000000
    5        0.261369   0.000000
    6        4.825018   0.000000
    7        5.889327   0.000000
    8        6.744815   0.000000
    9        7.204946   0.000000
   10        8.042277   0.000000
   11        8.517888   0.000000
   12       10.048171   0.000000
 
  0.4183673E+00  0.4183673E+00  0.0000000E+00  0.6666667E-02
    1      -18.266132   1.000000
    2      -14.521702   1.000000
    3       -8.995545   1.000000
    4       -5.918986   1.000000
    5        0.028426   0.000000
    6        4.807094   0.000000
    7        6.153619   0.000000
    8        7.014308   0.000000
    9        7.483378   0.000000
   10        8.314225   0.000000
   11        8.791830   0.000000
   12       10.303094   0.000000
 
  0.4285714E+00  0.4285714E+00  0.0000000E+00  0.6666667E-02
    1      -18.079259   1.000000
    2      -14.763108   1.000000
    3       -9.032104   1.000000
    4       -5.756848   1.000000
    5       -0.190606   0.000000
    6        4.790364   0.000000
    7        6.425028   0.000000
    8        7.289774   0.000000
    9        7.768661   0.000000
   10        8.592257   0.000000
   11        9.072239   0.000000
   12       10.556219   0.000000
 
  0.4387755E+00  0.4387755E+00  0.0000000E+00  0.6666667E-02
    1      -17.891171   1.000000
    2      -14.998592   1.000000
    3       -9.063864   1.000000
    4       -5.604214   1.000000
    5       -0.392828   0.000000
    6        4.775372   0.000000
    7        6.702978   0.000000
    8        7.571041   0.000000
    9        8.060780   0.000000
   10        8.876136   0.000000
   11        9.358929   0.000000
   12       10.451504   0.000000
 
  0.4489796E+00  0.4489796E+00  0.0000000E+00  0.6666667E-02
    1      -17.703460   1.000000
    2      -15.226530   1.000000
    3       -9.090814   1.000000
    4       -5.464363   1.000000
    5       -0.574852   0.000000
    6        4.762424   0.000000
    7        6.987097   0.000000
    8        7.857876   0.000000
    9        8.359713   0.000000
   10        9.165418   0.000000
   11        9.650989   0.000000
   12       10.122314   0.000000
 
  0.4591837E+00  0.4591837E+00  0.0000000E+00  0.6666667E-02
    1      -17.518864   1.000000
    2      -15.444108   1.000000
    3       -9.112903   1.000000
    4       -5.341117   1.000000
    5       -0.732759   0.000000
    6        4.751655   0.000000
    7        7.277068   0.000000
    8        8.149945   0.000000
    9        8.665412   0.000000
   10        9.459002   0.000000
   11        9.783265   0.000000
   12        9.960408   0.000000
 
  0.4693878E+00  0.4693878E+00  0.0000000E+00  0.6666667E-02
    1      -17.342596   1.000000
    2      -15.646085   1.000000
    3       -9.130114   1.000000
    4       -5.238713   1.000000
    5       -0.862230   0.000000
    6        4.743179   0.000000
    7        7.572503   0.000000
    8        8.446692   0.000000
    9        8.977648   0.000000
   10        9.462043   0.000000
   11        9.752068   0.000000
   12       10.261621   0.000000
 
  0.4795918E+00  0.4795918E+00  0.0000000E+00  0.6666667E-02
    1      -17.185021   1.000000
    2      -15.822031   1.000000
    3       -9.142413   1.000000
    4       -5.161471   1.000000
    5       -0.958839   0.000000
    6        4.737104   0.000000
    7        7.872720   0.000000
    8        8.746912   0.000000
    9        9.136794   0.000000
   10        9.299670   0.000000
   11        9.945366   0.000000
   12       10.151501   0.000000
 
  0.4897959E+00  0.4897959E+00  0.0000000E+00  0.6666667E-02
    1      -17.066925   1.000000
    2      -15.951168   1.000000
    3       -9.149811   1.000000
    4       -5.113285   1.000000
    5       -1.018675   0.000000
    6        4.733422   0.000000
    7        8.175224   0.000000
    8        8.822062   0.000000
    9        9.046133   0.000000
   10        9.624256   0.000000
   11        9.697521   0.000000
   12       10.297452   0.000000
 
  0.5000000E+00  0.5000000E+00  0.0000000E+00  0.6666667E-02
    1      -17.020920   1.000000
    2      -16.000858   1.000000
    3       -9.152280   1.000000
    4       -5.096889   1.000000
    5       -1.038948   0.000000
    6        4.732209   0.000000
    7        8.419947   0.000000
    8        8.572816   0.000000
    9        9.270929   0.000000
   10        9.473745   0.000000
   11        9.952769   0.000000
   12        9.961283   0.000000
 
  0.5000000E+00  0.5000000E+00  0.0000000E+00  0.6666667E-02
    1      -17.020920   1.000000
    2      -16.000858   1.000000
    3       -9.152280   1.000000
    4       -5.096889   1.000000
    5       -1.038948   0.000000
    6        4.732209   0.000000
    7        8.419947   0.000000
    8        8.572816   0.000000
    9        9.270928   0.000000
   10        9.473744   0.000000
   11        9.952767   0.000000
   12        9.961281   0.000000
 
  0.5034014E+00  0.4965986E+00  0.0000000E+00  0.6666667E-02
    1      -17.020212   1.000000
    2      -16.000149   1.000000
    3       -9.156006   1.000000
    4       -5.095884   1.000000
    5       -1.039180   0.000000
    6        4.737244   0.000000
    7        8.420920   0.000000
    8        8.573850   0.000000
    9        9.271028   0.000000
   10        9.474880   0.000000
   11        9.953902   0.000000
   12        9.962420   0.000000
 
  0.5068027E+00  0.4931973E+00  0.0000000E+00  0.6666667E-02
    1      -17.018099   1.000000
    2      -15.998037   1.000000
    3       -9.167188   1.000000
    4       -5.092869   1.000000
    5       -1.039862   0.000000
    6        4.752332   0.000000
    7        8.423831   0.000000
    8        8.576949   0.000000
    9        9.271313   0.000000
   10        9.478288   0.000000
   11        9.957305   0.000000
   12        9.965839   0.000000
 
  0.5102041E+00  0.4897959E+00  0.0000000E+00  0.6666667E-02
    1      -17.014575   1.000000
    2      -15.994521   1.000000
    3       -9.185776   1.000000
    4       -5.087845   1.000000
    5       -1.041010   0.000000
    6        4.777425   0.000000
    7        8.428682   0.000000
    8        8.582115   0.000000
    9        9.271740   0.000000
   10        9.483968   0.000000
   11        9.962977   0.000000
   12        9.971538   0.000000
 
  0.5136055E+00  0.4863945E+00  0.0000000E+00  0.6666667E-02
    1      -17.009641   1.000000
    2      -15.989601   1.000000
    3       -9.211650   1.000000
    4       -5.080810   1.000000
    5       -1.042632   0.000000
    6        4.812421   0.000000
    7        8.435470   0.000000
    8        8.589344   0.000000
    9        9.272241   0.000000
   10        9.491920   0.000000
   11        9.970916   0.000000
   12        9.979515   0.000000
 
  0.5170068E+00  0.4829932E+00  0.0000000E+00  0.6666667E-02
    1      -17.003295   1.000000
    2      -15.983279   1.000000
    3       -9.244696   1.000000
    4       -5.071775   1.000000
    5       -1.044759   0.000000
    6        4.857181   0.000000
    7        8.444190   0.000000
    8        8.598636   0.000000
    9        9.272714   0.000000
   10        9.502143   0.000000
   11        9.981124   0.000000
   12        9.989771   0.000000
 
  0.5204082E+00  0.4795918E+00  0.0000000E+00  0.6666667E-02
    1      -16.995537   1.000000
    2      -15.975560   1.000000
    3       -9.284758   1.000000
    4       -5.060722   1.000000
    5       -1.047414   0.000000
    6        4.911543   0.000000
    7        8.454840   0.000000
    8        8.609985   0.000000
    9        9.273029   0.000000
   10        9.514639   0.000000
   11        9.993600   0.000000
   12       10.002307   0.000000
 
  0.5238096E+00  0.4761904E+00  0.0000000E+00  0.6666667E-02
    1      -16.986370   1.000000
    2      -15.966450   1.000000
    3       -9.331656   1.000000
    4       -5.047657   1.000000
    5       -1.050629   0.000000
    6        4.975297   0.000000
    7        8.467413   0.000000
    8        8.623390   0.000000
    9        9.273021   0.000000
   10        9.529406   0.000000
   11       10.008341   0.000000
   12       10.017120   0.000000
 
  0.5272109E+00  0.4727891E+00  0.0000000E+00  0.6666667E-02
    1      -16.975789   1.000000
    2      -15.955951   1.000000
    3       -9.385163   1.000000
    4       -5.032590   1.000000
    5       -1.054445   0.000000
    6        5.048226   0.000000
    7        8.481902   0.000000
    8        8.638847   0.000000
    9        9.272494   0.000000
   10        9.546444   0.000000
   11       10.025350   0.000000
   12       10.034211   0.000000
 
  0.5306123E+00  0.4693877E+00  0.0000000E+00  0.6666667E-02
    1      -16.963804   1.000000
    2      -15.944086   1.000000
    3       -9.445068   1.000000
    4       -5.015505   1.000000
    5       -1.058905   0.000000
    6        5.130050   0.000000
    7        8.498298   0.000000
    8        8.656348   0.000000
    9        9.271212   0.000000
   10        9.565754   0.000000
   11       10.044623   0.000000
   12       10.053579   0.000000
 
  0.5340137E+00  0.4659863E+00  0.0000000E+00  0.6666667E-02
    1      -16.950408   1.000000
    2      -15.930854   1.000000
    3       -9.511103   1.000000
    4       -4.996428   1.000000
    5       -1.064077   0.000000
    6        5.220493   0.000000
    7        8.516590   0.000000
    8        8.675888   0.000000
    9        9.268909   0.000000
   10        9.587334   0.000000
   11       10.066161   0.000000
   12       10.075225   0.000000
 
  0.5374150E+00  0.4625850E+00  0.0000000E+00  0.6666667E-02
    1      -16.935607   1.000000
    2      -15.916270   1.000000
    3       -9.583001   1.000000
    4       -4.975349   1.000000
    5       -1.069996   0.000000
    6        5.319265   0.000000
    7        8.536769   0.000000
    8        8.697461   0.000000
    9        9.265280   0.000000
   10        9.611185   0.000000
   11       10.089961   0.000000
   12       10.099146   0.000000
 
  0.5408164E+00  0.4591836E+00  0.0000000E+00  0.6666667E-02
    1      -16.919395   1.000000
    2      -15.900346   1.000000
    3       -9.660475   1.000000
    4       -4.952272   1.000000
    5       -1.076735   0.000000
    6        5.426045   0.000000
    7        8.558822   0.000000
    8        8.721059   0.000000
    9        9.259988   0.000000
   10        9.637306   0.000000
   11       10.116023   0.000000
   12       10.125343   0.000000
 
  0.5442178E+00  0.4557822E+00  0.0000000E+00  0.6666667E-02
    1      -16.901780   1.000000
    2      -15.883098   1.000000
    3       -9.743243   1.000000
    4       -4.927192   1.000000
    5       -1.084362   0.000000
    6        5.540489   0.000000
    7        8.582735   0.000000
    8        8.746673   0.000000
    9        9.252662   0.000000
   10        9.665697   0.000000
   11       10.144345   0.000000
   12       10.153815   0.000000
 
  0.5476191E+00  0.4523809E+00  0.0000000E+00  0.6666667E-02
    1      -16.882750   1.000000
    2      -15.864543   1.000000
    3       -9.830971   1.000000
    4       -4.900112   1.000000
    5       -1.092949   0.000000
    6        5.662282   0.000000
    7        8.608491   0.000000
    8        8.774296   0.000000
    9        9.242915   0.000000
   10        9.696358   0.000000
   11       10.174925   0.000000