       N       E                     dE             d eps       ncg     rms          rms(c)
DAV:   1     0.346177553729E+02    0.34618E+02   -0.36241E+03  3600   0.662E+02
DAV:   2    -0.148015633728E+02   -0.49419E+02   -0.38556E+02  5076   0.728E+01
DAV:   3    -0.173424856125E+02   -0.25409E+01   -0.25316E+01  4776   0.266E+01
DAV:   4    -0.173546601258E+02   -0.12175E-01   -0.12174E-01  5760   0.200E+00
DAV:   5    -0.173546826254E+02   -0.22500E-04   -0.22500E-04  4932   0.661E-02
DAV:   6    -0.173546827551E+02   -0.12968E-06   -0.12993E-06  5760   0.336E-03
DAV:   7    -0.173546827553E+02   -0.20668E-09   -0.12249E-09  5412   0.123E-04
   1 F= -.17354683E+02 E0= -.17354608E+02  d E =-.150450E-03
