<?xml version="1.0" encoding="ISO-8859-1"?>
<modeling>
 <generator>
  <i name="program" type="string">vasp </i>
  <i name="version" type="string">5.4.4.18Apr17-6-g9f103f2a35  </i>
  <i name="subversion" type="string">(build May 31 2018 21:15:54) complex            parallel </i>
  <i name="platform" type="string">c7_intel_O1 </i>
  <i name="date" type="string">2020 08 11 </i>
  <i name="time" type="string">21:53:05 </i>
 </generator>
 <incar>
  <i type="string" name="SYSTEM"> C-2</i>
  <i type="int" name="ISTART">     0</i>
  <i type="string" name="PREC">accurate</i>
  <i type="string" name="ALGO"> N</i>
  <i type="logical" name="ADDGRID"> T  </i>
  <i name="AMIN">      0.01000000</i>
  <i type="int" name="ICHARG">    11</i>
  <i type="int" name="NELMIN">     5</i>
  <i type="int" name="IBRION">    -1</i>
  <i name="EDIFF">      0.00000001</i>
  <i name="EDIFFG">     -0.00000001</i>
  <i type="int" name="NSW">     0</i>
  <i name="SYMPREC">      0.00010000</i>
  <i name="ENCUT">    800.00000000</i>
  <i type="logical" name="LREAL"> F  </i>
  <i type="int" name="ISMEAR">     0</i>
  <i name="SIGMA">      0.01000000</i>
  <i type="logical" name="LWAVE"> F  </i>
  <i type="logical" name="LCHARG"> F  </i>
  <v type="int" name="KPOINT_BSE">    -1     0     0     0</v>
 </incar>
 <structure name="primitive_cell" >
  <crystal>
   <varray name="basis" >
    <v>       2.13000000      -1.22975600       0.00000000 </v>
    <v>       2.13000000       1.22975600       0.00000000 </v>
    <v>       0.00000000       0.00000000      20.00000000 </v>
   </varray>
   <i name="volume">    104.77521120 </i>
   <varray name="rec_basis" >
    <v>       0.23474178      -0.40658472       0.00000000 </v>
    <v>       0.23474178       0.40658472       0.00000000 </v>
    <v>       0.00000000       0.00000000       0.05000000 </v>
   </varray>
  </crystal>
  <varray name="positions" >
   <v>       0.00000000       0.00000000       0.00000000 </v>
   <v>       0.33333300       0.33333300       0.00000000 </v>
  </varray>
 </structure>
 <varray name="primitive_index" >
  <v type="int" >        1 </v>
  <v type="int" >        2 </v>
 </varray>
 <kpoints>
  <generation param="listgenerated">
   <i name="divisions" type="int">      50 </i>
   <v>       0.00000000       0.00000000       0.00000000 </v>
   <v>       0.50000000       0.50000000       0.00000000 </v>
   <v>       0.66666700       0.33333300       0.00000000 </v>
   <v>      -0.00000000       0.00000000       0.00000000 </v>
  </generation>
  <varray name="kpointlist" >
   <v>       0.00000000       0.00000000       0.00000000 </v>
   <v>       0.01020408       0.01020408       0.00000000 </v>
   <v>       0.02040816       0.02040816       0.00000000 </v>
   <v>       0.03061224       0.03061224       0.00000000 </v>
   <v>       0.04081633       0.04081633       0.00000000 </v>
   <v>       0.05102041       0.05102041       0.00000000 </v>
   <v>       0.06122449       0.06122449       0.00000000 </v>
   <v>       0.07142857       0.07142857       0.00000000 </v>
   <v>       0.08163265       0.08163265       0.00000000 </v>
   <v>       0.09183673       0.09183673       0.00000000 </v>
   <v>       0.10204082       0.10204082       0.00000000 </v>
   <v>       0.11224490       0.11224490       0.00000000 </v>
   <v>       0.12244898       0.12244898       0.00000000 </v>
   <v>       0.13265306       0.13265306       0.00000000 </v>
   <v>       0.14285714       0.14285714       0.00000000 </v>
   <v>       0.15306122       0.15306122       0.00000000 </v>
   <v>       0.16326531       0.16326531       0.00000000 </v>
   <v>       0.17346939       0.17346939       0.00000000 </v>
   <v>       0.18367347       0.18367347       0.00000000 </v>
   <v>       0.19387755       0.19387755       0.00000000 </v>
   <v>       0.20408163       0.20408163       0.00000000 </v>
   <v>       0.21428571       0.21428571       0.00000000 </v>
   <v>       0.22448980       0.22448980       0.00000000 </v>
   <v>       0.23469388       0.23469388       0.00000000 </v>
   <v>       0.24489796       0.24489796       0.00000000 </v>
   <v>       0.25510204       0.25510204       0.00000000 </v>
   <v>       0.26530612       0.26530612       0.00000000 </v>
   <v>       0.27551020       0.27551020       0.00000000 </v>
   <v>       0.28571429       0.28571429       0.00000000 </v>
   <v>       0.29591837       0.29591837       0.00000000 </v>
   <v>       0.30612245       0.30612245       0.00000000 </v>
   <v>       0.31632653       0.31632653       0.00000000 </v>
   <v>       0.32653061       0.32653061       0.00000000 </v>
   <v>       0.33673469       0.33673469       0.00000000 </v>
   <v>       0.34693878       0.34693878       0.00000000 </v>
   <v>       0.35714286       0.35714286       0.00000000 </v>
   <v>       0.36734694       0.36734694       0.00000000 </v>
   <v>       0.37755102       0.37755102       0.00000000 </v>
   <v>       0.38775510       0.38775510       0.00000000 </v>
   <v>       0.39795918       0.39795918       0.00000000 </v>
   <v>       0.40816327       0.40816327       0.00000000 </v>
   <v>       0.41836735       0.41836735       0.00000000 </v>
   <v>       0.42857143       0.42857143       0.00000000 </v>
   <v>       0.43877551       0.43877551       0.00000000 </v>
   <v>       0.44897959       0.44897959       0.00000000 </v>
   <v>       0.45918367       0.45918367       0.00000000 </v>
   <v>       0.46938776       0.46938776       0.00000000 </v>
   <v>       0.47959184       0.47959184       0.00000000 </v>
   <v>       0.48979592       0.48979592       0.00000000 </v>
   <v>       0.50000000       0.50000000       0.00000000 </v>
   <v>       0.50000000       0.50000000       0.00000000 </v>
   <v>       0.50340137       0.49659863       0.00000000 </v>
   <v>       0.50680273       0.49319727       0.00000000 </v>
   <v>       0.51020410       0.48979590       0.00000000 </v>
   <v>       0.51360547       0.48639453       0.00000000 </v>
   <v>       0.51700684       0.48299316       0.00000000 </v>
   <v>       0.52040820       0.47959180       0.00000000 </v>
   <v>       0.52380957       0.47619043       0.00000000 </v>
   <v>       0.52721094       0.47278906       0.00000000 </v>
   <v>       0.53061231       0.46938769       0.00000000 </v>
   <v>       0.53401367       0.46598633       0.00000000 </v>
   <v>       0.53741504       0.46258496       0.00000000 </v>
   <v>       0.54081641       0.45918359       0.00000000 </v>
   <v>       0.54421778       0.45578222       0.00000000 </v>
   <v>       0.54761914       0.45238086       0.00000000 </v>
   <v>       0.55102051       0.44897949       0.00000000 </v>
   <v>       0.55442188       0.44557812       0.00000000 </v>
   <v>       0.55782324       0.44217676       0.00000000 </v>
   <v>       0.56122461       0.43877539       0.00000000 </v>
   <v>       0.56462598       0.43537402       0.00000000 </v>
   <v>       0.56802735       0.43197265       0.00000000 </v>
   <v>       0.57142871       0.42857129       0.00000000 </v>
   <v>       0.57483008       0.42516992       0.00000000 </v>
   <v>       0.57823145       0.42176855       0.00000000 </v>
   <v>       0.58163282       0.41836718       0.00000000 </v>
   <v>       0.58503418       0.41496582       0.00000000 </v>
   <v>       0.58843555       0.41156445       0.00000000 </v>
   <v>       0.59183692       0.40816308       0.00000000 </v>
   <v>       0.59523829       0.40476171       0.00000000 </v>
   <v>       0.59863965       0.40136035       0.00000000 </v>
   <v>       0.60204102       0.39795898       0.00000000 </v>
   <v>       0.60544239       0.39455761       0.00000000 </v>
   <v>       0.60884376       0.39115624       0.00000000 </v>
   <v>       0.61224512       0.38775488       0.00000000 </v>
   <v>       0.61564649       0.38435351       0.00000000 </v>
   <v>       0.61904786       0.38095214       0.00000000 </v>
   <v>       0.62244922       0.37755078       0.00000000 </v>
   <v>       0.62585059       0.37414941       0.00000000 </v>
   <v>       0.62925196       0.37074804       0.00000000 </v>
   <v>       0.63265333       0.36734667       0.00000000 </v>
   <v>       0.63605469       0.36394531       0.00000000 </v>
   <v>       0.63945606       0.36054394       0.00000000 </v>
   <v>       0.64285743       0.35714257       0.00000000 </v>
   <v>       0.64625880       0.35374120       0.00000000 </v>
   <v>       0.64966016       0.35033984       0.00000000 </v>
   <v>       0.65306153       0.34693847       0.00000000 </v>
   <v>       0.65646290       0.34353710       0.00000000 </v>
   <v>       0.65986427       0.34013573       0.00000000 </v>
   <v>       0.66326563       0.33673437       0.00000000 </v>
   <v>       0.66666700       0.33333300       0.00000000 </v>
   <v>       0.66666700       0.33333300       0.00000000 </v>
   <v>       0.65306155       0.32653029       0.00000000 </v>
   <v>       0.63945610       0.31972757       0.00000000 </v>
   <v>       0.62585065       0.31292486       0.00000000 </v>
   <v>       0.61224520       0.30612214       0.00000000 </v>
   <v>       0.59863976       0.29931943       0.00000000 </v>
   <v>       0.58503431       0.29251671       0.00000000 </v>
   <v>       0.57142886       0.28571400       0.00000000 </v>
   <v>       0.55782341       0.27891129       0.00000000 </v>
   <v>       0.54421796       0.27210857       0.00000000 </v>
   <v>       0.53061251       0.26530586       0.00000000 </v>
   <v>       0.51700706       0.25850314       0.00000000 </v>
   <v>       0.50340161       0.25170043       0.00000000 </v>
   <v>       0.48979616       0.24489771       0.00000000 </v>
   <v>       0.47619071       0.23809500       0.00000000 </v>
   <v>       0.46258527       0.23129229       0.00000000 </v>
   <v>       0.44897982       0.22448957       0.00000000 </v>
   <v>       0.43537437       0.21768686       0.00000000 </v>
   <v>       0.42176892       0.21088414       0.00000000 </v>
   <v>       0.40816347       0.20408143       0.00000000 </v>
   <v>       0.39455802       0.19727871       0.00000000 </v>
   <v>       0.38095257       0.19047600       0.00000000 </v>
   <v>       0.36734712       0.18367329       0.00000000 </v>
   <v>       0.35374167       0.17687057       0.00000000 </v>
   <v>       0.34013622       0.17006786       0.00000000 </v>
   <v>       0.32653078       0.16326514       0.00000000 </v>
   <v>       0.31292533       0.15646243       0.00000000 </v>
   <v>       0.29931988       0.14965971       0.00000000 </v>
   <v>       0.28571443       0.14285700       0.00000000 </v>
   <v>       0.27210898       0.13605429       0.00000000 </v>
   <v>       0.25850353       0.12925157       0.00000000 </v>
   <v>       0.24489808       0.12244886       0.00000000 </v>
   <v>       0.23129263       0.11564614       0.00000000 </v>
   <v>       0.21768718       0.10884343       0.00000000 </v>
   <v>       0.20408173       0.10204071       0.00000000 </v>
   <v>       0.19047629       0.09523800       0.00000000 </v>
   <v>       0.17687084       0.08843529       0.00000000 </v>
   <v>       0.16326539       0.08163257       0.00000000 </v>
   <v>       0.14965994       0.07482986       0.00000000 </v>
   <v>       0.13605449       0.06802714       0.00000000 </v>
   <v>       0.12244904       0.06122443       0.00000000 </v>
   <v>       0.10884359       0.05442171       0.00000000 </v>
   <v>       0.09523814       0.04761900       0.00000000 </v>
   <v>       0.08163269       0.04081629       0.00000000 </v>
   <v>       0.06802724       0.03401357       0.00000000 </v>
   <v>       0.05442180       0.02721086       0.00000000 </v>
   <v>       0.04081635       0.02040814       0.00000000 </v>
   <v>       0.02721090       0.01360543       0.00000000 </v>
   <v>       0.01360545       0.00680271       0.00000000 </v>
   <v>      -0.00000000       0.00000000       0.00000000 </v>
  </varray>
  <varray name="weights" >
   <v>       0.00666667 </v>
   <v>       0.00666667 </v>
   <v>       0.00666667 </v>
   <v>       0.00666667 </v>
   <v>       0.00666667 </v>
   <v>       0.00666667 </v>
   <v>       0.00666667 </v>
   <v>       0.00666667 </v>
   <v>       0.00666667 </v>
   <v>       0.00666667 </v>
   <v>       0.00666667 </v>
   <v>       0.00666667 </v>
   <v>       0.00666667 </v>
   <v>       0.00666667 </v>
   <v>       0.00666667 </v>
   <v>       0.00666667 </v>
   <v>       0.00666667 </v>
   <v>       0.00666667 </v>
   <v>       0.00666667 </v>
   <v>       0.00666667 </v>
   <v>       0.00666667 </v>
   <v>       0.00666667 </v>
   <v>       0.00666667 </v>
   <v>       0.00666667 </v>
   <v>       0.00666667 </v>
   <v>       0.00666667 </v>
   <v>       0.00666667 </v>
   <v>       0.00666667 </v>
   <v>       0.00666667 </v>
   <v>       0.00666667 </v>
   <v>       0.00666667 </v>
   <v>       0.00666667 </v>
   <v>       0.00666667 </v>
   <v>       0.00666667 </v>
   <v>       0.00666667 </v>
   <v>       0.00666667 </v>
   <v>       0.00666667 </v>
   <v>       0.00666667 </v>
   <v>       0.00666667 </v>
   <v>       0.00666667 </v>
   <v>       0.00666667 </v>
   <v>       0.00666667 </v>
   <v>       0.00666667 </v>
   <v>       0.00666667 </v>
   <v>       0.00666667 </v>
   <v>       0.00666667 </v>
   <v>       0.00666667 </v>
   <v>       0.00666667 </v>
   <v>       0.00666667 </v>
   <v>       0.00666667 </v>
   <v>       0.00666667 </v>
   <v>       0.00666667 </v>
   <v>       0.00666667 </v>
   <v>       0.00666667 </v>
   <v>       0.00666667 </v>
   <v>       0.00666667 </v>
   <v>       0.00666667 </v>
   <v>       0.00666667 </v>
   <v>       0.00666667 </v>
   <v>       0.00666667 </v>
   <v>       0.00666667 </v>
   <v>       0.00666667 </v>
   <v>       0.00666667 </v>
   <v>       0.00666667 </v>
   <v>       0.00666667 </v>
   <v>       0.00666667 </v>
   <v>       0.00666667 </v>
   <v>       0.00666667 </v>
   <v>       0.00666667 </v>
   <v>       0.00666667 </v>
   <v>       0.00666667 </v>
   <v>       0.00666667 </v>
   <v>       0.00666667 </v>
   <v>       0.00666667 </v>
   <v>       0.00666667 </v>
   <v>       0.00666667 </v>
   <v>       0.00666667 </v>
   <v>       0.00666667 </v>
   <v>       0.00666667 </v>
   <v>       0.00666667 </v>
   <v>       0.00666667 </v>
   <v>       0.00666667 </v>
   <v>       0.00666667 </v>
   <v>       0.00666667 </v>
   <v>       0.00666667 </v>
   <v>       0.00666667 </v>
   <v>       0.00666667 </v>
   <v>       0.00666667 </v>
   <v>       0.00666667 </v>
   <v>       0.00666667 </v>
   <v>       0.00666667 </v>
   <v>       0.00666667 </v>
   <v>       0.00666667 </v>
   <v>       0.00666667 </v>
   <v>       0.00666667 </v>
   <v>       0.00666667 </v>
   <v>       0.00666667 </v>
   <v>       0.00666667 </v>
   <v>       0.00666667 </v>
   <v>       0.00666667 </v>
   <v>       0.00666667 </v>
   <v>       0.00666667 </v>
   <v>       0.00666667 </v>
   <v>       0.00666667 </v>
   <v>       0.00666667 </v>
   <v>       0.00666667 </v>
   <v>       0.00666667 </v>
   <v>       0.00666667 </v>
   <v>       0.00666667 </v>
   <v>       0.00666667 </v>
   <v>       0.00666667 </v>
   <v>       0.00666667 </v>
   <v>       0.00666667 </v>
   <v>       0.00666667 </v>
   <v>       0.00666667 </v>
   <v>       0.00666667 </v>
   <v>       0.00666667 </v>
   <v>       0.00666667 </v>
   <v>       0.00666667 </v>
   <v>       0.00666667 </v>
   <v>       0.00666667 </v>
   <v>       0.00666667 </v>
   <v>       0.00666667 </v>
   <v>       0.00666667 </v>
   <v>       0.00666667 </v>
   <v>       0.00666667 </v>
   <v>       0.00666667 </v>
   <v>       0.00666667 </v>
   <v>       0.00666667 </v>
   <v>       0.00666667 </v>
   <v>       0.00666667 </v>
   <v>       0.00666667 </v>
   <v>       0.00666667 </v>
   <v>       0.00666667 </v>
   <v>       0.00666667 </v>
   <v>       0.00666667 </v>
   <v>       0.00666667 </v>
   <v>       0.00666667 </v>
   <v>       0.00666667 </v>
   <v>       0.00666667 </v>
   <v>       0.00666667 </v>
   <v>       0.00666667 </v>
   <v>       0.00666667 </v>
   <v>       0.00666667 </v>
   <v>       0.00666667 </v>
   <v>       0.00666667 </v>
   <v>       0.00666667 </v>
   <v>       0.00666667 </v>
   <v>       0.00666667 </v>
   <v>       0.00666667 </v>
  </varray>
 </kpoints>
 <parameters>
  <separator name="general" >
   <i type="string" name="SYSTEM">C-2</i>
   <i type="logical" name="LCOMPAT"> F  </i>
  </separator>
  <separator name="electronic" >
   <i type="string" name="PREC">accura</i>
   <i name="ENMAX">    800.00000000</i>
   <i name="ENAUG">    644.87300000</i>
   <i name="EDIFF">      0.00000001</i>
   <i type="int" name="IALGO">    38</i>
   <i type="int" name="IWAVPR">    10</i>
   <i type="int" name="NBANDS">    12</i>
   <i name="NELECT">      8.00000000</i>
   <i type="int" name="TURBO">     0</i>
   <i type="int" name="IRESTART">     0</i>
   <i type="int" name="NREBOOT">     0</i>
   <i type="int" name="NMIN">     0</i>
   <i name="EREF">      0.00000000</i>
   <separator name="electronic smearing" >
    <i type="int" name="ISMEAR">     0</i>
    <i name="SIGMA">      0.01000000</i>
    <i name="KSPACING">      0.50000000</i>
    <i type="logical" name="KGAMMA"> T  </i>
   </separator>
   <separator name="electronic projectors" >
    <i type="logical" name="LREAL"> F  </i>
    <v name="ROPT">      0.00000000</v>
    <i type="int" name="LMAXPAW">  -100</i>
    <i type="int" name="LMAXMIX">     2</i>
    <i type="logical" name="NLSPLINE"> F  </i>
   </separator>
   <separator name="electronic startup" >
    <i type="int" name="ISTART">     0</i>
    <i type="int" name="ICHARG">    11</i>
    <i type="int" name="INIWAV">     1</i>
   </separator>
   <separator name="electronic spin" >
    <i type="int" name="ISPIN">     1</i>
    <i type="logical" name="LNONCOLLINEAR"> F  </i>
    <v name="MAGMOM">      1.00000000      1.00000000</v>
    <i name="NUPDOWN">     -1.00000000</i>
    <i type="logical" name="LSORBIT"> F  </i>
    <v name="SAXIS">      0.00000000      0.00000000      1.00000000</v>
    <i type="logical" name="LSPIRAL"> F  </i>
    <v name="QSPIRAL">      0.00000000      0.00000000      0.00000000</v>
    <i type="logical" name="LZEROZ"> F  </i>
   </separator>
   <separator name="electronic exchange-correlation" >
    <i type="logical" name="LASPH"> F  </i>
    <i type="logical" name="LMETAGGA"> F  </i>
   </separator>
   <separator name="electronic convergence" >
    <i type="int" name="NELM">    60</i>
    <i type="int" name="NELMDL">    -5</i>
    <i type="int" name="NELMIN">     5</i>
    <i name="ENINI">    800.00000000</i>
    <separator name="electronic convergence detail" >
     <i type="logical" name="LDIAG"> T  </i>
     <i type="logical" name="LSUBROT"> F  </i>
     <i name="WEIMIN">      0.00000000</i>
     <i name="EBREAK">      0.00000000</i>
     <i name="DEPER">      0.30000000</i>
     <i type="int" name="NRMM">     4</i>
     <i name="TIME">      0.40000000</i>
    </separator>
   </separator>
   <separator name="electronic mixer" >
    <i name="AMIX">      0.40000000</i>
    <i name="BMIX">      1.00000000</i>
    <i name="AMIN">      0.01000000</i>
    <i name="AMIX_MAG">      1.60000000</i>
    <i name="BMIX_MAG">      1.00000000</i>
    <separator name="electronic mixer details" >
     <i type="int" name="IMIX">     4</i>
     <i type="logical" name="MIXFIRST"> F  </i>
     <i type="int" name="MAXMIX">   -45</i>
     <i name="WC">    100.00000000</i>
     <i type="int" name="INIMIX">     1</i>
     <i type="int" name="MIXPRE">     1</i>
     <i type="int" name="MREMOVE">     5</i>
    </separator>
   </separator>
   <separator name="electronic dipolcorrection" >
    <i type="logical" name="LDIPOL"> F  </i>
    <i type="logical" name="LMONO"> F  </i>
    <i type="int" name="IDIPOL">     0</i>
    <i name="EPSILON">      1.00000000</i>
    <v name="DIPOL">   -100.00000000   -100.00000000   -100.00000000</v>
    <i name="EFIELD">      0.00000000</i>
   </separator>
  </separator>
  <separator name="grids" >
   <i type="int" name="NGX">    24</i>
   <i type="int" name="NGY">    24</i>
   <i type="int" name="NGZ">   192</i>
   <i type="int" name="NGXF">    48</i>
   <i type="int" name="NGYF">    48</i>
   <i type="int" name="NGZF">   384</i>
   <i type="logical" name="ADDGRID"> T  </i>
  </separator>
  <separator name="ionic" >
   <i type="int" name="NSW">     0</i>
   <i type="int" name="IBRION">    -1</i>
   <i type="int" name="MDALGO">     0</i>
   <i type="int" name="ISIF">     2</i>
   <i name="PSTRESS">      0.00000000</i>
   <i name="EDIFFG">     -0.00000001</i>
   <i type="int" name="NFREE">     0</i>
   <i name="POTIM">      0.50000000</i>
   <i name="SMASS">     -3.00000000</i>
   <i name="SCALEE">      1.00000000</i>
  </separator>
  <separator name="ionic md" >
   <i name="TEBEG">      0.00010000</i>
   <i name="TEEND">      0.00010000</i>
   <i type="int" name="NBLOCK">     1</i>
   <i type="int" name="KBLOCK">     1</i>
   <i type="int" name="NPACO">   256</i>
   <i name="APACO">     16.00000000</i>
  </separator>
  <separator name="symmetry" >
   <i type="int" name="ISYM">     2</i>
   <i name="SYMPREC">      0.00010000</i>
  </separator>
  <separator name="dos" >
   <i type="int" name="LORBIT">     0</i>
   <v name="RWIGS">     -1.00000000</v>
   <i type="int" name="NEDOS">   301</i>
   <i name="EMIN">     10.00000000</i>
   <i name="EMAX">    -10.00000000</i>
   <i name="EFERMI">      0.00000000</i>
  </separator>
  <separator name="writing" >
   <i type="int" name="NWRITE">     2</i>
   <i type="logical" name="LWAVE"> F  </i>
   <i type="logical" name="LDOWNSAMPLE"> F  </i>
   <i type="logical" name="LCHARG"> F  </i>
   <i type="logical" name="LPARD"> F  </i>
   <i type="logical" name="LVTOT"> F  </i>
   <i type="logical" name="LVHAR"> F  </i>
   <i type="logical" name="LELF"> F  </i>
   <i type="logical" name="LOPTICS"> F  </i>
   <v name="STM">      0.00000000      0.00000000      0.00000000      0.00000000      0.00000000      0.00000000      0.00000000</v>
  </separator>
  <separator name="performance" >
   <i type="int" name="NPAR">     6</i>
   <i type="int" name="NSIM">     4</i>
   <i type="int" name="NBLK">    -1</i>
   <i type="logical" name="LPLANE"> T  </i>
   <i type="logical" name="LSCALAPACK"> T  </i>
   <i type="logical" name="LSCAAWARE"> F  </i>
   <i type="logical" name="LSCALU"> F  </i>
   <i type="logical" name="LASYNC"> F  </i>
   <i type="logical" name="LORBITALREAL"> F  </i>
  </separator>
  <separator name="miscellaneous" >
   <i type="int" name="IDIOT">     3</i>
   <i type="int" name="ISPECIAL">     0</i>
   <i type="logical" name="LMUSIC"> F  </i>
   <v name="POMASS">     12.01100000</v>
   <v name="DARWINR">      0.00000000</v>
   <v name="DARWINV">      1.00000000</v>
   <i type="logical" name="LCORR"> T  </i>
  </separator>
  <i type="logical" name="GGA_COMPAT"> T  </i>
  <i type="logical" name="LBERRY"> F  </i>
  <i type="int" name="ICORELEVEL">     0</i>
  <i type="logical" name="LDAU"> F  </i>
  <i type="int" name="I_CONSTRAINED_M">     0</i>
  <separator name="electronic exchange-correlation" >
   <i type="string" name="GGA">--</i>
   <i type="int" name="VOSKOWN">     0</i>
   <i type="logical" name="LHFCALC"> F  </i>
   <i type="string" name="PRECFOCK"></i>
   <i type="logical" name="LSYMGRAD"> F  </i>
   <i type="logical" name="LHFONE"> F  </i>
   <i type="logical" name="LRHFCALC"> F  </i>
   <i type="logical" name="LTHOMAS"> F  </i>
   <i type="logical" name="LMODELHF"> F  </i>
   <i name="ENCUT4O">     -1.00000000</i>
   <i type="int" name="EXXOEP">     0</i>
   <i type="int" name="FOURORBIT">     0</i>
   <i name="AEXX">      0.00000000</i>
   <i name="HFALPHA">      0.00000000</i>
   <i name="MCALPHA">      0.00000000</i>
   <i name="ALDAX">      1.00000000</i>
   <i name="AGGAX">      1.00000000</i>
   <i name="ALDAC">      1.00000000</i>
   <i name="AGGAC">      1.00000000</i>
   <i type="int" name="NKREDX">     1</i>
   <i type="int" name="NKREDY">     1</i>
   <i type="int" name="NKREDZ">     1</i>
   <i type="logical" name="SHIFTRED"> F  </i>
   <i type="logical" name="ODDONLY"> F  </i>
   <i type="logical" name="EVENONLY"> F  </i>
   <i type="int" name="LMAXFOCK">     0</i>
   <i type="int" name="NMAXFOCKAE">     0</i>
   <i type="logical" name="LFOCKAEDFT"> F  </i>
   <i name="HFSCREEN">      0.00000000</i>
   <i name="HFSCREENC">      0.00000000</i>
   <i type="int" name="NBANDSGWLOW">     0</i>
  </separator>
  <separator name="vdW DFT" >
   <i type="logical" name="LUSE_VDW"> F  </i>
   <i name="Zab_VDW">     -0.84910000</i>
   <i name="PARAM1">      0.12340000</i>
   <i name="PARAM2">      1.00000000</i>
   <i name="PARAM3">      0.00000000</i>
  </separator>
  <separator name="model GW" >
   <i type="int" name="MODEL_GW">     0</i>
   <i name="MODEL_EPS0">     31.43256336</i>
   <i name="MODEL_ALPHA">      1.00000000</i>
  </separator>
  <separator name="linear response parameters" >
   <i type="logical" name="LEPSILON"> F  </i>
   <i type="logical" name="LRPA"> F  </i>
   <i type="logical" name="LNABLA"> F  </i>
   <i type="logical" name="LVEL"> F  </i>
   <i type="int" name="KINTER">     0</i>
   <i name="CSHIFT">      0.10000000</i>
   <i name="OMEGAMAX">     -1.00000000</i>
   <i name="DEG_THRESHOLD">      0.00200000</i>
   <i name="RTIME">     -0.10000000</i>
   <i name="WPLASMAI">      0.00000000</i>
   <v name="DFIELD">      0.00000000      0.00000000      0.00000000</v>
   <v name="WPLASMA">      0.00000000      0.00000000      0.00000000      0.00000000      0.00000000      0.00000000      0.00000000      0.00000000      0.00000000</v>
  </separator>
  <separator name="orbital magnetization" >
   <i type="logical" name="NUCIND"> F  </i>
   <v name="MAGPOS">      0.00000000      0.00000000      0.00000000</v>
   <i type="logical" name="LNICSALL"> T  </i>
   <i type="logical" name="ORBITALMAG"> F  </i>
   <i type="logical" name="LMAGBLOCH"> F  </i>
   <i type="logical" name="LCHIMAG"> F  </i>
   <i type="logical" name="LGAUGE"> T  </i>
   <i type="int" name="MAGATOM">     0</i>
   <v name="MAGDIPOL">      0.00000000      0.00000000      0.00000000</v>
   <v name="AVECCONST">      0.00000000      0.00000000      0.00000000</v>
  </separator>
  <separator name="response functions" >
   <i type="logical" name="LADDER"> F  </i>
   <i type="logical" name="LRPAFORCE"> F  </i>
   <i type="logical" name="LFXC"> F  </i>
   <i type="logical" name="LHARTREE"> T  </i>
   <i type="int" name="IBSE">     0</i>
   <v type="int" name="KPOINT">    -1     0     0     0</v>
   <i type="logical" name="LTCTE"> F  </i>
   <i type="logical" name="LTETE"> F  </i>
   <i type="logical" name="LTRIPLET"> F  </i>
   <i type="logical" name="LFXCEPS"> F  </i>
   <i type="logical" name="LFXHEG"> F  </i>
   <i type="int" name="NATURALO">     2</i>
   <i type="logical" name="L2ORDER"> F  </i>
   <i type="logical" name="LMP2LT"> F  </i>
   <i type="logical" name="LUSEW"> F  </i>
   <i name="ENCUTGW">     -2.00000000</i>
   <i name="ENCUTGWSOFT">     -2.00000000</i>
   <i name="ENCUTLF">     -1.00000000</i>
   <i type="int" name="LMAXMP2">    -1</i>
   <i name="SCISSOR">      0.00000000</i>
   <i type="int" name="NOMEGA">     0</i>
   <i type="int" name="NOMEGAR">     0</i>
   <i type="int" name="NBANDSGW">    -1</i>
   <i type="int" name="NBANDSO">    -1</i>
   <i type="int" name="NBANDSV">    -1</i>
   <i type="int" name="NELM">     1</i>
   <i type="int" name="NELMHF">     1</i>
   <i type="int" name="DIM">     3</i>
   <i type="int" name="ANTIRES">     0</i>
   <i name="OMEGAMAX">    -30.00000000</i>
   <i name="OMEGAMIN">    -30.00000000</i>
   <i name="OMEGATL">   -200.00000000</i>
   <i type="int" name="OMEGAGRID">   140</i>
   <i name="CSHIFT">     -0.10000000</i>
   <i type="logical" name="SELFENERGY"> F  </i>
   <i type="logical" name="LSPECTRAL"> F  </i>
   <i type="logical" name="LSPECTRALGW"> F  </i>
   <i type="logical" name="LSINGLES"> F  </i>
   <i type="logical" name="LFERMIGW"> F  </i>
   <i type="logical" name="ODDONLYGW"> F  </i>
   <i type="logical" name="EVENONLYGW"> F  </i>
   <i type="int" name="NKREDLFX">     1</i>
   <i type="int" name="NKREDLFY">     1</i>
   <i type="int" name="NKREDLFZ">     1</i>
   <i type="int" name="MAXMEM">  2800</i>
   <i type="int" name="TELESCOPE">     0</i>
   <i type="int" name="TAUPAR">     1</i>
   <i type="int" name="OMEGAPAR">    -1</i>
   <i name="LAMBDA">      1.00000000</i>
  </separator>
  <separator name="External order field" >
   <i name="OFIELD_KAPPA">      0.00000000</i>
   <v name="OFIELD_K">      0.00000000      0.00000000      0.00000000</v>
   <i name="OFIELD_Q6_NEAR">      0.00000000</i>
   <i name="OFIELD_Q6_FAR">      0.00000000</i>
   <i name="OFIELD_A">      0.00000000</i>
  </separator>
 </parameters>
 <atominfo>
  <atoms>       2 </atoms>
  <types>       1 </types>
  <array name="atoms" >
   <dimension dim="1">ion</dimension>
   <field type="string">element</field>
   <field type="int">atomtype</field>
   <set>
    <rc><c>C </c><c>   1</c></rc>
    <rc><c>C </c><c>   1</c></rc>
   </set>
  </array>
  <array name="atomtypes" >
   <dimension dim="1">type</dimension>
   <field type="int">atomspertype</field>
   <field type="string">element</field>
   <field>mass</field>
   <field>valence</field>
   <field type="string">pseudopotential</field>
   <set>
    <rc><c>   2</c><c>C </c><c>     12.01100000</c><c>      4.00000000</c><c> PAW_PBE C 08Apr2002                    </c></rc>
   </set>
  </array>
 </atominfo>
 <structure name="initialpos" >
  <crystal>
   <varray name="basis" >
    <v>       2.13000000      -1.22975600       0.00000000 </v>
    <v>       2.13000000       1.22975600       0.00000000 </v>
    <v>       0.00000000       0.00000000      20.00000000 </v>
   </varray>
   <i name="volume">    104.77521120 </i>
   <varray name="rec_basis" >
    <v>       0.23474178      -0.40658472       0.00000000 </v>
    <v>       0.23474178       0.40658472       0.00000000 </v>
    <v>       0.00000000       0.00000000       0.05000000 </v>
   </varray>
  </crystal>
  <varray name="positions" >
   <v>       0.00000000       0.00000000       0.00000000 </v>
   <v>       0.33333300       0.33333300       0.00000000 </v>
  </varray>
 </structure>
 <calculation>
  <scstep>
   <time name="dav">    0.61    0.62</time>
   <time name="total">    0.65    0.67</time>
   <energy>
    <i name="alphaZ">      3.11066570 </i>
    <i name="ewald">   1303.03316907 </i>
    <i name="hartreedc">  -1550.04162380 </i>
    <i name="XCdc">     28.81788278 </i>
    <i name="pawpsdc">    139.92153390 </i>
    <i name="pawaedc">   -142.50204108 </i>
    <i name="eentropy">     -0.00013528 </i>
    <i name="bandstr">    -42.03054281 </i>
    <i name="atom">    294.30884690 </i>
    <i name="e_fr_energy">     34.61775537 </i>
    <i name="e_wo_entrp">     34.61789065 </i>
    <i name="e_0_energy">     34.61782301 </i>
   </energy>
  </scstep>
  <scstep>
   <time name="dav">    0.80    0.80</time>
   <time name="total">    0.80    0.81</time>
   <energy>
    <i name="e_fr_energy">    -14.80156337 </i>
    <i name="e_wo_entrp">    -14.80149474 </i>
    <i name="e_0_energy">    -14.80152905 </i>
   </energy>
  </scstep>
  <scstep>
   <time name="dav">    0.77    0.77</time>
   <time name="total">    0.77    0.77</time>
   <energy>
    <i name="e_fr_energy">    -17.34248561 </i>
    <i name="e_wo_entrp">    -17.34233566 </i>
    <i name="e_0_energy">    -17.34241064 </i>
   </energy>
  </scstep>
  <scstep>
   <time name="dav">    0.94    0.94</time>
   <time name="total">    0.94    0.94</time>
   <energy>
    <i name="e_fr_energy">    -17.35466013 </i>
    <i name="e_wo_entrp">    -17.35450968 </i>
    <i name="e_0_energy">    -17.35458490 </i>
   </energy>
  </scstep>
  <scstep>
   <time name="dav">    0.79    0.79</time>
   <time name="total">    0.79    0.79</time>
   <energy>
    <i name="e_fr_energy">    -17.35468263 </i>
    <i name="e_wo_entrp">    -17.35453218 </i>
    <i name="e_0_energy">    -17.35460740 </i>
   </energy>
  </scstep>
  <scstep>
   <time name="dav">    0.91    0.92</time>
   <time name="total">    0.91    0.92</time>
   <energy>
    <i name="e_fr_energy">    -17.35468276 </i>
    <i name="e_wo_entrp">    -17.35453231 </i>
    <i name="e_0_energy">    -17.35460753 </i>
   </energy>
  </scstep>
  <scstep>
   <time name="dav">    0.88    0.89</time>
   <time name="total">    0.88    0.89</time>
   <energy>
    <i name="alphaZ">      3.11066570 </i>
    <i name="ewald">   1303.03316907 </i>
    <i name="hartreedc">  -1550.04162380 </i>
    <i name="XCdc">     28.81788278 </i>
    <i name="pawpsdc">    139.92153390 </i>
    <i name="pawaedc">   -142.50204108 </i>
    <i name="eentropy">     -0.00015045 </i>
    <i name="bandstr">    -94.00296577 </i>
    <i name="atom">    294.30884690 </i>
    <i name="e_fr_energy">    -17.35468276 </i>
    <i name="e_wo_entrp">    -17.35453231 </i>
    <i name="e_0_energy">    -17.35460753 </i>
   </energy>
  </scstep>
  <structure>
   <crystal>
    <varray name="basis" >
     <v>       2.13000000      -1.22975600       0.00000000 </v>
     <v>       2.13000000       1.22975600       0.00000000 </v>
     <v>       0.00000000       0.00000000      20.00000000 </v>
    </varray>
    <i name="volume">    104.77521120 </i>
    <varray name="rec_basis" >
     <v>       0.23474178      -0.40658472       0.00000000 </v>
     <v>       0.23474178       0.40658472       0.00000000 </v>
     <v>       0.00000000       0.00000000       0.05000000 </v>
    </varray>
   </crystal>
   <varray name="positions" >
    <v>       0.00000000       0.00000000       0.00000000 </v>
    <v>       0.33333300       0.33333300       0.00000000 </v>
   </varray>
  </structure>
  <varray name="forces" >
   <v>      -0.00000000       0.00000000       0.00000000 </v>
   <v>       0.00000000      -0.00000000       0.00000000 </v>
  </varray>
  <varray name="stress" >
   <v>      29.91072586       0.00000000      -0.00000000 </v>
   <v>       0.00000000      29.91072229       0.00000000 </v>
   <v>       0.00000000       0.00000000      11.80952084 </v>
  </varray>
  <energy>
   <i name="e_fr_energy">    -17.35468276 </i>
   <i name="e_wo_entrp">    -17.35460753 </i>
   <i name="e_0_energy">     -0.00015045 </i>
  </energy>
  <time name="totalsc">    6.28    6.36</time>
  <eigenvalues>
   <array>
    <dimension dim="1">band</dimension>
    <dimension dim="2">kpoint</dimension>
    <dimension dim="3">spin</dimension>
    <field>eigene</field>
    <field>occ</field>
    <set>
     <set comment="spin 1">
      <set comment="kpoint 1">
       <r>  -22.2970    1.0000 </r>
       <r>  -10.3902    1.0000 </r>
       <r>   -5.7500    1.0000 </r>
       <r>   -5.7500    1.0000 </r>
       <r>    0.5267    0.0000 </r>
       <r>    1.3287    0.0000 </r>
       <r>    1.6977    0.0000 </r>
       <r>    2.6053    0.0000 </r>
       <r>    3.0684    0.0000 </r>
       <r>    4.7282    0.0000 </r>
       <r>    5.3501    0.0000 </r>
       <r>    5.6502    0.0000 </r>
      </set>
      <set comment="kpoint 2">
       <r>  -22.2946    1.0000 </r>
       <r>  -10.3872    1.0000 </r>
       <r>   -5.7604    1.0000 </r>
       <r>   -5.7555    1.0000 </r>
       <r>    0.5301    0.0000 </r>
       <r>    1.3321    0.0000 </r>
       <r>    1.7011    0.0000 </r>
       <r>    2.6087    0.0000 </r>
       <r>    3.0717    0.0000 </r>
       <r>    4.7315    0.0000 </r>
       <r>    5.3532    0.0000 </r>
       <r>    5.6530    0.0000 </r>
      </set>
      <set comment="kpoint 3">
       <r>  -22.2871    1.0000 </r>
       <r>  -10.3783    1.0000 </r>
       <r>   -5.7912    1.0000 </r>
       <r>   -5.7719    1.0000 </r>
       <r>    0.5401    0.0000 </r>
       <r>    1.3423    0.0000 </r>
       <r>    1.7115    0.0000 </r>
       <r>    2.6190    0.0000 </r>
       <r>    3.0819    0.0000 </r>
       <r>    4.7417    0.0000 </r>
       <r>    5.3625    0.0000 </r>
       <r>    5.6577    0.0000 </r>
      </set>
      <set comment="kpoint 4">
       <r>  -22.2748    1.0000 </r>
       <r>  -10.3635    1.0000 </r>
       <r>   -5.8423    1.0000 </r>
       <r>   -5.7990    1.0000 </r>
       <r>    0.5569    0.0000 </r>
       <r>    1.3593    0.0000 </r>
       <r>    1.7287    0.0000 </r>
       <r>    2.6360    0.0000 </r>
       <r>    3.0989    0.0000 </r>
       <r>    4.7586    0.0000 </r>
       <r>    5.3780    0.0000 </r>
       <r>    5.6668    0.0000 </r>
      </set>
      <set comment="kpoint 5">
       <r>  -22.2575    1.0000 </r>
       <r>  -10.3428    1.0000 </r>
       <r>   -5.9131    1.0000 </r>
       <r>   -5.8364    1.0000 </r>
       <r>    0.5804    0.0000 </r>
       <r>    1.3831    0.0000 </r>
       <r>    1.7528    0.0000 </r>
       <r>    2.6599    0.0000 </r>
       <r>    3.1227    0.0000 </r>
       <r>    4.7822    0.0000 </r>
       <r>    5.3995    0.0000 </r>
       <r>    5.6785    0.0000 </r>
      </set>
      <set comment="kpoint 6">
       <r>  -22.2352    1.0000 </r>
       <r>  -10.3162    1.0000 </r>
       <r>   -6.0030    1.0000 </r>
       <r>   -5.8837    1.0000 </r>
       <r>    0.6106    0.0000 </r>
       <r>    1.4137    0.0000 </r>
       <r>    1.7837    0.0000 </r>
       <r>    2.6906    0.0000 </r>
       <r>    3.1533    0.0000 </r>
       <r>    4.8126    0.0000 </r>
       <r>    5.4269    0.0000 </r>
       <r>    5.6926    0.0000 </r>
      </set>
      <set comment="kpoint 7">
       <r>  -22.2081    1.0000 </r>
       <r>  -10.2837    1.0000 </r>
       <r>   -6.1111    1.0000 </r>
       <r>   -5.9402    1.0000 </r>
       <r>    0.6475    0.0000 </r>
       <r>    1.4511    0.0000 </r>
       <r>    1.8216    0.0000 </r>
       <r>    2.7281    0.0000 </r>
       <r>    3.1907    0.0000 </r>
       <r>    4.8497    0.0000 </r>
       <r>    5.4599    0.0000 </r>
       <r>    5.7086    0.0000 </r>
      </set>
      <set comment="kpoint 8">
       <r>  -22.1759    1.0000 </r>
       <r>  -10.2453    1.0000 </r>
       <r>   -6.2365    1.0000 </r>
       <r>   -6.0053    1.0000 </r>
       <r>    0.6911    0.0000 </r>
       <r>    1.4953    0.0000 </r>
       <r>    1.8663    0.0000 </r>
       <r>    2.7725    0.0000 </r>
       <r>    3.2349    0.0000 </r>
       <r>    4.8936    0.0000 </r>
       <r>    5.4979    0.0000 </r>
       <r>    5.7262    0.0000 </r>
      </set>
      <set comment="kpoint 9">
       <r>  -22.1389    1.0000 </r>
       <r>  -10.2011    1.0000 </r>
       <r>   -6.3783    1.0000 </r>
       <r>   -6.0784    1.0000 </r>
       <r>    0.7415    0.0000 </r>
       <r>    1.5463    0.0000 </r>
       <r>    1.9180    0.0000 </r>
       <r>    2.8236    0.0000 </r>
       <r>    3.2860    0.0000 </r>
       <r>    4.9442    0.0000 </r>
       <r>    5.5396    0.0000 </r>
       <r>    5.7456    0.0000 </r>
      </set>
      <set comment="kpoint 10">
       <r>  -22.0969    1.0000 </r>
       <r>  -10.1510    1.0000 </r>
       <r>   -6.5353    1.0000 </r>
       <r>   -6.1585    1.0000 </r>
       <r>    0.7986    0.0000 </r>
       <r>    1.6041    0.0000 </r>
       <r>    1.9765    0.0000 </r>
       <r>    2.8816    0.0000 </r>
       <r>    3.3438    0.0000 </r>
       <r>    5.0015    0.0000 </r>
       <r>    5.5828    0.0000 </r>
       <r>    5.7683    0.0000 </r>
      </set>
      <set comment="kpoint 11">
       <r>  -22.0501    1.0000 </r>
       <r>  -10.0950    1.0000 </r>
       <r>   -6.7064    1.0000 </r>
       <r>   -6.2449    1.0000 </r>
       <r>    0.8623    0.0000 </r>
       <r>    1.6686    0.0000 </r>
       <r>    2.0418    0.0000 </r>
       <r>    2.9463    0.0000 </r>
       <r>    3.4084    0.0000 </r>
       <r>    5.0656    0.0000 </r>
       <r>    5.6230    0.0000 </r>
       <r>    5.7979    0.0000 </r>
      </set>
      <set comment="kpoint 12">
       <r>  -21.9983    1.0000 </r>
       <r>  -10.0333    1.0000 </r>
       <r>   -6.8906    1.0000 </r>
       <r>   -6.3369    1.0000 </r>
       <r>    0.9328    0.0000 </r>
       <r>    1.7399    0.0000 </r>
       <r>    2.1141    0.0000 </r>
       <r>    3.0179    0.0000 </r>
       <r>    3.4798    0.0000 </r>
       <r>    5.1363    0.0000 </r>
       <r>    5.6546    0.0000 </r>
       <r>    5.8397    0.0000 </r>
      </set>
      <set comment="kpoint 13">
       <r>  -21.9416    1.0000 </r>
       <r>   -9.9658    1.0000 </r>
       <r>   -7.0866    1.0000 </r>
       <r>   -6.4336    1.0000 </r>
       <r>    1.0100    0.0000 </r>
       <r>    1.8180    0.0000 </r>
       <r>    2.1933    0.0000 </r>
       <r>    3.0963    0.0000 </r>
       <r>    3.5580    0.0000 </r>
       <r>    5.2137    0.0000 </r>
       <r>    5.6738    0.0000 </r>
       <r>    5.8967    0.0000 </r>
      </set>
      <set comment="kpoint 14">
       <r>  -21.8801    1.0000 </r>
       <r>   -9.8926    1.0000 </r>
       <r>   -7.2935    1.0000 </r>
       <r>   -6.5343    1.0000 </r>
       <r>    1.0939    0.0000 </r>
       <r>    1.9029    0.0000 </r>
       <r>    2.2793    0.0000 </r>
       <r>    3.1814    0.0000 </r>
       <r>    3.6430    0.0000 </r>
       <r>    5.2978    0.0000 </r>
       <r>    5.6817    0.0000 </r>
       <r>    5.9678    0.0000 </r>
      </set>
      <set comment="kpoint 15">
       <r>  -21.8136    1.0000 </r>
       <r>   -9.8136    1.0000 </r>
       <r>   -7.5102    1.0000 </r>
       <r>   -6.6383    1.0000 </r>
       <r>    1.1845    0.0000 </r>
       <r>    1.9945    0.0000 </r>
       <r>    2.3722    0.0000 </r>
       <r>    3.2734    0.0000 </r>
       <r>    3.7347    0.0000 </r>
       <r>    5.3884    0.0000 </r>
       <r>    5.6806    0.0000 </r>
       <r>    6.0504    0.0000 </r>
      </set>
      <set comment="kpoint 16">
       <r>  -21.7423    1.0000 </r>
       <r>   -9.7289    1.0000 </r>
       <r>   -7.7356    1.0000 </r>
       <r>   -6.7448    1.0000 </r>
       <r>    1.2818    0.0000 </r>
       <r>    2.0928    0.0000 </r>
       <r>    2.4720    0.0000 </r>
       <r>    3.3721    0.0000 </r>
       <r>    3.8332    0.0000 </r>
       <r>    5.4855    0.0000 </r>
       <r>    5.6726    0.0000 </r>
       <r>    6.1425    0.0000 </r>
      </set>
      <set comment="kpoint 17">
       <r>  -21.6662    1.0000 </r>
       <r>   -9.6386    1.0000 </r>
       <r>   -7.9690    1.0000 </r>
       <r>   -6.8532    1.0000 </r>
       <r>    1.3858    0.0000 </r>
       <r>    2.1978    0.0000 </r>
       <r>    2.5787    0.0000 </r>
       <r>    3.4775    0.0000 </r>
       <r>    3.9385    0.0000 </r>
       <r>    5.5888    0.0000 </r>
       <r>    5.6588    0.0000 </r>
       <r>    6.2431    0.0000 </r>
      </set>
      <set comment="kpoint 18">
       <r>  -21.5852    1.0000 </r>
       <r>   -9.5428    1.0000 </r>
       <r>   -8.2092    1.0000 </r>
       <r>   -6.9629    1.0000 </r>
       <r>    1.4965    0.0000 </r>
       <r>    2.3096    0.0000 </r>
       <r>    2.6923    0.0000 </r>
       <r>    3.5896    0.0000 </r>
       <r>    4.0505    0.0000 </r>
       <r>    5.6401    0.0000 </r>
       <r>    5.6978    0.0000 </r>
       <r>    6.3516    0.0000 </r>
      </set>
      <set comment="kpoint 19">
       <r>  -21.4993    1.0000 </r>
       <r>   -9.4413    1.0000 </r>
       <r>   -8.4556    1.0000 </r>
       <r>   -7.0733    1.0000 </r>
       <r>    1.6139    0.0000 </r>
       <r>    2.4279    0.0000 </r>
       <r>    2.8127    0.0000 </r>
       <r>    3.7084    0.0000 </r>
       <r>    4.1692    0.0000 </r>
       <r>    5.6173    0.0000 </r>
       <r>    5.8099    0.0000 </r>
       <r>    6.3133    0.0000 </r>
      </set>
      <set comment="kpoint 20">
       <r>  -21.4087    1.0000 </r>
       <r>   -9.3345    1.0000 </r>
       <r>   -8.7072    1.0000 </r>
       <r>   -7.1839    1.0000 </r>
       <r>    1.7379    0.0000 </r>
       <r>    2.5529    0.0000 </r>
       <r>    2.9401    0.0000 </r>
       <r>    3.8338    0.0000 </r>
       <r>    4.2944    0.0000 </r>
       <r>    5.5910    0.0000 </r>
       <r>    5.9029    0.0000 </r>
       <r>    6.0980    0.0000 </r>
      </set>
      <set comment="kpoint 21">
       <r>  -21.3133    1.0000 </r>
       <r>   -9.2221    1.0000 </r>
       <r>   -8.9635    1.0000 </r>
       <r>   -7.2942    1.0000 </r>
       <r>    1.8686    0.0000 </r>
       <r>    2.6844    0.0000 </r>
       <r>    3.0743    0.0000 </r>
       <r>    3.9656    0.0000 </r>
       <r>    4.4262    0.0000 </r>
       <r>    5.5618    0.0000 </r>
       <r>    5.7768    0.0000 </r>
       <r>    6.1022    0.0000 </r>
      </set>
      <set comment="kpoint 22">
       <r>  -21.2131    1.0000 </r>
       <r>   -9.2237    1.0000 </r>
       <r>   -9.1045    1.0000 </r>
       <r>   -7.4037    1.0000 </r>
       <r>    2.0060    0.0000 </r>
       <r>    2.8223    0.0000 </r>
       <r>    3.2153    0.0000 </r>
       <r>    4.1035    0.0000 </r>
       <r>    4.5644    0.0000 </r>
       <r>    5.5304    0.0000 </r>
       <r>    5.5308    0.0000 </r>
       <r>    6.2276    0.0000 </r>
      </set>
      <set comment="kpoint 23">
       <r>  -21.1081    1.0000 </r>
       <r>   -9.4871    1.0000 </r>
       <r>   -8.9816    1.0000 </r>
       <r>   -7.5120    1.0000 </r>
       <r>    2.1500    0.0000 </r>
       <r>    2.9664    0.0000 </r>
       <r>    3.3633    0.0000 </r>
       <r>    4.2466    0.0000 </r>
       <r>    4.7085    0.0000 </r>
       <r>    5.2725    0.0000 </r>
       <r>    5.4977    0.0000 </r>
       <r>    6.3685    0.0000 </r>
      </set>
      <set comment="kpoint 24">
       <r>  -20.9985    1.0000 </r>
       <r>   -9.7532    1.0000 </r>
       <r>   -8.8535    1.0000 </r>
       <r>   -7.6188    1.0000 </r>
       <r>    2.3006    0.0000 </r>
       <r>    3.1164    0.0000 </r>
       <r>    3.5181    0.0000 </r>
       <r>    4.3917    0.0000 </r>
       <r>    4.8578    0.0000 </r>
       <r>    5.0130    0.0000 </r>
       <r>    5.4648    0.0000 </r>
       <r>    6.5179    0.0000 </r>
      </set>
      <set comment="kpoint 25">
       <r>  -20.8841    1.0000 </r>
       <r>  -10.0215    1.0000 </r>
       <r>   -8.7203    1.0000 </r>
       <r>   -7.7237    1.0000 </r>
       <r>    2.4578    0.0000 </r>
       <r>    3.2712    0.0000 </r>
       <r>    3.6797    0.0000 </r>
       <r>    4.5141    0.0000 </r>
       <r>    4.7799    0.0000 </r>
       <r>    5.0099    0.0000 </r>
       <r>    5.4347    0.0000 </r>
       <r>    6.6747    0.0000 </r>
      </set>
      <set comment="kpoint 26">
       <r>  -20.7650    1.0000 </r>
       <r>  -10.2914    1.0000 </r>
       <r>   -8.5822    1.0000 </r>
       <r>   -7.8264    1.0000 </r>
       <r>    2.6216    0.0000 </r>
       <r>    3.4286    0.0000 </r>
       <r>    3.8482    0.0000 </r>
       <r>    4.4147    0.0000 </r>
       <r>    4.7756    0.0000 </r>
       <r>    5.1554    0.0000 </r>
       <r>    5.4170    0.0000 </r>
       <r>    6.8383    0.0000 </r>
      </set>
      <set comment="kpoint 27">
       <r>  -20.6413    1.0000 </r>
       <r>  -10.5624    1.0000 </r>
       <r>   -8.4393    1.0000 </r>
       <r>   -7.9266    1.0000 </r>
       <r>    2.7919    0.0000 </r>
       <r>    3.5791    0.0000 </r>
       <r>    4.0236    0.0000 </r>
       <r>    4.1755    0.0000 </r>
       <r>    4.9282    0.0000 </r>
       <r>    5.2510    0.0000 </r>
       <r>    5.4556    0.0000 </r>
       <r>    7.0088    0.0000 </r>
      </set>
      <set comment="kpoint 28">
       <r>  -20.5130    1.0000 </r>
       <r>  -10.8343    1.0000 </r>
       <r>   -8.2917    1.0000 </r>
       <r>   -8.0240    1.0000 </r>
       <r>    2.9688    0.0000 </r>
       <r>    3.6595    0.0000 </r>
       <r>    3.9958    0.0000 </r>
       <r>    4.2057    0.0000 </r>
       <r>    5.1025    0.0000 </r>
       <r>    5.2580    0.0000 </r>
       <r>    5.5894    0.0000 </r>
       <r>    7.1858    0.0000 </r>
      </set>
      <set comment="kpoint 29">
       <r>  -20.3801    1.0000 </r>
       <r>  -11.1064    1.0000 </r>
       <r>   -8.1396    1.0000 </r>
       <r>   -8.1184    1.0000 </r>
       <r>    3.1521    0.0000 </r>
       <r>    3.5047    0.0000 </r>
       <r>    4.0529    0.0000 </r>
       <r>    4.3945    0.0000 </r>
       <r>    5.2326    0.0000 </r>
       <r>    5.2867    0.0000 </r>
       <r>    5.7627    0.0000 </r>
       <r>    7.3693    0.0000 </r>
      </set>
      <set comment="kpoint 30">
       <r>  -20.2427    1.0000 </r>
       <r>  -11.3784    1.0000 </r>
       <r>   -8.2096    1.0000 </r>
       <r>   -7.9833    1.0000 </r>
       <r>    3.2460    0.0000 </r>
       <r>    3.3418    0.0000 </r>
       <r>    4.2185    0.0000 </r>
       <r>    4.5898    0.0000 </r>
       <r>    5.2003    0.0000 </r>
       <r>    5.4789    0.0000 </r>
       <r>    5.9508    0.0000 </r>
       <r>    7.5594    0.0000 </r>
      </set>
      <set comment="kpoint 31">
       <r>  -20.1007    1.0000 </r>
       <r>  -11.6501    1.0000 </r>
       <r>   -8.2973    1.0000 </r>
       <r>   -7.8228    1.0000 </r>
       <r>    2.9690    0.0000 </r>
       <r>    3.5378    0.0000 </r>
       <r>    4.4080    0.0000 </r>
       <r>    4.7909    0.0000 </r>
       <r>    5.1672    0.0000 </r>
       <r>    5.6783    0.0000 </r>
       <r>    6.1483    0.0000 </r>
       <r>    7.7559    0.0000 </r>
      </set>
      <set comment="kpoint 32">
       <r>  -19.9544    1.0000 </r>
       <r>  -11.9210    1.0000 </r>
       <r>   -8.3815    1.0000 </r>
       <r>   -7.6586    1.0000 </r>
       <r>    2.6871    0.0000 </r>
       <r>    3.7399    0.0000 </r>
       <r>    4.6090    0.0000 </r>
       <r>    4.9920    0.0000 </r>
       <r>    5.1410    0.0000 </r>
       <r>    5.8846    0.0000 </r>
       <r>    6.3538    0.0000 </r>
       <r>    7.9587    0.0000 </r>
      </set>
      <set comment="kpoint 33">
       <r>  -19.8036    1.0000 </r>
       <r>  -12.1908    1.0000 </r>
       <r>   -8.4619    1.0000 </r>
       <r>   -7.4908    1.0000 </r>
       <r>    2.4041    0.0000 </r>
       <r>    3.9477    0.0000 </r>
       <r>    4.8187    0.0000 </r>
       <r>    5.0802    0.0000 </r>
       <r>    5.2358    0.0000 </r>
       <r>    6.0979    0.0000 </r>
       <r>    6.5667    0.0000 </r>
       <r>    8.1677    0.0000 </r>
      </set>
      <set comment="kpoint 34">
       <r>  -19.6485    1.0000 </r>
       <r>  -12.4593    1.0000 </r>
       <r>   -8.5384    1.0000 </r>
       <r>   -7.3199    1.0000 </r>
       <r>    2.1216    0.0000 </r>
       <r>    4.1607    0.0000 </r>
       <r>    5.0359    0.0000 </r>
       <r>    5.0570    0.0000 </r>
       <r>    5.4511    0.0000 </r>
       <r>    6.3178    0.0000 </r>
       <r>    6.7867    0.0000 </r>
       <r>    8.3830    0.0000 </r>
      </set>
      <set comment="kpoint 35">
       <r>  -19.4892    1.0000 </r>
       <r>  -12.7261    1.0000 </r>
       <r>   -8.6108    1.0000 </r>
       <r>   -7.1464    1.0000 </r>
       <r>    1.8411    0.0000 </r>
       <r>    4.3770    0.0000 </r>
       <r>    5.0316    0.0000 </r>
       <r>    5.2602    0.0000 </r>
       <r>    5.6797    0.0000 </r>
       <r>    6.5445    0.0000 </r>
       <r>    7.0137    0.0000 </r>
       <r>    8.6043    0.0000 </r>
      </set>
      <set comment="kpoint 36">
       <r>  -19.3257    1.0000 </r>
       <r>  -12.9910    1.0000 </r>
       <r>   -8.6790    1.0000 </r>
       <r>   -6.9707    1.0000 </r>
       <r>    1.5635    0.0000 </r>
       <r>    4.5911    0.0000 </r>
       <r>    5.0152    0.0000 </r>
       <r>    5.4913    0.0000 </r>
       <r>    5.9163    0.0000 </r>
       <r>    6.7778    0.0000 </r>
       <r>    7.2476    0.0000 </r>
       <r>    8.8316    0.0000 </r>
      </set>
      <set comment="kpoint 37">
       <r>  -19.1581    1.0000 </r>
       <r>  -13.2536    1.0000 </r>
       <r>   -8.7430    1.0000 </r>
       <r>   -6.7935    1.0000 </r>
       <r>    1.2900    0.0000 </r>
       <r>    4.7761    0.0000 </r>
       <r>    5.0355    0.0000 </r>
       <r>    5.7291    0.0000 </r>
       <r>    6.1601    0.0000 </r>
       <r>    7.0178    0.0000 </r>
       <r>    7.4882    0.0000 </r>
       <r>    9.0646    0.0000 </r>
      </set>
      <set comment="kpoint 38">
       <r>  -18.9867    1.0000 </r>
       <r>  -13.5137    1.0000 </r>
       <r>   -8.8026    1.0000 </r>
       <r>   -6.6156    1.0000 </r>
       <r>    1.0217    0.0000 </r>
       <r>    4.8552    0.0000 </r>
       <r>    5.1698    0.0000 </r>
       <r>    5.9735    0.0000 </r>
       <r>    6.4109    0.0000 </r>
       <r>    7.2642    0.0000 </r>
       <r>    7.7356    0.0000 </r>
       <r>    9.3032    0.0000 </r>
      </set>
      <set comment="kpoint 39">
       <r>  -18.8115    1.0000 </r>
       <r>  -13.7710    1.0000 </r>
       <r>   -8.8577    1.0000 </r>
       <r>   -6.4379    1.0000 </r>
       <r>    0.7599    0.0000 </r>
       <r>    4.8576    0.0000 </r>
       <r>    5.3890    0.0000 </r>
       <r>    6.2243    0.0000 </r>
       <r>    6.6687    0.0000 </r>
       <r>    7.5172    0.0000 </r>
       <r>    7.9897    0.0000 </r>
       <r>    9.5470    0.0000 </r>
      </set>
      <set comment="kpoint 40">
       <r>  -18.6328    1.0000 </r>
       <r>  -14.0250    1.0000 </r>
       <r>   -8.9083    1.0000 </r>
       <r>   -6.2615    1.0000 </r>
       <r>    0.5058    0.0000 </r>
       <r>    4.8430    0.0000 </r>
       <r>    5.6333    0.0000 </r>
       <r>    6.4814    0.0000 </r>
       <r>    6.9334    0.0000 </r>
       <r>    7.7766    0.0000 </r>
       <r>    8.2505    0.0000 </r>
       <r>    9.7956    0.0000 </r>
      </set>
      <set comment="kpoint 41">
       <r>  -18.4508    1.0000 </r>
       <r>  -14.2754    1.0000 </r>
       <r>   -8.9543    1.0000 </r>
       <r>   -6.0879    1.0000 </r>
       <r>    0.2614    0.0000 </r>
       <r>    4.8250    0.0000 </r>
       <r>    5.8893    0.0000 </r>
       <r>    6.7448    0.0000 </r>
       <r>    7.2049    0.0000 </r>
       <r>    8.0423    0.0000 </r>
       <r>    8.5179    0.0000 </r>
       <r>   10.0482    0.0000 </r>
      </set>
      <set comment="kpoint 42">
       <r>  -18.2661    1.0000 </r>
       <r>  -14.5217    1.0000 </r>
       <r>   -8.9955    1.0000 </r>
       <r>   -5.9190    1.0000 </r>
       <r>    0.0284    0.0000 </r>
       <r>    4.8071    0.0000 </r>
       <r>    6.1536    0.0000 </r>
       <r>    7.0143    0.0000 </r>
       <r>    7.4834    0.0000 </r>
       <r>    8.3142    0.0000 </r>
       <r>    8.7918    0.0000 </r>
       <r>   10.3031    0.0000 </r>
      </set>
      <set comment="kpoint 43">
       <r>  -18.0793    1.0000 </r>
       <r>  -14.7631    1.0000 </r>
       <r>   -9.0321    1.0000 </r>
       <r>   -5.7568    1.0000 </r>
       <r>   -0.1906    0.0000 </r>
       <r>    4.7904    0.0000 </r>
       <r>    6.4250    0.0000 </r>
       <r>    7.2898    0.0000 </r>
       <r>    7.7687    0.0000 </r>
       <r>    8.5923    0.0000 </r>
       <r>    9.0722    0.0000 </r>
       <r>   10.5562    0.0000 </r>
      </set>
      <set comment="kpoint 44">
       <r>  -17.8912    1.0000 </r>
       <r>  -14.9986    1.0000 </r>
       <r>   -9.0639    1.0000 </r>
       <r>   -5.6042    1.0000 </r>
       <r>   -0.3928    0.0000 </r>
       <r>    4.7754    0.0000 </r>
       <r>    6.7030    0.0000 </r>
       <r>    7.5710    0.0000 </r>
       <r>    8.0608    0.0000 </r>
       <r>    8.8761    0.0000 </r>
       <r>    9.3589    0.0000 </r>
       <r>   10.4515    0.0000 </r>
      </set>
      <set comment="kpoint 45">
       <r>  -17.7035    1.0000 </r>
       <r>  -15.2265    1.0000 </r>
       <r>   -9.0908    1.0000 </r>
       <r>   -5.4644    1.0000 </r>
       <r>   -0.5749    0.0000 </r>
       <r>    4.7624    0.0000 </r>
       <r>    6.9871    0.0000 </r>
       <r>    7.8579    0.0000 </r>
       <r>    8.3597    0.0000 </r>
       <r>    9.1654    0.0000 </r>
       <r>    9.6510    0.0000 </r>
       <r>   10.1223    0.0000 </r>
      </set>
      <set comment="kpoint 46">
       <r>  -17.5189    1.0000 </r>
       <r>  -15.4441    1.0000 </r>
       <r>   -9.1129    1.0000 </r>
       <r>   -5.3411    1.0000 </r>
       <r>   -0.7328    0.0000 </r>
       <r>    4.7517    0.0000 </r>
       <r>    7.2771    0.0000 </r>
       <r>    8.1499    0.0000 </r>
       <r>    8.6654    0.0000 </r>
       <r>    9.4590    0.0000 </r>
       <r>    9.7833    0.0000 </r>
       <r>    9.9604    0.0000 </r>
      </set>
      <set comment="kpoint 47">
       <r>  -17.3426    1.0000 </r>
       <r>  -15.6461    1.0000 </r>
       <r>   -9.1301    1.0000 </r>
       <r>   -5.2387    1.0000 </r>
       <r>   -0.8622    0.0000 </r>
       <r>    4.7432    0.0000 </r>
       <r>    7.5725    0.0000 </r>
       <r>    8.4467    0.0000 </r>
       <r>    8.9776    0.0000 </r>
       <r>    9.4620    0.0000 </r>
       <r>    9.7521    0.0000 </r>
       <r>   10.2616    0.0000 </r>
      </set>
      <set comment="kpoint 48">
       <r>  -17.1850    1.0000 </r>
       <r>  -15.8220    1.0000 </r>
       <r>   -9.1424    1.0000 </r>
       <r>   -5.1615    1.0000 </r>
       <r>   -0.9588    0.0000 </r>
       <r>    4.7371    0.0000 </r>
       <r>    7.8727    0.0000 </r>
       <r>    8.7469    0.0000 </r>
       <r>    9.1368    0.0000 </r>
       <r>    9.2997    0.0000 </r>
       <r>    9.9454    0.0000 </r>
       <r>   10.1515    0.0000 </r>
      </set>
      <set comment="kpoint 49">
       <r>  -17.0669    1.0000 </r>
       <r>  -15.9512    1.0000 </r>
       <r>   -9.1498    1.0000 </r>
       <r>   -5.1133    1.0000 </r>
       <r>   -1.0187    0.0000 </r>
       <r>    4.7334    0.0000 </r>
       <r>    8.1752    0.0000 </r>
       <r>    8.8221    0.0000 </r>
       <r>    9.0461    0.0000 </r>
       <r>    9.6243    0.0000 </r>
       <r>    9.6975    0.0000 </r>
       <r>   10.2975    0.0000 </r>
      </set>
      <set comment="kpoint 50">
       <r>  -17.0209    1.0000 </r>
       <r>  -16.0009    1.0000 </r>
       <r>   -9.1523    1.0000 </r>
       <r>   -5.0969    1.0000 </r>
       <r>   -1.0389    0.0000 </r>
       <r>    4.7322    0.0000 </r>
       <r>    8.4199    0.0000 </r>
       <r>    8.5728    0.0000 </r>
       <r>    9.2709    0.0000 </r>
       <r>    9.4737    0.0000 </r>
       <r>    9.9528    0.0000 </r>
       <r>    9.9613    0.0000 </r>
      </set>
      <set comment="kpoint 51">
       <r>  -17.0209    1.0000 </r>
       <r>  -16.0009    1.0000 </r>
       <r>   -9.1523    1.0000 </r>
       <r>   -5.0969    1.0000 </r>
       <r>   -1.0389    0.0000 </r>
       <r>    4.7322    0.0000 </r>
       <r>    8.4199    0.0000 </r>
       <r>    8.5728    0.0000 </r>
       <r>    9.2709    0.0000 </r>
       <r>    9.4737    0.0000 </r>
       <r>    9.9528    0.0000 </r>
       <r>    9.9613    0.0000 </r>
      </set>
      <set comment="kpoint 52">
       <r>  -17.0202    1.0000 </r>
       <r>  -16.0001    1.0000 </r>
       <r>   -9.1560    1.0000 </r>
       <r>   -5.0959    1.0000 </r>
       <r>   -1.0392    0.0000 </r>
       <r>    4.7372    0.0000 </r>
       <r>    8.4209    0.0000 </r>
       <r>    8.5739    0.0000 </r>
       <r>    9.2710    0.0000 </r>
       <r>    9.4749    0.0000 </r>
       <r>    9.9539    0.0000 </r>
       <r>    9.9624    0.0000 </r>
      </set>
      <set comment="kpoint 53">
       <r>  -17.0181    1.0000 </r>
       <r>  -15.9980    1.0000 </r>
       <r>   -9.1672    1.0000 </r>
       <r>   -5.0929    1.0000 </r>
       <r>   -1.0399    0.0000 </r>
       <r>    4.7523    0.0000 </r>
       <r>    8.4238    0.0000 </r>
       <r>    8.5769    0.0000 </r>
       <r>    9.2713    0.0000 </r>
       <r>    9.4783    0.0000 </r>
       <r>    9.9573    0.0000 </r>
       <r>    9.9658    0.0000 </r>
      </set>
      <set comment="kpoint 54">
       <r>  -17.0146    1.0000 </r>
       <r>  -15.9945    1.0000 </r>
       <r>   -9.1858    1.0000 </r>
       <r>   -5.0878    1.0000 </r>
       <r>   -1.0410    0.0000 </r>
       <r>    4.7774    0.0000 </r>
       <r>    8.4287    0.0000 </r>
       <r>    8.5821    0.0000 </r>
       <r>    9.2717    0.0000 </r>
       <r>    9.4840    0.0000 </r>
       <r>    9.9630    0.0000 </r>
       <r>    9.9715    0.0000 </r>
      </set>
      <set comment="kpoint 55">
       <r>  -17.0096    1.0000 </r>
       <r>  -15.9896    1.0000 </r>
       <r>   -9.2116    1.0000 </r>
       <r>   -5.0808    1.0000 </r>
       <r>   -1.0426    0.0000 </r>
       <r>    4.8124    0.0000 </r>
       <r>    8.4355    0.0000 </r>
       <r>    8.5893    0.0000 </r>
       <r>    9.2722    0.0000 </r>
       <r>    9.4919    0.0000 </r>
       <r>    9.9709    0.0000 </r>
       <r>    9.9795    0.0000 </r>
      </set>
      <set comment="kpoint 56">
       <r>  -17.0033    1.0000 </r>
       <r>  -15.9833    1.0000 </r>
       <r>   -9.2447    1.0000 </r>
       <r>   -5.0718    1.0000 </r>
       <r>   -1.0448    0.0000 </r>
       <r>    4.8572    0.0000 </r>
       <r>    8.4442    0.0000 </r>
       <r>    8.5986    0.0000 </r>
       <r>    9.2727    0.0000 </r>
       <r>    9.5021    0.0000 </r>
       <r>    9.9811    0.0000 </r>
       <r>    9.9898    0.0000 </r>
      </set>
      <set comment="kpoint 57">
       <r>  -16.9955    1.0000 </r>
       <r>  -15.9756    1.0000 </r>
       <r>   -9.2848    1.0000 </r>
       <r>   -5.0607    1.0000 </r>
       <r>   -1.0474    0.0000 </r>
       <r>    4.9115    0.0000 </r>
       <r>    8.4548    0.0000 </r>
       <r>    8.6100    0.0000 </r>
       <r>    9.2730    0.0000 </r>
       <r>    9.5146    0.0000 </r>
       <r>    9.9936    0.0000 </r>
       <r>   10.0023    0.0000 </r>
      </set>
      <set comment="kpoint 58">
       <r>  -16.9864    1.0000 </r>
       <r>  -15.9665    1.0000 </r>
       <r>   -9.3317    1.0000 </r>
       <r>   -5.0477    1.0000 </r>
       <r>   -1.0506    0.0000 </r>
       <r>    4.9753    0.0000 </r>
       <r>    8.4674    0.0000 </r>
       <r>    8.6234    0.0000 </r>
       <r>    9.2730    0.0000 </r>
       <r>    9.5294    0.0000 </r>
       <r>   10.0083    0.0000 </r>
       <r>   10.0171    0.0000 </r>
      </set>
      <set comment="kpoint 59">
       <r>  -16.9758    1.0000 </r>
       <r>  -15.9560    1.0000 </r>
       <r>   -9.3852    1.0000 </r>
       <r>   -5.0326    1.0000 </r>
       <r>   -1.0544    0.0000 </r>
       <r>    5.0482    0.0000 </r>
       <r>    8.4819    0.0000 </r>
       <r>    8.6388    0.0000 </r>
       <r>    9.2725    0.0000 </r>
       <r>    9.5464    0.0000 </r>
       <r>   10.0253    0.0000 </r>
       <r>   10.0342    0.0000 </r>
      </set>
      <set comment="kpoint 60">
       <r>  -16.9638    1.0000 </r>
       <r>  -15.9441    1.0000 </r>
       <r>   -9.4451    1.0000 </r>
       <r>   -5.0155    1.0000 </r>
       <r>   -1.0589    0.0000 </r>
       <r>    5.1301    0.0000 </r>
       <r>    8.4983    0.0000 </r>
       <r>    8.6563    0.0000 </r>
       <r>    9.2712    0.0000 </r>
       <r>    9.5658    0.0000 </r>
       <r>   10.0446    0.0000 </r>
       <r>   10.0536    0.0000 </r>
      </set>
      <set comment="kpoint 61">
       <r>  -16.9504    1.0000 </r>
       <r>  -15.9309    1.0000 </r>
       <r>   -9.5111    1.0000 </r>
       <r>   -4.9964    1.0000 </r>
       <r>   -1.0641    0.0000 </r>
       <r>    5.2205    0.0000 </r>
       <r>    8.5166    0.0000 </r>
       <r>    8.6759    0.0000 </r>
       <r>    9.2689    0.0000 </r>
       <r>    9.5873    0.0000 </r>
       <r>   10.0662    0.0000 </r>
       <r>   10.0752    0.0000 </r>
      </set>
      <set comment="kpoint 62">
       <r>  -16.9356    1.0000 </r>
       <r>  -15.9163    1.0000 </r>
       <r>   -9.5830    1.0000 </r>
       <r>   -4.9753    1.0000 </r>
       <r>   -1.0700    0.0000 </r>
       <r>    5.3193    0.0000 </r>
       <r>    8.5368    0.0000 </r>
       <r>    8.6975    0.0000 </r>
       <r>    9.2653    0.0000 </r>
       <r>    9.6112    0.0000 </r>
       <r>   10.0900    0.0000 </r>
       <r>   10.0991    0.0000 </r>
      </set>
      <set comment="kpoint 63">
       <r>  -16.9194    1.0000 </r>
       <r>  -15.9003    1.0000 </r>
       <r>   -9.6605    1.0000 </r>
       <r>   -4.9523    1.0000 </r>
       <r>   -1.0767    0.0000 </r>
       <r>    5.4260    0.0000 </r>
       <r>    8.5588    0.0000 </r>
       <r>    8.7211    0.0000 </r>
       <r>    9.2600    0.0000 </r>
       <r>    9.6373    0.0000 </r>
       <r>   10.1160    0.0000 </r>
       <r>   10.1253    0.0000 </r>
      </set>
      <set comment="kpoint 64">
       <r>  -16.9018    1.0000 </r>
       <r>  -15.8831    1.0000 </r>
       <r>   -9.7432    1.0000 </r>
       <r>   -4.9272    1.0000 </r>
       <r>   -1.0844    0.0000 </r>
       <r>    5.5405    0.0000 </r>
       <r>    8.5827    0.0000 </r>
       <r>    8.7467    0.0000 </r>
       <r>    9.2527    0.0000 </r>
       <r>    9.6657    0.0000 </r>
       <r>   10.1443    0.0000 </r>
       <r>   10.1538    0.0000 </r>
      </set>
      <set comment="kpoint 65">
       <r>  -16.8827    1.0000 </r>
       <r>  -15.8645    1.0000 </r>
       <r>   -9.8310    1.0000 </r>
       <r>   -4.9001    1.0000 </r>
       <r>   -1.0929    0.0000 </r>
       <r>    5.6623    0.0000 </r>
       <r>    8.6085    0.0000 </r>
       <r>    8.7743    0.0000 </r>
       <r>    9.2429    0.0000 </r>
       <r>    9.6964    0.0000 </r>
       <r>   10.1749    0.0000 </r>
       <r>   10.1846    0.0000 </r>
      </set>
      <set comment="kpoint 66">
       <r>  -16.8623    1.0000 </r>
       <r>  -15.8447    1.0000 </r>
       <r>   -9.9234    1.0000 </r>
       <r>   -4.8710    1.0000 </r>
       <r>   -1.1026    0.0000 </r>
       <r>    5.7911    0.0000 </r>
       <r>    8.6361    0.0000 </r>
       <r>    8.8039    0.0000 </r>
       <r>    9.2303    0.0000 </r>
       <r>    9.7293    0.0000 </r>
       <r>   10.2078    0.0000 </r>
       <r>   10.2176    0.0000 </r>
      </set>
      <set comment="kpoint 67">
       <r>  -16.8405    1.0000 </r>
       <r>  -15.8236    1.0000 </r>
       <r>  -10.0201    1.0000 </r>
       <r>   -4.8400    1.0000 </r>
       <r>   -1.1133    0.0000 </r>
       <r>    5.9264    0.0000 </r>
       <r>    8.6655    0.0000 </r>
       <r>    8.8355    0.0000 </r>
       <r>    9.2146    0.0000 </r>
       <r>    9.7645    0.0000 </r>
       <r>   10.2429    0.0000 </r>
       <r>   10.2529    0.0000 </r>
      </set>
      <set comment="kpoint 68">
       <r>  -16.8172    1.0000 </r>
       <r>  -15.8012    1.0000 </r>
       <r>  -10.1210    1.0000 </r>
       <r>   -4.8069    1.0000 </r>
       <r>   -1.1253    0.0000 </r>
       <r>    6.0681    0.0000 </r>
       <r>    8.6966    0.0000 </r>
       <r>    8.8691    0.0000 </r>
       <r>    9.1952    0.0000 </r>
       <r>    9.8020    0.0000 </r>
       <r>   10.2802    0.0000 </r>
       <r>   10.2904    0.0000 </r>
      </set>
      <set comment="kpoint 69">
       <r>  -16.7926    1.0000 </r>
       <r>  -15.7777    1.0000 </r>
       <r>  -10.2256    1.0000 </r>
       <r>   -4.7719    1.0000 </r>
       <r>   -1.1386    0.0000 </r>
       <r>    6.2156    0.0000 </r>
       <r>    8.7296    0.0000 </r>
       <r>    8.9046    0.0000 </r>
       <r>    9.1719    0.0000 </r>
       <r>    9.8417    0.0000 </r>
       <r>   10.3198    0.0000 </r>
       <r>   10.3303    0.0000 </r>
      </set>
      <set comment="kpoint 70">
       <r>  -16.7665    1.0000 </r>
       <r>  -15.7529    1.0000 </r>
       <r>  -10.3336    1.0000 </r>
       <r>   -4.7348    1.0000 </r>
       <r>   -1.1533    0.0000 </r>
       <r>    6.3686    0.0000 </r>
       <r>    8.7642    0.0000 </r>
       <r>    8.9421    0.0000 </r>
       <r>    9.1444    0.0000 </r>
       <r>    9.8837    0.0000 </r>
       <r>   10.3616    0.0000 </r>
       <r>   10.3724    0.0000 </r>
      </set>
      <set comment="kpoint 71">
       <r>  -16.7390    1.0000 </r>
       <r>  -15.7270    1.0000 </r>
       <r>  -10.4448    1.0000 </r>
       <r>   -4.6958    1.0000 </r>
       <r>   -1.1696    0.0000 </r>
       <r>    6.5268    0.0000 </r>
       <r>    8.8006    0.0000 </r>
       <r>    8.9816    0.0000 </r>
       <r>    9.1125    0.0000 </r>
       <r>    9.9280    0.0000 </r>
       <r>   10.4057    0.0000 </r>
       <r>   10.4167    0.0000 </r>
      </set>
      <set comment="kpoint 72">
       <r>  -16.7102    1.0000 </r>
       <r>  -15.7000    1.0000 </r>
       <r>  -10.5588    1.0000 </r>
       <r>   -4.6548    1.0000 </r>
       <r>   -1.1874    0.0000 </r>
       <r>    6.6897    0.0000 </r>
       <r>    8.8386    0.0000 </r>
       <r>    9.0229    0.0000 </r>
       <r>    9.0763    0.0000 </r>
       <r>    9.9745    0.0000 </r>
       <r>   10.4520    0.0000 </r>
       <r>   10.4633    0.0000 </r>
      </set>
      <set comment="kpoint 73">
       <r>  -16.6799    1.0000 </r>
       <r>  -15.6719    1.0000 </r>
       <r>  -10.6754    1.0000 </r>
       <r>   -4.6118    1.0000 </r>
       <r>   -1.2070    0.0000 </r>
       <r>    6.8569    0.0000 </r>
       <r>    8.8783    0.0000 </r>
       <r>    9.0357    0.0000 </r>
       <r>    9.0661    0.0000 </r>
       <r>   10.0233    0.0000 </r>
       <r>   10.5006    0.0000 </r>
       <r>   10.5122    0.0000 </r>
      </set>
      <set comment="kpoint 74">
       <r>  -16.6482    1.0000 </r>
       <r>  -15.6429    1.0000 </r>
       <r>  -10.7943    1.0000 </r>
       <r>   -4.5669    1.0000 </r>
       <r>   -1.2284    0.0000 </r>
       <r>    7.0280    0.0000 </r>
       <r>    8.9196    0.0000 </r>
       <r>    8.9909    0.0000 </r>
       <r>    9.1113    0.0000 </r>
       <r>   10.0744    0.0000 </r>
       <r>   10.5513    0.0000 </r>
       <r>   10.5634    0.0000 </r>
      </set>
      <set comment="kpoint 75">
       <r>  -16.6151    1.0000 </r>
       <r>  -15.6129    1.0000 </r>
       <r>  -10.9151    1.0000 </r>
       <r>   -4.5200    1.0000 </r>
       <r>   -1.2518    0.0000 </r>
       <r>    7.2026    0.0000 </r>
       <r>    8.9423    0.0000 </r>
       <r>    8.9624    0.0000 </r>
       <r>    9.1583    0.0000 </r>
       <r>   10.1277    0.0000 </r>
       <r>   10.6044    0.0000 </r>
       <r>   10.6168    0.0000 </r>
      </set>
      <set comment="kpoint 76">
       <r>  -16.5806    1.0000 </r>
       <r>  -15.5820    1.0000 </r>
       <r>  -11.0376    1.0000 </r>
       <r>   -4.4711    1.0000 </r>
       <r>   -1.2773    0.0000 </r>
       <r>    7.3803    0.0000 </r>
       <r>    8.8903    0.0000 </r>
       <r>    9.0067    0.0000 </r>
       <r>    9.2072    0.0000 </r>
       <r>   10.1833    0.0000 </r>
       <r>   10.6596    0.0000 </r>
       <r>   10.6725    0.0000 </r>
      </set>
      <set comment="kpoint 77">
       <r>  -16.5448    1.0000 </r>
       <r>  -15.5503    1.0000 </r>
       <r>  -11.1615    1.0000 </r>
       <r>   -4.4202    1.0000 </r>
       <r>   -1.3050    0.0000 </r>
       <r>    7.5606    0.0000 </r>
       <r>    8.8353    0.0000 </r>
       <r>    9.0524    0.0000 </r>
       <r>    9.2579    0.0000 </r>
       <r>   10.2412    0.0000 </r>
       <r>   10.7170    0.0000 </r>
       <r>   10.7304    0.0000 </r>
      </set>
      <set comment="kpoint 78">
       <r>  -16.5075    1.0000 </r>
       <r>  -15.5180    1.0000 </r>
       <r>  -11.2865    1.0000 </r>
       <r>   -4.3674    1.0000 </r>
       <r>   -1.3350    0.0000 </r>
       <r>    7.7430    0.0000 </r>
       <r>    8.7779    0.0000 </r>
       <r>    9.0996    0.0000 </r>
       <r>    9.3105    0.0000 </r>
       <r>   10.3013    0.0000 </r>
       <r>   10.7766    0.0000 </r>
       <r>   10.7905    0.0000 </r>
      </set>
      <set comment="kpoint 79">
       <r>  -16.4688    1.0000 </r>
       <r>  -15.4850    1.0000 </r>
       <r>  -11.4124    1.0000 </r>
       <r>   -4.3127    1.0000 </r>
       <r>   -1.3674    0.0000 </r>
       <r>    7.9269    0.0000 </r>
       <r>    8.7188    0.0000 </r>
       <r>    9.1480    0.0000 </r>
       <r>    9.3650    0.0000 </r>
       <r>   10.3636    0.0000 </r>
       <r>   10.8384    0.0000 </r>
       <r>   10.8529    0.0000 </r>
      </set>
      <set comment="kpoint 80">
       <r>  -16.4287    1.0000 </r>
       <r>  -15.4517    1.0000 </r>
       <r>  -11.5387    1.0000 </r>
       <r>   -4.2559    1.0000 </r>
       <r>   -1.4023    0.0000 </r>
       <r>    8.1118    0.0000 </r>
       <r>    8.6585    0.0000 </r>
       <r>    9.1977    0.0000 </r>
       <r>    9.4213    0.0000 </r>
       <r>   10.4283    0.0000 </r>
       <r>   10.9024    0.0000 </r>
       <r>   10.9176    0.0000 </r>
      </set>
      <set comment="kpoint 81">
       <r>  -16.3872    1.0000 </r>
       <r>  -15.4180    1.0000 </r>
       <r>  -11.6652    1.0000 </r>
       <r>   -4.1973    1.0000 </r>
       <r>   -1.4398    0.0000 </r>
       <r>    8.2969    0.0000 </r>
       <r>    8.5976    0.0000 </r>
       <r>    9.2485    0.0000 </r>
       <r>    9.4797    0.0000 </r>
       <r>   10.4952    0.0000 </r>
       <r>   10.9685    0.0000 </r>
       <r>   10.9845    0.0000 </r>
      </set>
      <set comment="kpoint 82">
       <r>  -16.3444    1.0000 </r>
       <r>  -15.3842    1.0000 </r>
       <r>  -11.7915    1.0000 </r>
       <r>   -4.1367    1.0000 </r>
       <r>   -1.4801    0.0000 </r>
       <r>    8.4815    0.0000 </r>
       <r>    8.5369    0.0000 </r>
       <r>    9.3004    0.0000 </r>
       <r>    9.5401    0.0000 </r>
       <r>   10.5643    0.0000 </r>
       <r>   11.0368    0.0000 </r>
       <r>   11.0536    0.0000 </r>
      </set>
      <set comment="kpoint 83">
       <r>  -16.3001    1.0000 </r>
       <r>  -15.3505    1.0000 </r>
       <r>  -11.9173    1.0000 </r>
       <r>   -4.0742    1.0000 </r>
       <r>   -1.5232    0.0000 </r>
       <r>    8.4768    0.0000 </r>
       <r>    8.6647    0.0000 </r>
       <r>    9.3532    0.0000 </r>
       <r>    9.6028    0.0000 </r>
       <r>   10.6358    0.0000 </r>
       <r>   11.1072    0.0000 </r>
       <r>   11.1250    0.0000 </r>
      </set>
      <set comment="kpoint 84">
       <r>  -16.2544    1.0000 </r>
       <r>  -15.3172    1.0000 </r>
       <r>  -12.0421    1.0000 </r>
       <r>   -4.0097    1.0000 </r>
       <r>   -1.5692    0.0000 </r>
       <r>    8.4179    0.0000 </r>
       <r>    8.8454    0.0000 </r>
       <r>    9.4068    0.0000 </r>
       <r>    9.6681    0.0000 </r>
       <r>   10.7094    0.0000 </r>
       <r>   11.1799    0.0000 </r>
       <r>   11.1986    0.0000 </r>
      </set>
      <set comment="kpoint 85">
       <r>  -16.2074    1.0000 </r>
       <r>  -15.2846    1.0000 </r>
       <r>  -12.1656    1.0000 </r>
       <r>   -3.9433    1.0000 </r>
       <r>   -1.6181    0.0000 </r>
       <r>    8.3608    0.0000 </r>
       <r>    9.0219    0.0000 </r>
       <r>    9.4612    0.0000 </r>
       <r>    9.7364    0.0000 </r>
       <r>   10.7853    0.0000 </r>
       <r>   11.2544    0.0000 </r>
       <r>   11.2750    0.0000 </r>
      </set>
      <set comment="kpoint 86">
       <r>  -16.1589    1.0000 </r>
       <r>  -15.2530    1.0000 </r>
       <r>  -12.2873    1.0000 </r>
       <r>   -3.8751    1.0000 </r>
       <r>   -1.6701    0.0000 </r>
       <r>    8.3058    0.0000 </r>
       <r>    9.1925    0.0000 </r>
       <r>    9.5161    0.0000 </r>
       <r>    9.8087    0.0000 </r>
       <r>   10.8635    0.0000 </r>
       <r>   11.3310    0.0000 </r>
       <r>   11.3525    0.0000 </r>
      </set>
      <set comment="kpoint 87">
       <r>  -16.1091    1.0000 </r>
       <r>  -15.2229    1.0000 </r>
       <r>  -12.4065    1.0000 </r>
       <r>   -3.8049    1.0000 </r>
       <r>   -1.7252    0.0000 </r>
       <r>    8.2534    0.0000 </r>
       <r>    9.3548    0.0000 </r>
       <r>    9.5714    0.0000 </r>
       <r>    9.8861    0.0000 </r>
       <r>   10.9439    0.0000 </r>
       <r>   11.4095    0.0000 </r>
       <r>   11.4325    0.0000 </r>
      </set>
      <set comment="kpoint 88">
       <r>  -16.0579    1.0000 </r>
       <r>  -15.1948    1.0000 </r>
       <r>  -12.5226    1.0000 </r>
       <r>   -3.7327    1.0000 </r>
       <r>   -1.7834    0.0000 </r>
       <r>    8.2039    0.0000 </r>
       <r>    9.5055    0.0000 </r>
       <r>    9.6270    0.0000 </r>
       <r>    9.9703    0.0000 </r>
       <r>   11.0266    0.0000 </r>
       <r>   11.4900    0.0000 </r>
       <r>   11.5149    0.0000 </r>
      </set>
      <set comment="kpoint 89">
       <r>  -16.0053    1.0000 </r>
       <r>  -15.1695    1.0000 </r>
       <r>  -12.6349    1.0000 </r>
       <r>   -3.6587    1.0000 </r>
       <r>   -1.8448    0.0000 </r>
       <r>    8.1577    0.0000 </r>
       <r>    9.6416    0.0000 </r>
       <r>    9.6826    0.0000 </r>
       <r>   10.0628    0.0000 </r>
       <r>   11.1115    0.0000 </r>
       <r>   11.5725    0.0000 </r>
       <r>   11.6002    0.0000 </r>
      </set>
      <set comment="kpoint 90">
       <r>  -15.9513    1.0000 </r>
       <r>  -15.1476    1.0000 </r>
       <r>  -12.7424    1.0000 </r>
       <r>   -3.5828    1.0000 </r>
       <r>   -1.9093    0.0000 </r>
       <r>    8.1151    0.0000 </r>
       <r>    9.7380    0.0000 </r>
       <r>    9.7606    0.0000 </r>
       <r>   10.1640    0.0000 </r>
       <r>   11.1987    0.0000 </r>
       <r>   11.6571    0.0000 </r>
       <r>   11.6871    0.0000 </r>
      </set>
      <set comment="kpoint 91">
       <r>  -15.8959    1.0000 </r>
       <r>  -15.1300    1.0000 </r>
       <r>  -12.8444    1.0000 </r>
       <r>   -3.5051    1.0000 </r>
       <r>   -1.9770    0.0000 </r>
       <r>    8.0762    0.0000 </r>
       <r>    9.7929    0.0000 </r>
       <r>    9.8627    0.0000 </r>
       <r>   10.2716    0.0000 </r>
       <r>   11.2881    0.0000 </r>
       <r>   11.7445    0.0000 </r>
       <r>   11.7783    0.0000 </r>
      </set>
      <set comment="kpoint 92">
       <r>  -15.8391    1.0000 </r>
       <r>  -15.1178    1.0000 </r>
       <r>  -12.9395    1.0000 </r>
       <r>   -3.4254    1.0000 </r>
       <r>   -2.0478    0.0000 </r>
       <r>    8.0413    0.0000 </r>
       <r>    9.8472    0.0000 </r>
       <r>    9.9499    0.0000 </r>
       <r>   10.3806    0.0000 </r>
       <r>   11.3798    0.0000 </r>
       <r>   11.8303    0.0000 </r>
       <r>   11.8664    0.0000 </r>
      </set>
      <set comment="kpoint 93">
       <r>  -15.7810    1.0000 </r>
       <r>  -15.1121    1.0000 </r>
       <r>  -13.0267    1.0000 </r>
       <r>   -3.3439    1.0000 </r>
       <r>   -2.1217    0.0000 </r>
       <r>    8.0105    0.0000 </r>
       <r>    9.9006    0.0000 </r>
       <r>   10.0251    0.0000 </r>
       <r>   10.4852    0.0000 </r>
       <r>   11.4737    0.0000 </r>
       <r>   11.9216    0.0000 </r>
       <r>   11.9607    0.0000 </r>
      </set>
      <set comment="kpoint 94">
       <r>  -15.7215    1.0000 </r>
       <r>  -15.1140    1.0000 </r>
       <r>  -13.1047    1.0000 </r>
       <r>   -3.2605    1.0000 </r>
       <r>   -2.1988    0.0000 </r>
       <r>    7.9838    0.0000 </r>
       <r>    9.9527    0.0000 </r>
       <r>   10.0901    0.0000 </r>
       <r>   10.5801    0.0000 </r>
       <r>   11.5698    0.0000 </r>
       <r>   12.0150    0.0000 </r>
       <r>   12.0494    0.0000 </r>
      </set>
      <set comment="kpoint 95">
       <r>  -15.6606    1.0000 </r>
       <r>  -15.1249    1.0000 </r>
       <r>  -13.1721    1.0000 </r>
       <r>   -3.1753    1.0000 </r>
       <r>   -2.2788    0.0000 </r>
       <r>    7.9614    0.0000 </r>
       <r>   10.0032    0.0000 </r>
       <r>   10.1457    0.0000 </r>
       <r>   10.6608    0.0000 </r>
       <r>   11.6682    0.0000 </r>
       <r>   12.1016    0.0000 </r>
[...]
       <r>    5.0162    0.0000 </r>
       <r>    5.6065    0.0000 </r>
       <r>    5.8310    0.0000 </r>
      </set>
      <set comment="kpoint 143">
       <r>  -22.1356    1.0000 </r>
       <r>  -10.1972    1.0000 </r>
       <r>   -6.3759    1.0000 </r>
       <r>   -6.1007    1.0000 </r>
       <r>    0.7460    0.0000 </r>
       <r>    1.5508    0.0000 </r>
       <r>    1.9225    0.0000 </r>
       <r>    2.8282    0.0000 </r>
       <r>    3.2905    0.0000 </r>
       <r>    4.9487    0.0000 </r>
       <r>    5.5482    0.0000 </r>
       <r>    5.7852    0.0000 </r>
      </set>
      <set comment="kpoint 144">
       <r>  -22.1784    1.0000 </r>
       <r>  -10.2483    1.0000 </r>
       <r>   -6.2185    1.0000 </r>
       <r>   -6.0093    1.0000 </r>
       <r>    0.6878    0.0000 </r>
       <r>    1.4919    0.0000 </r>
       <r>    1.8629    0.0000 </r>
       <r>    2.7690    0.0000 </r>
       <r>    3.2316    0.0000 </r>
       <r>    4.8902    0.0000 </r>
       <r>    5.4967    0.0000 </r>
       <r>    5.7473    0.0000 </r>
      </set>
      <set comment="kpoint 145">
       <r>  -22.2146    1.0000 </r>
       <r>  -10.2916    1.0000 </r>
       <r>   -6.0808    1.0000 </r>
       <r>   -5.9310    1.0000 </r>
       <r>    0.6386    0.0000 </r>
       <r>    1.4421    0.0000 </r>
       <r>    1.8124    0.0000 </r>
       <r>    2.7190    0.0000 </r>
       <r>    3.1817    0.0000 </r>
       <r>    4.8407    0.0000 </r>
       <r>    5.4525    0.0000 </r>
       <r>    5.7164    0.0000 </r>
      </set>
      <set comment="kpoint 146">
       <r>  -22.2443    1.0000 </r>
       <r>  -10.3271    1.0000 </r>
       <r>   -5.9647    1.0000 </r>
       <r>   -5.8663    1.0000 </r>
       <r>    0.5983    0.0000 </r>
       <r>    1.4013    0.0000 </r>
       <r>    1.7711    0.0000 </r>
       <r>    2.6781    0.0000 </r>
       <r>    3.1409    0.0000 </r>
       <r>    4.8002    0.0000 </r>
       <r>    5.4159    0.0000 </r>
       <r>    5.6919    0.0000 </r>
      </set>
      <set comment="kpoint 147">
       <r>  -22.2674    1.0000 </r>
       <r>  -10.3547    1.0000 </r>
       <r>   -5.8721    1.0000 </r>
       <r>   -5.8157    1.0000 </r>
       <r>    0.5670    0.0000 </r>
       <r>    1.3695    0.0000 </r>
       <r>    1.7390    0.0000 </r>
       <r>    2.6462    0.0000 </r>
       <r>    3.1091    0.0000 </r>
       <r>    4.7687    0.0000 </r>
       <r>    5.3872    0.0000 </r>
       <r>    5.6734    0.0000 </r>
      </set>
      <set comment="kpoint 148">
       <r>  -22.2838    1.0000 </r>
       <r>  -10.3744    1.0000 </r>
       <r>   -5.8047    1.0000 </r>
       <r>   -5.7793    1.0000 </r>
       <r>    0.5446    0.0000 </r>
       <r>    1.3469    0.0000 </r>
       <r>    1.7161    0.0000 </r>
       <r>    2.6235    0.0000 </r>
       <r>    3.0865    0.0000 </r>
       <r>    4.7462    0.0000 </r>
       <r>    5.3666    0.0000 </r>
       <r>    5.6604    0.0000 </r>
      </set>
      <set comment="kpoint 149">
       <r>  -22.2937    1.0000 </r>
       <r>  -10.3862    1.0000 </r>
       <r>   -5.7638    1.0000 </r>
       <r>   -5.7573    1.0000 </r>
       <r>    0.5312    0.0000 </r>
       <r>    1.3333    0.0000 </r>
       <r>    1.7023    0.0000 </r>
       <r>    2.6099    0.0000 </r>
       <r>    3.0729    0.0000 </r>
       <r>    4.7327    0.0000 </r>
       <r>    5.3543    0.0000 </r>
       <r>    5.6534    0.0000 </r>
      </set>
      <set comment="kpoint 150">
       <r>  -22.2970    1.0000 </r>
       <r>  -10.3902    1.0000 </r>
       <r>   -5.7500    1.0000 </r>
       <r>   -5.7500    1.0000 </r>
       <r>    0.5267    0.0000 </r>
       <r>    1.3287    0.0000 </r>
       <r>    1.6977    0.0000 </r>
       <r>    2.6053    0.0000 </r>
       <r>    3.0684    0.0000 </r>
       <r>    4.7282    0.0000 </r>
       <r>    5.3501    0.0000 </r>
       <r>    5.6501    0.0000 </r>
      </set>
     </set>
    </set>
   </array>
  </eigenvalues>
  <separator name="orbital magnetization" >
   <v name="MAGDIPOLOUT">      0.00000000      0.00000000      0.00000000</v>
  </separator>
  <dos>
   <i name="efermi">     -2.72177105 </i>
   <total>
    <array>
     <dimension dim="1">gridpoints</dimension>
     <dimension dim="2">spin</dimension>
     <field>energy</field>
     <field>total</field>
     <field>integrated</field>
     <set>
      <set comment="spin 1">
       <r>   -24.0453     0.0000     0.0000 </r>
       <r>   -23.9171     0.0000     0.0000 </r>
       <r>   -23.7889     0.0000     0.0000 </r>
       <r>   -23.6607     0.0000     0.0000 </r>
       <r>   -23.5325     0.0000     0.0000 </r>
       <r>   -23.4043     0.0000     0.0000 </r>
       <r>   -23.2761     0.0000     0.0000 </r>
       <r>   -23.1479     0.0000     0.0000 </r>
       <r>   -23.0197     0.0000     0.0000 </r>
       <r>   -22.8914     0.0000     0.0000 </r>
       <r>   -22.7632     0.0000     0.0000 </r>
       <r>   -22.6350     0.0000     0.0000 </r>
       <r>   -22.5068     0.0000     0.0000 </r>
       <r>   -22.3786     0.0000     0.0000 </r>
       <r>   -22.2504     0.9404     0.1206 </r>
       <r>   -22.1222     0.4121     0.2262 </r>
       <r>   -21.9940     0.2838     0.2897 </r>
       <r>   -21.8658     0.3097     0.3464 </r>
       <r>   -21.7376     0.2558     0.3928 </r>
       <r>   -21.6094     0.2080     0.4267 </r>
       <r>   -21.4812     0.2075     0.4666 </r>
       <r>   -21.3530     0.1351     0.4973 </r>
       <r>   -21.2248     0.1019     0.5331 </r>
       <r>   -21.0965     0.2022     0.5726 </r>
       <r>   -20.9683     0.2077     0.6000 </r>
       <r>   -20.8401     0.2063     0.6264 </r>
       <r>   -20.7119     0.1789     0.6496 </r>
       <r>   -20.5837     0.1075     0.6671 </r>
       <r>   -20.4555     0.1040     0.6933 </r>
       <r>   -20.3273     0.1040     0.7200 </r>
       <r>   -20.1991     0.2080     0.7467 </r>
       <r>   -20.0709     0.2080     0.7733 </r>
       <r>   -19.9427     0.1018     0.7864 </r>
       <r>   -19.8145     0.0064     0.8008 </r>
       <r>   -19.6863     0.1040     0.8267 </r>
       <r>   -19.5581     0.1023     0.8531 </r>
       <r>   -19.4299     0.1040     0.8667 </r>
       <r>   -19.3016     0.1040     0.8933 </r>
       <r>   -19.1734     0.1055     0.9069 </r>
       <r>   -19.0452     0.0000     0.9200 </r>
       <r>   -18.9170     0.1040     0.9467 </r>
       <r>   -18.7888     0.1878     0.9708 </r>
       <r>   -18.6606     0.0000     0.9733 </r>
       <r>   -18.5324     0.1040     1.0000 </r>
       <r>   -18.4042     0.1040     1.0133 </r>
       <r>   -18.2760     0.0085     1.0278 </r>
       <r>   -18.1478     0.0970     1.0524 </r>
       <r>   -18.0196     0.1040     1.0667 </r>
       <r>   -17.8914     0.1548     1.0865 </r>
       <r>   -17.7632     0.0000     1.0933 </r>
       <r>   -17.6350     0.2080     1.1200 </r>
       <r>   -17.5067     0.0996     1.1328 </r>
       <r>   -17.3785     0.0000     1.1467 </r>
       <r>   -17.2503     0.0700     1.1690 </r>
       <r>   -17.1221     0.1040     1.1867 </r>
       <r>   -16.9939     1.0016     1.3151 </r>
       <r>   -16.8657     0.4480     1.4308 </r>
       <r>   -16.7375     0.4769     1.5145 </r>
       <r>   -16.6093     0.2907     1.5706 </r>
       <r>   -16.4811     0.3162     1.6272 </r>
       <r>   -16.3529     0.2198     1.6682 </r>
       <r>   -16.2247     0.2087     1.7201 </r>
       <r>   -16.0965     0.2520     1.7656 </r>
       <r>   -15.9683     0.9658     1.9105 </r>
       <r>   -15.8401     0.7494     2.0827 </r>
       <r>   -15.7119     0.5142     2.1993 </r>
       <r>   -15.5836     0.5605     2.3119 </r>
       <r>   -15.4554     0.5542     2.4044 </r>
       <r>   -15.3272     0.6879     2.5282 </r>
       <r>   -15.1990     0.5845     2.6349 </r>
       <r>   -15.0708     0.7283     2.7734 </r>
       <r>   -14.9426     0.1040     2.8000 </r>
       <r>   -14.8144     0.0000     2.8133 </r>
       <r>   -14.6862     0.2080     2.8400 </r>
       <r>   -14.5580     0.1040     2.8533 </r>
       <r>   -14.4298     0.0056     2.8674 </r>
       <r>   -14.3016     0.0000     2.8800 </r>
       <r>   -14.1734     0.1040     2.9067 </r>
       <r>   -14.0452     0.1042     2.9200 </r>
       <r>   -13.9170     0.0000     2.9333 </r>
       <r>   -13.7887     0.0006     2.9467 </r>
       <r>   -13.6605     0.1040     2.9733 </r>
       <r>   -13.5323     0.0005     2.9734 </r>
       <r>   -13.4041     0.0000     3.0000 </r>
       <r>   -13.2759     0.6526     3.0837 </r>
       <r>   -13.1477     0.2015     3.1592 </r>
       <r>   -13.0195     0.1920     3.2113 </r>
       <r>   -12.8913     0.3102     3.2664 </r>
       <r>   -12.7631     0.1037     3.2933 </r>
       <r>   -12.6349     0.1812     3.3432 </r>
       <r>   -12.5067     0.1027     3.3732 </r>
       <r>   -12.3785     0.1040     3.4267 </r>
       <r>   -12.2503     0.3046     3.4657 </r>
       <r>   -12.1221     0.2753     3.5020 </r>
       <r>   -11.9938     0.2080     3.5333 </r>
       <r>   -11.8656     0.3120     3.5733 </r>
       <r>   -11.7374     0.3115     3.6133 </r>
       <r>   -11.6092     0.2080     3.6400 </r>
       <r>   -11.4810     0.1040     3.6800 </r>
       <r>   -11.3528     0.3155     3.7205 </r>
       <r>   -11.2246     0.1040     3.7467 </r>
       <r>   -11.0964     0.3880     3.7964 </r>
       <r>   -10.9682     0.1276     3.8164 </r>
       <r>   -10.8400     0.2295     3.8561 </r>
       <r>   -10.7118     0.1040     3.8933 </r>
       <r>   -10.5836     0.1042     3.9200 </r>
       <r>   -10.4554     0.0070     3.9609 </r>
       <r>   -10.3272     1.2713     4.1363 </r>
       <r>   -10.1989     0.4178     4.2536 </r>
       <r>   -10.0707     0.5765     4.3539 </r>
       <r>    -9.9425     0.4163     4.4267 </r>
       <r>    -9.8143     0.4562     4.5252 </r>
       <r>    -9.6861     0.4948     4.5968 </r>
       <r>    -9.5579     0.3136     4.6669 </r>
       <r>    -9.4297     0.4093     4.7591 </r>
       <r>    -9.3015     0.3129     4.8268 </r>
       <r>    -9.1733     0.5372     4.9355 </r>
       <r>    -9.0451     0.5687     5.1129 </r>
       <r>    -8.9169     0.5317     5.2015 </r>
       <r>    -8.7887     0.6214     5.2930 </r>
       <r>    -8.6605     0.4155     5.3599 </r>
       <r>    -8.5323     0.4036     5.4251 </r>
       <r>    -8.4041     0.3853     5.4894 </r>
       <r>    -8.2758     0.4146     5.5598 </r>
       <r>    -8.1476     0.4294     5.6151 </r>
       <r>    -8.0194     0.1812     5.6632 </r>
       <r>    -7.8912     0.2080     5.7333 </r>
       <r>    -7.7630     0.4160     5.8000 </r>
       <r>    -7.6348     0.1059     5.8402 </r>
       <r>    -7.5066     0.1545     5.9131 </r>
       <r>    -7.3784     0.3919     5.9836 </r>
       <r>    -7.2502     0.3135     6.0269 </r>
       <r>    -7.1220     0.3120     6.0933 </r>
       <r>    -6.9938     0.2972     6.1448 </r>
       <r>    -6.8656     0.3161     6.2139 </r>
       <r>    -6.7374     0.4101     6.2792 </r>
       <r>    -6.6092     0.1892     6.3309 </r>
       <r>    -6.4809     0.3120     6.4000 </r>
       <r>    -6.3527     0.2215     6.4684 </r>
       <r>    -6.2245     0.3280     6.5487 </r>
       <r>    -6.0963     0.4003     6.6247 </r>
       <r>    -5.9681     0.3446     6.7109 </r>
       <r>    -5.8399     0.7218     6.8392 </r>
       <r>    -5.7117     1.2480     7.0533 </r>
       <r>    -5.5835     0.2078     7.0800 </r>
       <r>    -5.4553     0.0936     7.0920 </r>
       <r>    -5.3271     0.1015     7.1197 </r>
       <r>    -5.1989     0.1055     7.1335 </r>
       <r>    -5.0707     0.7860     7.2608 </r>
       <r>    -4.9425     0.4820     7.3685 </r>
       <r>    -4.8143     0.2235     7.4287 </r>
       <r>    -4.6860     0.3033     7.4922 </r>
       <r>    -4.5578     0.1976     7.5320 </r>
       <r>    -4.4296     0.2176     7.5746 </r>
       <r>    -4.3014     0.2022     7.6126 </r>
       <r>    -4.1732     0.2080     7.6533 </r>
       <r>    -4.0450     0.1040     7.6800 </r>
       <r>    -3.9168     0.1040     7.7200 </r>
       <r>    -3.7886     0.1068     7.7470 </r>
       <r>    -3.6604     0.1464     7.7788 </r>
       <r>    -3.5322     0.2077     7.8133 </r>
       <r>    -3.4040     0.1039     7.8400 </r>
       <r>    -3.2758     0.2096     7.8669 </r>
       <r>    -3.1476     0.1040     7.8933 </r>
       <r>    -3.0194     0.1042     7.9200 </r>
       <r>    -2.8911     0.2073     7.9599 </r>
       <r>    -2.7629     0.1040     7.9733 </r>
       <r>    -2.6347     0.0171     8.0289 </r>
       <r>    -2.5065     0.2079     8.0666 </r>
       <r>    -2.3783     0.1050     8.0801 </r>
       <r>    -2.2501     0.2080     8.1200 </r>
       <r>    -2.1219     0.1884     8.1442 </r>
       <r>    -1.9937     0.1049     8.1735 </r>
       <r>    -1.8655     0.2082     8.2134 </r>
       <r>    -1.7373     0.1085     8.2406 </r>
       <r>    -1.6091     0.3015     8.2920 </r>
       <r>    -1.4809     0.1515     8.3261 </r>
       <r>    -1.3527     0.2067     8.3865 </r>
       <r>    -1.2245     0.3072     8.4527 </r>
       <r>    -1.0963     0.6423     8.5757 </r>
       <r>    -0.9680     1.0425     8.8137 </r>
       <r>    -0.8398     0.1039     8.8400 </r>
       <r>    -0.7116     0.2076     8.8666 </r>
       <r>    -0.5834     0.0117     8.8682 </r>
       <r>    -0.4552     0.1039     8.8933 </r>
       <r>    -0.3270     0.1040     8.9067 </r>
       <r>    -0.1988     0.1166     8.9216 </r>
       <r>    -0.0706     0.0000     8.9333 </r>
       <r>     0.0576     0.2041     8.9595 </r>
       <r>     0.1858     0.0000     8.9600 </r>
       <r>     0.3140     0.1519     8.9795 </r>
       <r>     0.4422     0.0000     8.9867 </r>
       <r>     0.5704     0.9093     9.1032 </r>
       <r>     0.6986     0.3945     9.2106 </r>
       <r>     0.8269     0.3093     9.2797 </r>
       <r>     0.9551     0.2083     9.3334 </r>
       <r>     1.0833     0.3171     9.3873 </r>
       <r>     1.2115     0.3120     9.4400 </r>
       <r>     1.3397     0.7349     9.5342 </r>
       <r>     1.4679     0.6231     9.6932 </r>
       <r>     1.5961     0.4302     9.7885 </r>
       <r>     1.7243     0.9634     9.9502 </r>
       <r>     1.8525     0.7337    10.1341 </r>
       <r>     1.9807     0.5212    10.2535 </r>
       <r>     2.1089     0.5448    10.3765 </r>
       <r>     2.2371     0.3132    10.4801 </r>
       <r>     2.3653     0.6232    10.5866 </r>
       <r>     2.4935     0.5200    10.6800 </r>
       <r>     2.6218     0.9008    10.8088 </r>
       <r>     2.7500     0.9360    11.0133 </r>
       <r>     2.8782     0.5331    11.1350 </r>
       <r>     3.0064     0.8380    11.2808 </r>
       <r>     3.1346     1.5160    11.5010 </r>
       <r>     3.2628     0.8150    11.6912 </r>
       <r>     3.3910     0.9357    11.8666 </r>
       <r>     3.5192     0.5966    11.9831 </r>
       <r>     3.6474     0.4968    12.1304 </r>
       <r>     3.7756     0.7255    12.2530 </r>
       <r>     3.9038     0.5246    12.3339 </r>
       <r>     4.0320     0.4764    12.4611 </r>
       <r>     4.1602     0.5542    12.5777 </r>
       <r>     4.2884     0.5235    12.6938 </r>
       <r>     4.4167     0.8228    12.8122 </r>
       <r>     4.5449     0.2519    12.8856 </r>
       <r>     4.6731     0.3120    12.9867 </r>
       <r>     4.8013     2.9113    13.3866 </r>
       <r>     4.9295     0.9973    13.6479 </r>
       <r>     5.0577     1.3300    13.8638 </r>
       <r>     5.1859     0.7150    14.0650 </r>
       <r>     5.3141     1.0627    14.2696 </r>
       <r>     5.4423     1.5547    14.5593 </r>
       <r>     5.5705     1.1352    14.8255 </r>
       <r>     5.6987     3.0419    15.3100 </r>
       <r>     5.8269     1.0127    15.5432 </r>
       <r>     5.9551     1.5104    15.7670 </r>
       <r>     6.0833     0.5227    15.8937 </r>
       <r>     6.2115     1.0401    16.0933 </r>
       <r>     6.3398     0.4509    16.2311 </r>
       <r>     6.4680     0.6943    16.4090 </r>
       <r>     6.5962     0.6469    16.5096 </r>
       <r>     6.7244     0.9004    16.6488 </r>
       <r>     6.8526     0.4415    16.7233 </r>
       <r>     6.9808     0.4294    16.8151 </r>
       <r>     7.1090     0.1313    16.9368 </r>
       <r>     7.2372     0.4240    17.0144 </r>
       <r>     7.3654     0.3438    17.1374 </r>
       <r>     7.4936     0.4954    17.2235 </r>
       <r>     7.6218     0.6242    17.3467 </r>
       <r>     7.7500     0.5849    17.4350 </r>
       <r>     7.8782     0.1955    17.5184 </r>
       <r>     8.0064     1.5541    17.8126 </r>
       <r>     8.1347     0.5213    17.9735 </r>
       <r>     8.2629     0.4096    18.0792 </r>
       <r>     8.3911     0.6109    18.2250 </r>
       <r>     8.5193     1.0647    18.4698 </r>
       <r>     8.6475     1.9832    18.7743 </r>
       <r>     8.7757     0.9270    19.0122 </r>
       <r>     8.9039     1.2732    19.2432 </r>
       <r>     9.0321     0.8990    19.4219 </r>
       <r>     9.1603     0.9199    19.6513 </r>
       <r>     9.2885     2.3445    20.0339 </r>
       <r>     9.4167     0.7446    20.2021 </r>
       <r>     9.5449     1.4396    20.4512 </r>
       <r>     9.6731     1.0995    20.6876 </r>
       <r>     9.8013     1.1735    20.8838 </r>
       <r>     9.9296     0.7910    21.0614 </r>
       <r>    10.0578     1.7025    21.5249 </r>
       <r>    10.1860     1.7308    21.8886 </r>
       <r>    10.3142     1.5798    22.2292 </r>
       <r>    10.4424     1.1095    22.4489 </r>
       <r>    10.5706     0.8215    22.6253 </r>
       <r>    10.6988     0.5627    22.7521 </r>
       <r>    10.8270     1.2479    22.9867 </r>
       <r>    10.9552     0.4133    23.0797 </r>
       <r>    11.0834     0.3120    23.1600 </r>
       <r>    11.2116     0.4090    23.2524 </r>
       <r>    11.3398     0.3047    23.3191 </r>
       <r>    11.4680     0.2302    23.3895 </r>
       <r>    11.5962     0.3517    23.4718 </r>
       <r>    11.7245     0.3122    23.5334 </r>
       <r>    11.8527     0.3150    23.6004 </r>
       <r>    11.9809     0.3840    23.6892 </r>
       <r>    12.1091     0.2968    23.7447 </r>
       <r>    12.2373     0.7305    23.8537 </r>
       <r>    12.3655     0.2082    23.9200 </r>
       <r>    12.4937     0.2079    23.9600 </r>
       <r>    12.6219     0.2080    23.9867 </r>
       <r>    12.7501     0.0000    24.0000 </r>
       <r>    12.8783     0.0000    24.0000 </r>
       <r>    13.0065     0.0000    24.0000 </r>
       <r>    13.1347     0.0000    24.0000 </r>
       <r>    13.2629     0.0000    24.0000 </r>
       <r>    13.3911     0.0000    24.0000 </r>
       <r>    13.5193     0.0000    24.0000 </r>
       <r>    13.6476     0.0000    24.0000 </r>
       <r>    13.7758     0.0000    24.0000 </r>
       <r>    13.9040     0.0000    24.0000 </r>
       <r>    14.0322     0.0000    24.0000 </r>
       <r>    14.1604     0.0000    24.0000 </r>
       <r>    14.2886     0.0000    24.0000 </r>
       <r>    14.4168     0.0000    24.0000 </r>
      </set>
     </set>
    </array>
   </total>
  </dos>
 </calculation>
 <structure name="finalpos" >
  <crystal>
   <varray name="basis" >
    <v>       2.13000000      -1.22975600       0.00000000 </v>
    <v>       2.13000000       1.22975600       0.00000000 </v>
    <v>       0.00000000       0.00000000      20.00000000 </v>
   </varray>
   <i name="volume">    104.77521120 </i>
   <varray name="rec_basis" >
    <v>       0.23474178      -0.40658472       0.00000000 </v>
    <v>       0.23474178       0.40658472       0.00000000 </v>
    <v>       0.00000000       0.00000000       0.05000000 </v>
   </varray>
  </crystal>
  <varray name="positions" >
   <v>       0.00000000       0.00000000       0.00000000 </v>
   <v>       0.33333300       0.33333300       0.00000000 </v>
  </varray>
 </structure>
</modeling>
