...it's alive! Batch file starting...
 running on   36 total cores
 distrk:  each k-point on   36 cores,    1 groups
 distr:  one band on    6 cores,    6 groups
 using from now: INCAR     
 vasp.5.4.4.18Apr17-6-g9f103f2a35 (build May 31 2018 21:15:54) complex          
  
 POSCAR found type information on POSCAR  C 
 POSCAR found :  1 types and       2 ions
 scaLAPACK will be used
 LDA part: xc-table for Pade appr. of Perdew
 WARNING: stress and forces are not correct
 POSCAR, INCAR and KPOINTS ok, starting setup
 FFT: planning ...
 WAVECAR not read
 charge-density read from file: C-2                                     
 entering main loop
       N       E                     dE             d eps       ncg     rms          rms(c)
DAV:   1     0.346177553729E+02    0.34618E+02   -0.36241E+03  3600   0.662E+02
DAV:   2    -0.148015633728E+02   -0.49419E+02   -0.38556E+02  5076   0.728E+01
DAV:   3    -0.173424856125E+02   -0.25409E+01   -0.25316E+01  4776   0.266E+01
DAV:   4    -0.173546601258E+02   -0.12175E-01   -0.12174E-01  5760   0.200E+00
DAV:   5    -0.173546826254E+02   -0.22500E-04   -0.22500E-04  4932   0.661E-02
DAV:   6    -0.173546827551E+02   -0.12968E-06   -0.12993E-06  5760   0.336E-03
DAV:   7    -0.173546827553E+02   -0.20668E-09   -0.12249E-09  5412   0.123E-04
   1 F= -.17354683E+02 E0= -.17354608E+02  d E =-.150450E-03
Bstch file complete.
