   4   4   0   0
  0.2619380E+02  0.2459512E-09  0.2459512E-09  0.2000000E-08  0.5000000E-15
  1.000000000000000E-004
  CAR 
 C:graphene                              
     11.62682428    -22.33967530  301     -1.22018220      1.00000000
    -22.340  0.0000E+00  0.0000E+00
    -22.226  0.0000E+00  0.0000E+00
    -22.113  0.0000E+00  0.0000E+00
    -22.000  0.0000E+00  0.0000E+00
    -21.887  0.0000E+00  0.0000E+00
    -21.774  0.0000E+00  0.0000E+00
    -21.660  0.0000E+00  0.0000E+00
    -21.547  0.0000E+00  0.0000E+00
    -21.434  0.0000E+00  0.0000E+00
    -21.321  0.0000E+00  0.0000E+00
    -21.207  0.0000E+00  0.0000E+00
    -21.094  0.0000E+00  0.0000E+00
    -20.981  0.0000E+00  0.0000E+00
    -20.868  0.0000E+00  0.0000E+00
    -20.755  0.9202E-01  0.1042E-01
    -20.641  0.5680E-01  0.6992E-01
    -20.528  0.4807E+00  0.1723E+00
    -20.415  0.6400E+00  0.2448E+00
    -20.302  0.4308E+00  0.3300E+00
    -20.188  0.2679E-07  0.3356E+00
    -20.075  0.1441E+01  0.4987E+00
    -19.962  0.1021E-03  0.4989E+00
    -19.849  0.0000E+00  0.5533E+00
    -19.736  0.9613E+00  0.6621E+00
    -19.622  0.9613E+00  0.7710E+00
    -19.509  0.2582E-12  0.7710E+00
    -19.396  0.4807E+00  0.8254E+00
    -19.283  0.1432E+01  0.9876E+00
    -19.169  0.3102E-04  0.9887E+00
    -19.056  0.0000E+00  0.1098E+01
    -18.943  0.0000E+00  0.1098E+01
    -18.830  0.7416E+00  0.1181E+01
    -18.717  0.6689E+00  0.1337E+01
    -18.603  0.0000E+00  0.1370E+01
    -18.490  0.9592E+00  0.1478E+01
    -18.377  0.0000E+00  0.1478E+01
    -18.264  0.1989E-01  0.1481E+01
    -18.150  0.1442E+01  0.1696E+01
    -18.037  0.7613E+00  0.1782E+01
    -17.924  0.0000E+00  0.1805E+01
    -17.811  0.1147E-03  0.1805E+01
    -17.698  0.0000E+00  0.1914E+01
    -17.584  0.3121E+00  0.1949E+01
    -17.471  0.8117E+00  0.2115E+01
    -17.358  0.4807E+00  0.2186E+01
    -17.245  0.9613E+00  0.2295E+01
    -17.131  0.0000E+00  0.2295E+01
    -17.018  0.3038E-10  0.2295E+01
    -16.905  0.9613E+00  0.2404E+01
    -16.792  0.1202E+01  0.2567E+01
    -16.679  0.2135E+00  0.2591E+01
    -16.565  0.4519E+00  0.2727E+01
    -16.452  0.6593E-03  0.2730E+01
    -16.339  0.0000E+00  0.2839E+01
    -16.226  0.0000E+00  0.2839E+01
    -16.112  0.7829E-01  0.2848E+01
    -15.999  0.1337E+00  0.3072E+01
    -15.886  0.0000E+00  0.3166E+01
    -15.773  0.9613E+00  0.3274E+01
    -15.660  0.4807E+00  0.3329E+01
    -15.546  0.9613E+00  0.3438E+01
    -15.433  0.4807E+00  0.3492E+01
    -15.320  0.1112E-06  0.3492E+01
    -15.207  0.1701E+01  0.3685E+01
    -15.093  0.9613E+00  0.3819E+01
    -14.980  0.0000E+00  0.3819E+01
    -14.867  0.0000E+00  0.3819E+01
    -14.754  0.0000E+00  0.3819E+01
    -14.641  0.4738E+00  0.3872E+01
    -14.527  0.4626E-06  0.3873E+01
    -14.414  0.1442E+01  0.4036E+01
    -14.301  0.7518E-07  0.4036E+01
    -14.188  0.9187E+00  0.4140E+01
    -14.074  0.9613E+00  0.4254E+01
    -13.961  0.0000E+00  0.4254E+01
    -13.848  0.5392E-02  0.4255E+01
    -13.735  0.2396E+01  0.4562E+01
    -13.622  0.0000E+00  0.4562E+01
    -13.508  0.8867E+00  0.4663E+01
    -13.395  0.9299E+00  0.4776E+01
    -13.282  0.5879E-03  0.4780E+01
    -13.169  0.4479E-04  0.4834E+01
    -13.055  0.9613E+00  0.5052E+01
    -12.942  0.0000E+00  0.5052E+01
    -12.829  0.1788E+00  0.5072E+01
    -12.716  0.4807E+00  0.5215E+01
    -12.603  0.9613E+00  0.5324E+01
    -12.489  0.3118E-07  0.5324E+01
    -12.376  0.9613E+00  0.5433E+01
    -12.263  0.9500E-10  0.5433E+01
    -12.150  0.9613E+00  0.5542E+01
    -12.037  0.4807E+00  0.5596E+01
    -11.923  0.9613E+00  0.5705E+01
    -11.810  0.1562E+00  0.5723E+01
    -11.697  0.9613E+00  0.5832E+01
    -11.584  0.0000E+00  0.5832E+01
    -11.470  0.1172E+01  0.5965E+01
    -11.357  0.4807E+00  0.6104E+01
    -11.244  0.9613E+00  0.6213E+01
    -11.131  0.1537E+00  0.6231E+01
    -11.018  0.0000E+00  0.6268E+01
    -10.904  0.4508E-07  0.6268E+01
    -10.791  0.1389E+01  0.6425E+01
    -10.678  0.1920E+01  0.6703E+01
    -10.565  0.0000E+00  0.6703E+01
    -10.451  0.1716E-07  0.6703E+01
    -10.338  0.9613E+00  0.6812E+01
    -10.225  0.4381E+00  0.6861E+01
    -10.112  0.9613E+00  0.7029E+01
     -9.999  0.0000E+00  0.7029E+01
     -9.885  0.8493E+00  0.7126E+01
     -9.772  0.5816E+00  0.7259E+01
     -9.659  0.1814E-14  0.7356E+01
     -9.546  0.1442E+01  0.7519E+01
     -9.432  0.9613E+00  0.7628E+01
     -9.319  0.0000E+00  0.7628E+01
     -9.206  0.0000E+00  0.7628E+01
     -9.093  0.1152E-01  0.7629E+01
     -8.980  0.2466E+01  0.8016E+01
     -8.866  0.9480E-01  0.8129E+01
     -8.753  0.1202E+01  0.8290E+01
     -8.640  0.4796E+00  0.8372E+01
     -8.527  0.1113E+01  0.8498E+01
     -8.413  0.5632E+00  0.8572E+01
     -8.300  0.1663E+01  0.8968E+01
     -8.187  0.9567E+00  0.9106E+01
     -8.074  0.2150E+01  0.9377E+01
     -7.961  0.1442E+01  0.9542E+01
     -7.847  0.2493E+00  0.9570E+01
     -7.734  0.1770E+01  0.9851E+01
     -7.621  0.2120E+01  0.1016E+02
     -7.508  0.1909E+01  0.1052E+02
     -7.394  0.2147E-08  0.1052E+02
     -7.281  0.2658E+01  0.1082E+02
     -7.168  0.2565E+00  0.1099E+02
     -7.055  0.9613E+00  0.1117E+02
     -6.942  0.1923E+01  0.1139E+02
     -6.828  0.9613E+00  0.1150E+02
     -6.715  0.9613E+00  0.1161E+02
     -6.602  0.1374E+01  0.1177E+02
     -6.489  0.1606E+01  0.1206E+02
     -6.375  0.4809E+00  0.1215E+02
     -6.262  0.3485E-01  0.1221E+02
     -6.149  0.1746E+01  0.1246E+02
     -6.036  0.9606E+00  0.1259E+02
     -5.923  0.2420E+00  0.1267E+02
     -5.809  0.1440E+01  0.1286E+02
     -5.696  0.4806E+00  0.1292E+02
     -5.583  0.1442E+01  0.1313E+02
     -5.470  0.9645E+00  0.1330E+02
     -5.356  0.4807E+00  0.1341E+02
     -5.243  0.8677E-13  0.1341E+02
     -5.130  0.1237E+01  0.1355E+02
     -5.017  0.2421E+01  0.1384E+02
     -4.904  0.1580E+00  0.1391E+02
     -4.790  0.4807E+00  0.1406E+02
     -4.677  0.4070E+00  0.1411E+02
     -4.564  0.1390E+01  0.1427E+02
     -4.451  0.4780E+00  0.1433E+02
     -4.337  0.1449E+01  0.1450E+02
     -4.224  0.1114E+01  0.1467E+02
     -4.111  0.3228E-02  0.1473E+02
     -3.998  0.4807E+00  0.1484E+02
     -3.885  0.4300E+00  0.1489E+02
     -3.771  0.4807E+00  0.1495E+02
     -3.658  0.4204E+00  0.1500E+02
     -3.545  0.1208E+01  0.1514E+02
     -3.432  0.1923E+01  0.1549E+02
     -3.318  0.0000E+00  0.1549E+02
     -3.205  0.2555E-06  0.1549E+02
     -3.092  0.4807E+00  0.1555E+02
     -2.979  0.1772E-11  0.1555E+02
     -2.866  0.9613E+00  0.1566E+02
     -2.752  0.1009E+01  0.1577E+02
     -2.639  0.2403E+00  0.1582E+02
     -2.526  0.0000E+00  0.1582E+02
     -2.413  0.3045E-03  0.1582E+02
     -2.299  0.2403E+00  0.1587E+02
     -2.186  0.0000E+00  0.1587E+02
     -2.073  0.1868E-15  0.1587E+02
     -1.960  0.9602E+00  0.1598E+02
     -1.847  0.0000E+00  0.1598E+02
     -1.733  0.0000E+00  0.1598E+02
     -1.620  0.0000E+00  0.1598E+02
     -1.507  0.0000E+00  0.1598E+02
     -1.394  0.0000E+00  0.1598E+02
     -1.280  0.6487E-10  0.1598E+02
     -1.167  0.3204E+00  0.1602E+02
     -1.054  0.0000E+00  0.1602E+02
     -0.941  0.0000E+00  0.1602E+02
     -0.828  0.0000E+00  0.1602E+02
     -0.714  0.0000E+00  0.1602E+02
     -0.601  0.0000E+00  0.1602E+02
     -0.488  0.6929E-01  0.1603E+02
     -0.375  0.4807E+00  0.1613E+02
     -0.261  0.0000E+00  0.1613E+02
     -0.148  0.3674E+00  0.1617E+02
     -0.035  0.0000E+00  0.1618E+02
      0.078  0.0000E+00  0.1618E+02
      0.191  0.1291E-05  0.1618E+02
      0.305  0.2124E+01  0.1648E+02
      0.418  0.4003E+00  0.1653E+02
      0.531  0.7960E+00  0.1663E+02
      0.644  0.2403E+00  0.1673E+02
      0.758  0.9018E+00  0.1683E+02
      0.871  0.4811E+00  0.1689E+02
      0.984  0.6706E+00  0.1702E+02
      1.097  0.3999E-02  0.1705E+02
      1.210  0.4988E+00  0.1716E+02
      1.324  0.7218E+00  0.1730E+02
      1.437  0.0000E+00  0.1732E+02
      1.550  0.0000E+00  0.1732E+02
      1.663  0.4859E+00  0.1738E+02
      1.777  0.5584E-03  0.1743E+02
      1.890  0.7196E+00  0.1757E+02
      2.003  0.9620E+00  0.1768E+02
      2.116  0.7097E+00  0.1779E+02
      2.229  0.0000E+00  0.1779E+02
      2.343  0.9592E+00  0.1790E+02
      2.456  0.4990E+00  0.1801E+02
      2.569  0.2403E+00  0.1807E+02
      2.682  0.4679E+00  0.1812E+02
      2.796  0.1214E+01  0.1826E+02
      2.909  0.1111E-03  0.1831E+02
      3.022  0.1385E+01  0.1847E+02
      3.135  0.1208E+01  0.1867E+02
      3.248  0.7210E+00  0.1878E+02
      3.362  0.7210E+00  0.1886E+02
      3.475  0.9613E+00  0.1897E+02
      3.588  0.6005E+00  0.1904E+02
      3.701  0.2317E+00  0.1919E+02
      3.815  0.7627E+00  0.1927E+02
      3.928  0.5207E+00  0.1944E+02
      4.041  0.2075E+01  0.1967E+02
      4.154  0.9531E+00  0.1979E+02
      4.267  0.6999E-01  0.1983E+02
      4.381  0.1471E+01  0.2001E+02
      4.494  0.1505E+01  0.2026E+02
      4.607  0.5774E+00  0.2035E+02
      4.720  0.4793E+00  0.2042E+02
      4.834  0.4859E+00  0.2050E+02
      4.947  0.8144E+00  0.2073E+02
      5.060  0.3945E+00  0.2084E+02
      5.173  0.1442E+01  0.2102E+02
      5.286  0.9166E+00  0.2117E+02
      5.400  0.7229E+00  0.2132E+02
      5.513  0.6188E-05  0.2137E+02
      5.626  0.4806E+00  0.2148E+02
      5.739  0.7210E+00  0.2156E+02
      5.853  0.5019E-01  0.2157E+02
      5.966  0.1202E+01  0.2172E+02
      6.079  0.7210E+00  0.2180E+02
      6.192  0.4413E+00  0.2185E+02
      6.305  0.1656E+01  0.2205E+02
      6.419  0.2403E+00  0.2213E+02
      6.532  0.1446E+01  0.2230E+02
      6.645  0.9613E+00  0.2251E+02
      6.758  0.0000E+00  0.2251E+02
      6.872  0.3477E+00  0.2255E+02
      6.985  0.9687E-06  0.2257E+02
      7.098  0.0000E+00  0.2262E+02
      7.211  0.1527E+01  0.2279E+02
      7.324  0.0000E+00  0.2298E+02
      7.438  0.6198E-01  0.2298E+02
      7.551  0.0000E+00  0.2303E+02
      7.664  0.0000E+00  0.2303E+02
      7.777  0.0000E+00  0.2303E+02
      7.891  0.2403E+00  0.2306E+02
      8.004  0.0000E+00  0.2311E+02
      8.117  0.2408E+00  0.2314E+02
      8.230  0.1350E+01  0.2332E+02
      8.343  0.0000E+00  0.2338E+02
      8.457  0.4807E+00  0.2344E+02
      8.570  0.0000E+00  0.2344E+02
      8.683  0.0000E+00  0.2344E+02
      8.796  0.0000E+00  0.2344E+02
      8.910  0.4647E+00  0.2349E+02
      9.023  0.3658E-07  0.2349E+02
      9.136  0.5128E+00  0.2355E+02
      9.249  0.4132E+00  0.2363E+02
      9.362  0.2101E-08  0.2369E+02
      9.476  0.9613E+00  0.2380E+02
      9.589  0.1002E-02  0.2383E+02
      9.702  0.3313E+00  0.2389E+02
      9.815  0.4767E+00  0.2397E+02
      9.928  0.0000E+00  0.2397E+02
     10.042  0.6965E-09  0.2397E+02
     10.155  0.2403E+00  0.2400E+02
     10.268  0.0000E+00  0.2400E+02
     10.381  0.0000E+00  0.2400E+02
     10.495  0.0000E+00  0.2400E+02
     10.608  0.0000E+00  0.2400E+02
     10.721  0.0000E+00  0.2400E+02
     10.834  0.0000E+00  0.2400E+02
     10.947  0.0000E+00  0.2400E+02
     11.061  0.0000E+00  0.2400E+02
     11.174  0.0000E+00  0.2400E+02
     11.287  0.0000E+00  0.2400E+02
     11.400  0.0000E+00  0.2400E+02
     11.514  0.0000E+00  0.2400E+02
     11.627  0.0000E+00  0.2400E+02
