a= 0.150
 running on    4 total cores
 distrk:  each k-point on    4 cores,    1 groups
 distr:  one band on    1 cores,    4 groups
 using from now: INCAR     
 vasp.5.4.4.18Apr17-6-g9f103f2a35 (build May 31 2018 21:15:54) complex          
  
 POSCAR found type information on POSCAR  C 
 POSCAR found :  1 types and       4 ions
 scaLAPACK will be used
 LDA part: xc-table for Pade appr. of Perdew
 POSCAR, INCAR and KPOINTS ok, starting setup
 FFT: planning ...
 WAVECAR not read
 entering main loop
       N       E                     dE             d eps       ncg     rms          rms(c)
DAV:   1     0.128912158785E+03    0.12891E+03   -0.80262E+03  1152   0.149E+03
DAV:   2    -0.239935912504E+02   -0.15291E+03   -0.13850E+03  1848   0.245E+02
DAV:   3    -0.388740036945E+02   -0.14880E+02   -0.14761E+02  1452   0.875E+01
DAV:   4    -0.392097868361E+02   -0.33578E+00   -0.33468E+00  1468   0.163E+01
DAV:   5    -0.392198163829E+02   -0.10030E-01   -0.10018E-01  1484   0.267E+00    0.903E+00
DAV:   6    -0.374037834467E+02    0.18160E+01   -0.16839E+00  1368   0.925E+00    0.529E+00
DAV:   7    -0.367624189251E+02    0.64136E+00   -0.21184E+00  1424   0.104E+01    0.135E+00
DAV:   8    -0.367525534750E+02    0.98655E-02   -0.78187E-02  1448   0.203E+00    0.124E-01
DAV:   9    -0.367499716101E+02    0.25819E-02   -0.39143E-03  1396   0.480E-01    0.976E-02
DAV:  10    -0.367443538578E+02    0.56178E-02   -0.23842E-03  1376   0.301E-01    0.743E-02
DAV:  11    -0.367403015591E+02    0.40523E-02   -0.19563E-03  1336   0.267E-01    0.522E-02
DAV:  12    -0.367365002693E+02    0.38013E-02   -0.16108E-03  1272   0.221E-01    0.367E-02
DAV:  13    -0.367363685175E+02    0.13175E-03   -0.43159E-04  1252   0.144E-01    0.330E-02
DAV:  14    -0.367371107760E+02   -0.74226E-03   -0.44455E-04  1328   0.106E-01    0.308E-02
DAV:  15    -0.367377844974E+02   -0.67372E-03   -0.16700E-04  1352   0.854E-02    0.329E-02
DAV:  16    -0.367381848703E+02   -0.40037E-03   -0.36442E-05  1316   0.383E-02    0.109E-02
DAV:  17    -0.367383137511E+02   -0.12888E-03   -0.80513E-06  1344   0.158E-02    0.883E-03
DAV:  18    -0.367383494874E+02   -0.35736E-04   -0.14688E-06  1324   0.835E-03    0.136E-03
DAV:  19    -0.367383551957E+02   -0.57083E-05   -0.20550E-07  1348   0.306E-03    0.874E-04
DAV:  20    -0.367383568041E+02   -0.16084E-05   -0.48748E-08  1352   0.130E-03    0.770E-05
DAV:  21    -0.367383569326E+02   -0.12847E-06   -0.26747E-09  1016   0.341E-04    0.485E-05
DAV:  22    -0.367383569686E+02   -0.35963E-07   -0.13990E-09   860   0.201E-04    0.410E-05
DAV:  23    -0.367383569700E+02   -0.14099E-08   -0.21653E-10   944   0.108E-04
   1 F= -.36738357E+02 E0= -.36738357E+02  d E =-.217276E-16
a= 0.155
 running on    4 total cores
 distrk:  each k-point on    4 cores,    1 groups
 distr:  one band on    1 cores,    4 groups
 using from now: INCAR     
 vasp.5.4.4.18Apr17-6-g9f103f2a35 (build May 31 2018 21:15:54) complex          
  
 POSCAR found type information on POSCAR  C 
 POSCAR found :  1 types and       4 ions
 scaLAPACK will be used
 LDA part: xc-table for Pade appr. of Perdew
 POSCAR, INCAR and KPOINTS ok, starting setup
 FFT: planning ...
 WAVECAR not read
 entering main loop
       N       E                     dE             d eps       ncg     rms          rms(c)
DAV:   1     0.128924809652E+03    0.12892E+03   -0.80224E+03  1152   0.149E+03
DAV:   2    -0.244349170922E+02   -0.15336E+03   -0.13917E+03  1864   0.245E+02
DAV:   3    -0.389470854501E+02   -0.14512E+02   -0.14398E+02  1460   0.868E+01
DAV:   4    -0.392784292392E+02   -0.33134E+00   -0.33029E+00  1460   0.162E+01
DAV:   5    -0.392885034481E+02   -0.10074E-01   -0.10056E-01  1484   0.272E+00    0.902E+00
DAV:   6    -0.374633317644E+02    0.18252E+01   -0.17051E+00  1360   0.926E+00    0.529E+00
DAV:   7    -0.368190175522E+02    0.64431E+00   -0.21414E+00  1424   0.104E+01    0.135E+00
DAV:   8    -0.368097220398E+02    0.92955E-02   -0.80168E-02  1456   0.204E+00    0.122E-01
DAV:   9    -0.368070719806E+02    0.26501E-02   -0.38464E-03  1440   0.464E-01    0.970E-02
DAV:  10    -0.368012554627E+02    0.58165E-02   -0.25425E-03  1368   0.307E-01    0.780E-02
DAV:  11    -0.367974421845E+02    0.38133E-02   -0.18079E-03  1324   0.262E-01    0.528E-02
DAV:  12    -0.367936234030E+02    0.38188E-02   -0.16333E-03  1280   0.224E-01    0.364E-02
DAV:  13    -0.367934617777E+02    0.16163E-03   -0.42839E-04  1244   0.143E-01    0.331E-02
DAV:  14    -0.367942487329E+02   -0.78696E-03   -0.46383E-04  1328   0.111E-01    0.295E-02
DAV:  15    -0.367949363829E+02   -0.68765E-03   -0.16606E-04  1348   0.850E-02    0.304E-02
DAV:  16    -0.367953326160E+02   -0.39623E-03   -0.37564E-05  1316   0.368E-02    0.913E-03
DAV:  17    -0.367954586580E+02   -0.12604E-03   -0.90607E-06  1332   0.161E-02    0.899E-03
DAV:  18    -0.367954892785E+02   -0.30620E-04   -0.14424E-06  1340   0.858E-03    0.156E-03
DAV:  19    -0.367954934920E+02   -0.42135E-05   -0.23776E-07  1364   0.341E-03    0.726E-04
DAV:  20    -0.367954951846E+02   -0.16926E-05   -0.64606E-08  1348   0.146E-03    0.982E-05
DAV:  21    -0.367954952944E+02   -0.10982E-06   -0.26314E-09  1036   0.347E-04    0.606E-05
DAV:  22    -0.367954953424E+02   -0.47975E-07   -0.14983E-09   860   0.209E-04    0.473E-05
DAV:  23    -0.367954953438E+02   -0.14074E-08   -0.34585E-10   924   0.127E-04
   1 F= -.36795495E+02 E0= -.36795495E+02  d E =-.407777E-44
a= 0.160
 running on    4 total cores
 distrk:  each k-point on    4 cores,    1 groups
 distr:  one band on    1 cores,    4 groups
 using from now: INCAR     
 vasp.5.4.4.18Apr17-6-g9f103f2a35 (build May 31 2018 21:15:54) complex          
  
 POSCAR found type information on POSCAR  C 
 POSCAR found :  1 types and       4 ions
 scaLAPACK will be used
 LDA part: xc-table for Pade appr. of Perdew
 POSCAR, INCAR and KPOINTS ok, starting setup
 FFT: planning ...
 WAVECAR not read
 entering main loop
       N       E                     dE             d eps       ncg     rms          rms(c)
DAV:   1     0.128972038623E+03    0.12897E+03   -0.80192E+03  1152   0.149E+03
DAV:   2    -0.244401576289E+02   -0.15341E+03   -0.13951E+03  1836   0.245E+02
DAV:   3    -0.389871674128E+02   -0.14547E+02   -0.14431E+02  1464   0.871E+01
DAV:   4    -0.393298878155E+02   -0.34272E+00   -0.34163E+00  1456   0.164E+01
DAV:   5    -0.393406054207E+02   -0.10718E-01   -0.10700E-01  1468   0.277E+00    0.902E+00
DAV:   6    -0.375069154487E+02    0.18337E+01   -0.17235E+00  1356   0.927E+00    0.529E+00
DAV:   7    -0.368592586453E+02    0.64766E+00   -0.21648E+00  1420   0.104E+01    0.135E+00
DAV:   8    -0.368506173895E+02    0.86413E-02   -0.81837E-02  1416   0.204E+00    0.121E-01
DAV:   9    -0.368481215690E+02    0.24958E-02   -0.40321E-03  1424   0.471E-01    0.963E-02
DAV:  10    -0.368420881139E+02    0.60335E-02   -0.27100E-03  1396   0.314E-01    0.788E-02
DAV:  11    -0.368384815067E+02    0.36066E-02   -0.16642E-03  1316   0.253E-01    0.529E-02
DAV:  12    -0.368346591115E+02    0.38224E-02   -0.16441E-03  1268   0.227E-01    0.359E-02
DAV:  13    -0.368344610446E+02    0.19807E-03   -0.43098E-04  1256   0.144E-01    0.332E-02
DAV:  14    -0.368353147567E+02   -0.85371E-03   -0.48802E-04  1336   0.116E-01    0.291E-02
DAV:  15    -0.368360074862E+02   -0.69273E-03   -0.15916E-04  1344   0.843E-02    0.295E-02
DAV:  16    -0.368363900519E+02   -0.38257E-03   -0.38760E-05  1316   0.356E-02    0.884E-03
DAV:  17    -0.368365094999E+02   -0.11945E-03   -0.95272E-06  1324   0.164E-02    0.904E-03
DAV:  18    -0.368365387639E+02   -0.29264E-04   -0.15568E-06  1332   0.855E-03    0.183E-03
DAV:  19    -0.368365416565E+02   -0.28926E-05   -0.22551E-07  1404   0.334E-03    0.765E-04
DAV:  20    -0.368365434875E+02   -0.18310E-05   -0.63138E-08  1344   0.144E-03    0.115E-04
DAV:  21    -0.368365435894E+02   -0.10191E-06   -0.19829E-09  1016   0.325E-04    0.401E-05
DAV:  22    -0.368365436504E+02   -0.60994E-07   -0.20667E-09   860   0.247E-04    0.149E-05
DAV:  23    -0.368365436488E+02    0.15934E-08   -0.33077E-10   988   0.128E-04
   1 F= -.36836544E+02 E0= -.36836544E+02  d E =-.796217E-13
a= 0.165
 running on    4 total cores
 distrk:  each k-point on    4 cores,    1 groups
 distr:  one band on    1 cores,    4 groups
 using from now: INCAR     
 vasp.5.4.4.18Apr17-6-g9f103f2a35 (build May 31 2018 21:15:54) complex          
  
 POSCAR found type information on POSCAR  C 
 POSCAR found :  1 types and       4 ions
 scaLAPACK will be used
 LDA part: xc-table for Pade appr. of Perdew
 POSCAR, INCAR and KPOINTS ok, starting setup
 FFT: planning ...
 WAVECAR not read
 entering main loop
       N       E                     dE             d eps       ncg     rms          rms(c)
DAV:   1     0.128974897772E+03    0.12897E+03   -0.80165E+03  1152   0.149E+03
DAV:   2    -0.241344415043E+02   -0.15311E+03   -0.13918E+03  1796   0.246E+02
DAV:   3    -0.390393442695E+02   -0.14905E+02   -0.14771E+02  1444   0.879E+01
DAV:   4    -0.393712701925E+02   -0.33193E+00   -0.33098E+00  1452   0.164E+01
DAV:   5    -0.393806289809E+02   -0.93588E-02   -0.93437E-02  1480   0.265E+00    0.902E+00
DAV:   6    -0.375384137805E+02    0.18422E+01   -0.17327E+00  1368   0.927E+00    0.529E+00
DAV:   7    -0.368877878674E+02    0.65063E+00   -0.21966E+00  1424   0.104E+01    0.135E+00
DAV:   8    -0.368797041008E+02    0.80838E-02   -0.83526E-02  1416   0.206E+00    0.122E-01
DAV:   9    -0.368773840055E+02    0.23201E-02   -0.40034E-03  1440   0.465E-01    0.965E-02
DAV:  10    -0.368711696190E+02    0.62144E-02   -0.29523E-03  1372   0.328E-01    0.839E-02
DAV:  11    -0.368678138286E+02    0.33558E-02   -0.14649E-03  1352   0.244E-01    0.533E-02
DAV:  12    -0.368639260190E+02    0.38878E-02   -0.17421E-03  1248   0.236E-01    0.356E-02
DAV:  13    -0.368636980662E+02    0.22795E-03   -0.42253E-04  1244   0.144E-01    0.338E-02
DAV:  14    -0.368645939832E+02   -0.89592E-03   -0.50693E-04  1336   0.119E-01    0.297E-02
DAV:  15    -0.368653098909E+02   -0.71591E-03   -0.16438E-04  1344   0.871E-02    0.312E-02
DAV:  16    -0.368656704773E+02   -0.36059E-03   -0.44455E-05  1316   0.381E-02    0.903E-03
DAV:  17    -0.368657916588E+02   -0.12118E-03   -0.10454E-05  1336   0.174E-02    0.934E-03
DAV:  18    -0.368658187285E+02   -0.27070E-04   -0.15053E-06  1324   0.892E-03    0.175E-03
DAV:  19    -0.368658214981E+02   -0.27696E-05   -0.24110E-07  1408   0.348E-03    0.780E-04
DAV:  20    -0.368658232344E+02   -0.17364E-05   -0.68859E-08  1340   0.152E-03    0.101E-04
DAV:  21    -0.368658233308E+02   -0.96425E-07   -0.21594E-09  1016   0.335E-04    0.412E-05
DAV:  22    -0.368658233890E+02   -0.58204E-07   -0.20052E-09   852   0.255E-04    0.178E-05
DAV:  23    -0.368658233871E+02    0.19179E-08   -0.33250E-10   992   0.133E-04
   1 F= -.36865823E+02 E0= -.36865823E+02  d E =-.162053E-56
a= 0.170
 running on    4 total cores
 distrk:  each k-point on    4 cores,    1 groups
 distr:  one band on    1 cores,    4 groups
 using from now: INCAR     
 vasp.5.4.4.18Apr17-6-g9f103f2a35 (build May 31 2018 21:15:54) complex          
  
 POSCAR found type information on POSCAR  C 
 POSCAR found :  1 types and       4 ions
 scaLAPACK will be used
 LDA part: xc-table for Pade appr. of Perdew
 POSCAR, INCAR and KPOINTS ok, starting setup
 FFT: planning ...
 WAVECAR not read
 entering main loop
       N       E                     dE             d eps       ncg     rms          rms(c)
DAV:   1     0.128947924984E+03    0.12895E+03   -0.80144E+03  1152   0.149E+03
DAV:   2    -0.244145578067E+02   -0.15336E+03   -0.13949E+03  1844   0.246E+02
DAV:   3    -0.390701678444E+02   -0.14656E+02   -0.14299E+02  1444   0.869E+01
DAV:   4    -0.394018081291E+02   -0.33164E+00   -0.33070E+00  1444   0.162E+01
DAV:   5    -0.394115308048E+02   -0.97227E-02   -0.97052E-02  1488   0.268E+00    0.902E+00
DAV:   6    -0.375614780935E+02    0.18501E+01   -0.17380E+00  1380   0.927E+00    0.529E+00
DAV:   7    -0.369078067594E+02    0.65367E+00   -0.22186E+00  1428   0.105E+01    0.136E+00
DAV:   8    -0.369003314897E+02    0.74753E-02   -0.83204E-02  1396   0.207E+00    0.125E-01
DAV:   9    -0.368980446949E+02    0.22868E-02   -0.35267E-03  1480   0.455E-01    0.969E-02
DAV:  10    -0.368918094878E+02    0.62352E-02   -0.29173E-03  1400   0.323E-01    0.866E-02
DAV:  11    -0.368885010810E+02    0.33084E-02   -0.13756E-03  1356   0.235E-01    0.532E-02
DAV:  12    -0.368846620114E+02    0.38391E-02   -0.17632E-03  1244   0.241E-01    0.352E-02
DAV:  13    -0.368843817344E+02    0.28028E-03   -0.38121E-04  1240   0.136E-01    0.327E-02
DAV:  14    -0.368853262594E+02   -0.94453E-03   -0.54482E-04  1332   0.121E-01    0.313E-02
DAV:  15    -0.368860744093E+02   -0.74815E-03   -0.16337E-04  1348   0.892E-02    0.346E-02
DAV:  16    -0.368863896256E+02   -0.31522E-03   -0.39599E-05  1316   0.370E-02    0.851E-03
DAV:  17    -0.368865212341E+02   -0.13161E-03   -0.97250E-06  1320   0.175E-02    0.935E-03
DAV:  18    -0.368865454295E+02   -0.24195E-04   -0.11562E-06  1360   0.846E-03    0.174E-03
DAV:  19    -0.368865489168E+02   -0.34873E-05   -0.23382E-07  1384   0.360E-03    0.717E-04
DAV:  20    -0.368865503096E+02   -0.13928E-05   -0.75580E-08  1312   0.164E-03    0.101E-04
DAV:  21    -0.368865504076E+02   -0.97913E-07   -0.30535E-09  1028   0.389E-04    0.427E-05
DAV:  22    -0.368865504577E+02   -0.50110E-07   -0.17362E-09   848   0.252E-04    0.213E-05
DAV:  23    -0.368865504557E+02    0.19359E-08   -0.34898E-10   964   0.136E-04
   1 F= -.36886550E+02 E0= -.36886550E+02  d E =-.269579E-21
a= 0.175
 running on    4 total cores
 distrk:  each k-point on    4 cores,    1 groups
 distr:  one band on    1 cores,    4 groups
 using from now: INCAR     
 vasp.5.4.4.18Apr17-6-g9f103f2a35 (build May 31 2018 21:15:54) complex          
  
 POSCAR found type information on POSCAR  C 
 POSCAR found :  1 types and       4 ions
 scaLAPACK will be used
 LDA part: xc-table for Pade appr. of Perdew
 POSCAR, INCAR and KPOINTS ok, starting setup
 FFT: planning ...
 WAVECAR not read
 entering main loop
       N       E                     dE             d eps       ncg     rms          rms(c)
DAV:   1     0.128888796136E+03    0.12889E+03   -0.80128E+03  1152   0.149E+03
DAV:   2    -0.243959470528E+02   -0.15328E+03   -0.13980E+03  1844   0.246E+02
DAV:   3    -0.390974419237E+02   -0.14701E+02   -0.14266E+02  1436   0.869E+01
DAV:   4    -0.394258382996E+02   -0.32840E+00   -0.32747E+00  1468   0.162E+01
DAV:   5    -0.394356330889E+02   -0.97948E-02   -0.97751E-02  1464   0.269E+00    0.902E+00
DAV:   6    -0.375790253924E+02    0.18566E+01   -0.17469E+00  1392   0.927E+00    0.529E+00
DAV:   7    -0.369212538485E+02    0.65777E+00   -0.22380E+00  1424   0.105E+01    0.136E+00
DAV:   8    -0.369147311297E+02    0.65227E-02   -0.83003E-02  1412   0.206E+00    0.121E-01
DAV:   9    -0.369123994529E+02    0.23317E-02   -0.33608E-03  1468   0.443E-01    0.955E-02
DAV:  10    -0.369060165306E+02    0.63829E-02   -0.31420E-03  1404   0.330E-01    0.887E-02
DAV:  11    -0.369028582896E+02    0.31582E-02   -0.12379E-03  1328   0.224E-01    0.534E-02
DAV:  12    -0.368991728726E+02    0.36854E-02   -0.16972E-03  1248   0.241E-01    0.352E-02
DAV:  13    -0.368989265001E+02    0.24637E-03   -0.35820E-04  1240   0.133E-01    0.316E-02
DAV:  14    -0.368998860991E+02   -0.95960E-03   -0.54174E-04  1320   0.119E-01    0.319E-02
DAV:  15    -0.369006675121E+02   -0.78141E-03   -0.15344E-04  1356   0.876E-02    0.355E-02
DAV:  16    -0.369009455310E+02   -0.27802E-03   -0.26161E-05  1328   0.327E-02    0.663E-03
DAV:  17    -0.369010815496E+02   -0.13602E-03   -0.79303E-06  1312   0.163E-02    0.900E-03
DAV:  18    -0.369011024526E+02   -0.20903E-04   -0.80283E-07  1376   0.775E-03    0.176E-03
DAV:  19    -0.369011066171E+02   -0.41645E-05   -0.21093E-07  1356   0.343E-03    0.675E-04
DAV:  20    -0.369011076489E+02   -0.10318E-05   -0.49168E-08  1284   0.141E-03    0.135E-04
DAV:  21    -0.369011077539E+02   -0.10499E-06   -0.34148E-09   984   0.390E-04    0.325E-05
DAV:  22    -0.369011077840E+02   -0.30087E-07   -0.10249E-09   844   0.185E-04    0.140E-05
DAV:  23    -0.369011077822E+02    0.17455E-08   -0.20454E-10   924   0.104E-04
   1 F= -.36901108E+02 E0= -.36901108E+02  d E =-.526120E-16
a= 0.180
 running on    4 total cores
 distrk:  each k-point on    4 cores,    1 groups
 distr:  one band on    1 cores,    4 groups
 using from now: INCAR     
 vasp.5.4.4.18Apr17-6-g9f103f2a35 (build May 31 2018 21:15:54) complex          
  
 POSCAR found type information on POSCAR  C 
 POSCAR found :  1 types and       4 ions
 scaLAPACK will be used
 LDA part: xc-table for Pade appr. of Perdew
 POSCAR, INCAR and KPOINTS ok, starting setup
 FFT: planning ...
 WAVECAR not read
 entering main loop
       N       E                     dE             d eps       ncg     rms          rms(c)
DAV:   1     0.128716031983E+03    0.12872E+03   -0.80118E+03  1152   0.149E+03
DAV:   2    -0.249581533059E+02   -0.15367E+03   -0.14020E+03  1868   0.246E+02
DAV:   3    -0.391200595471E+02   -0.14162E+02   -0.14062E+02  1412   0.864E+01
DAV:   4    -0.394443788181E+02   -0.32432E+00   -0.32320E+00  1476   0.161E+01
DAV:   5    -0.394545385866E+02   -0.10160E-01   -0.10140E-01  1432   0.274E+00    0.902E+00
DAV:   6    -0.375922688260E+02    0.18623E+01   -0.17516E+00  1380   0.928E+00    0.529E+00
DAV:   7    -0.369304921478E+02    0.66178E+00   -0.22583E+00  1424   0.105E+01    0.136E+00
DAV:   8    -0.369245239248E+02    0.59682E-02   -0.81123E-02  1420   0.205E+00    0.127E-01
DAV:   9    -0.369224230135E+02    0.21009E-02   -0.31542E-03  1484   0.431E-01    0.958E-02
DAV:  10    -0.369157809146E+02    0.66421E-02   -0.34710E-03  1424   0.342E-01    0.954E-02
DAV:  11    -0.369129728711E+02    0.28080E-02   -0.10065E-03  1344   0.205E-01    0.527E-02
DAV:  12    -0.369092902282E+02    0.36826E-02   -0.17365E-03  1236   0.248E-01    0.356E-02
DAV:  13    -0.369090247713E+02    0.26546E-03   -0.34260E-04  1232   0.130E-01    0.323E-02
DAV:  14    -0.369100576026E+02   -0.10328E-02   -0.56212E-04  1328   0.122E-01    0.317E-02
DAV:  15    -0.369108186693E+02   -0.76107E-03   -0.14702E-04  1360   0.878E-02    0.358E-02
DAV:  16    -0.369110775947E+02   -0.25893E-03   -0.23926E-05  1324   0.306E-02    0.490E-03
DAV:  17    -0.369112214343E+02   -0.14384E-03   -0.57406E-06  1324   0.150E-02    0.970E-03
DAV:  18    -0.369112417181E+02   -0.20284E-04   -0.79061E-07  1380   0.761E-03    0.153E-03
DAV:  19    -0.369112459274E+02   -0.42093E-05   -0.17523E-07  1348   0.325E-03    0.809E-04
DAV:  20    -0.369112468041E+02   -0.87671E-06   -0.46893E-08  1280   0.139E-03    0.127E-04
DAV:  21    -0.369112468819E+02   -0.77761E-07   -0.26846E-09   992   0.369E-04    0.325E-05
DAV:  22    -0.369112469071E+02   -0.25229E-07   -0.97767E-10   840   0.205E-04    0.174E-05
DAV:  23    -0.369112469049E+02    0.21707E-08   -0.18183E-10  1000   0.103E-04
   1 F= -.36911247E+02 E0= -.36911247E+02  d E =-.257327E-51
a= 0.185
 running on    4 total cores
 distrk:  each k-point on    4 cores,    1 groups
 distr:  one band on    1 cores,    4 groups
 using from now: INCAR     
 vasp.5.4.4.18Apr17-6-g9f103f2a35 (build May 31 2018 21:15:54) complex          
  
 POSCAR found type information on POSCAR  C 
 POSCAR found :  1 types and       4 ions
 scaLAPACK will be used
 LDA part: xc-table for Pade appr. of Perdew
 POSCAR, INCAR and KPOINTS ok, starting setup
 FFT: planning ...
 WAVECAR not read
 entering main loop
       N       E                     dE             d eps       ncg     rms          rms(c)
DAV:   1     0.128439485778E+03    0.12844E+03   -0.80117E+03  1152   0.149E+03
DAV:   2    -0.247803709519E+02   -0.15322E+03   -0.14010E+03  1864   0.246E+02
DAV:   3    -0.391406280074E+02   -0.14360E+02   -0.13952E+02  1428   0.858E+01
DAV:   4    -0.394598802249E+02   -0.31925E+00   -0.31824E+00  1468   0.158E+01
DAV:   5    -0.394697865214E+02   -0.99063E-02   -0.98816E-02  1456   0.268E+00    0.902E+00
DAV:   6    -0.376025372703E+02    0.18672E+01   -0.17605E+00  1384   0.928E+00    0.529E+00
DAV:   7    -0.369359032919E+02    0.66663E+00   -0.22675E+00  1424   0.105E+01    0.136E+00
DAV:   8    -0.369312133096E+02    0.46900E-02   -0.82921E-02  1428   0.203E+00    0.123E-01
DAV:   9    -0.369291511499E+02    0.20622E-02   -0.28909E-03  1496   0.420E-01    0.943E-02
DAV:  10    -0.369224864354E+02    0.66647E-02   -0.34944E-03  1372   0.343E-01    0.940E-02
DAV:  11    -0.369198538753E+02    0.26326E-02   -0.90967E-04  1432   0.194E-01    0.529E-02
DAV:  12    -0.369162850080E+02    0.35689E-02   -0.17519E-03  1228   0.251E-01    0.360E-02
DAV:  13    -0.369159738008E+02    0.31121E-03   -0.29361E-04  1244   0.121E-01    0.306E-02
DAV:  14    -0.369170401358E+02   -0.10663E-02   -0.55429E-04  1316   0.119E-01    0.335E-02
DAV:  15    -0.369178362367E+02   -0.79610E-03   -0.15337E-04  1336   0.864E-02    0.369E-02
DAV:  16    -0.369180705633E+02   -0.23433E-03   -0.10880E-05  1368   0.242E-02    0.572E-03
DAV:  17    -0.369182149795E+02   -0.14442E-03   -0.35045E-06  1328   0.123E-02    0.744E-03
DAV:  18    -0.369182381262E+02   -0.23147E-04   -0.95696E-07  1364   0.707E-03    0.157E-03
DAV:  19    -0.369182408640E+02   -0.27378E-05   -0.76311E-08  1336   0.208E-03    0.608E-04
DAV:  20    -0.369182413895E+02   -0.52553E-06   -0.14417E-08  1216   0.894E-04    0.338E-05
DAV:  21    -0.369182414365E+02   -0.47009E-07   -0.13691E-09   988   0.285E-04    0.342E-05
DAV:  22    -0.369182414470E+02   -0.10456E-07   -0.58472E-10   836   0.155E-04    0.924E-06
DAV:  23    -0.369182414455E+02    0.15129E-08   -0.10011E-10   976   0.716E-05
   1 F= -.36918241E+02 E0= -.36918241E+02  d E =-.574384E-28
a= 0.190
 running on    4 total cores
 distrk:  each k-point on    4 cores,    1 groups
 distr:  one band on    1 cores,    4 groups
 using from now: INCAR     
 vasp.5.4.4.18Apr17-6-g9f103f2a35 (build May 31 2018 21:15:54) complex          
  
 POSCAR found type information on POSCAR  C 
 POSCAR found :  1 types and       4 ions
 scaLAPACK will be used
 LDA part: xc-table for Pade appr. of Perdew
 POSCAR, INCAR and KPOINTS ok, starting setup
 FFT: planning ...
 WAVECAR not read
 entering main loop
       N       E                     dE             d eps       ncg     rms          rms(c)
DAV:   1     0.128032046749E+03    0.12803E+03   -0.80122E+03  1152   0.149E+03
DAV:   2    -0.248311457897E+02   -0.15286E+03   -0.13988E+03  1844   0.245E+02
DAV:   3    -0.391504541065E+02   -0.14319E+02   -0.14204E+02  1424   0.862E+01
DAV:   4    -0.394724832536E+02   -0.32203E+00   -0.32106E+00  1492   0.158E+01
DAV:   5    -0.394820630832E+02   -0.95798E-02   -0.95605E-02  1468   0.262E+00    0.902E+00
DAV:   6    -0.376102522911E+02    0.18718E+01   -0.17498E+00  1388   0.928E+00    0.529E+00
DAV:   7    -0.369398510832E+02    0.67040E+00   -0.22871E+00  1412   0.105E+01    0.137E+00
DAV:   8    -0.369357089581E+02    0.41421E-02   -0.80524E-02  1440   0.203E+00    0.130E-01
DAV:   9    -0.369337413136E+02    0.19676E-02   -0.28278E-03  1520   0.419E-01    0.948E-02
DAV:  10    -0.369268905932E+02    0.68507E-02   -0.37949E-03  1396   0.355E-01    0.102E-01
DAV:  11    -0.369245608455E+02    0.23297E-02   -0.75280E-04  1364   0.177E-01    0.530E-02
DAV:  12    -0.369210202937E+02    0.35406E-02   -0.17169E-03  1244   0.252E-01    0.365E-02
DAV:  13    -0.369206981103E+02    0.32218E-03   -0.29204E-04  1292   0.120E-01    0.324E-02
DAV:  14    -0.369218951967E+02   -0.11971E-02   -0.60904E-04  1280   0.130E-01    0.281E-02
DAV:  15    -0.369225860654E+02   -0.69087E-03   -0.11481E-04  1396   0.829E-02    0.286E-02
DAV:  16    -0.369228570314E+02   -0.27097E-03   -0.21820E-05  1340   0.299E-02    0.815E-03
DAV:  17    -0.369229896308E+02   -0.13260E-03   -0.33944E-06  1372   0.137E-02    0.916E-03
DAV:  18    -0.369230090646E+02   -0.19434E-04   -0.62518E-07  1352   0.686E-03    0.961E-04
DAV:  19    -0.369230141369E+02   -0.50723E-05   -0.13649E-07  1308   0.296E-03    0.946E-04
DAV:  20    -0.369230147258E+02   -0.58891E-06   -0.25328E-08  1328   0.116E-03    0.675E-05
DAV:  21    -0.369230147739E+02   -0.48116E-07   -0.13498E-09   976   0.318E-04    0.354E-05
DAV:  22    -0.369230147842E+02   -0.10301E-07   -0.53861E-10   832   0.189E-04    0.197E-05
DAV:  23    -0.369230147811E+02    0.31873E-08   -0.97030E-11  1032   0.845E-05
   1 F= -.36923015E+02 E0= -.36923015E+02  d E =-.258930E-12
a= 0.195
 running on    4 total cores
 distrk:  each k-point on    4 cores,    1 groups
 distr:  one band on    1 cores,    4 groups
 using from now: INCAR     
 vasp.5.4.4.18Apr17-6-g9f103f2a35 (build May 31 2018 21:15:54) complex          
  
 POSCAR found type information on POSCAR  C 
 POSCAR found :  1 types and       4 ions
 scaLAPACK will be used
 LDA part: xc-table for Pade appr. of Perdew
 POSCAR, INCAR and KPOINTS ok, starting setup
 FFT: planning ...
 WAVECAR not read
 entering main loop
       N       E                     dE             d eps       ncg     rms          rms(c)
DAV:   1     0.127545664045E+03    0.12755E+03   -0.80133E+03  1152   0.149E+03
DAV:   2    -0.251250540134E+02   -0.15267E+03   -0.13979E+03  1828   0.245E+02
DAV:   3    -0.391720667200E+02   -0.14047E+02   -0.13913E+02  1424   0.858E+01
DAV:   4    -0.394834099450E+02   -0.31134E+00   -0.31051E+00  1484   0.155E+01
DAV:   5    -0.394920842572E+02   -0.86743E-02   -0.86573E-02  1480   0.253E+00    0.902E+00
DAV:   6    -0.376167823885E+02    0.18753E+01   -0.17481E+00  1372   0.926E+00    0.529E+00
DAV:   7    -0.369418551960E+02    0.67493E+00   -0.22926E+00  1416   0.105E+01    0.137E+00
DAV:   8    -0.369385541362E+02    0.33011E-02   -0.79040E-02  1432   0.202E+00    0.129E-01
DAV:   9    -0.369366608669E+02    0.18933E-02   -0.27253E-03  1496   0.415E-01    0.937E-02
DAV:  10    -0.369297376423E+02    0.69232E-02   -0.38440E-03  1400   0.361E-01    0.102E-01
DAV:  11    -0.369277236808E+02    0.20140E-02   -0.63192E-04  1348   0.165E-01    0.528E-02
DAV:  12    -0.369242218106E+02    0.35019E-02   -0.17249E-03  1220   0.255E-01    0.363E-02
DAV:  13    -0.369238337819E+02    0.38803E-03   -0.27723E-04  1312   0.116E-01    0.324E-02
DAV:  14    -0.369251224896E+02   -0.12887E-02   -0.60362E-04  1272   0.132E-01    0.264E-02
DAV:  15    -0.369257937781E+02   -0.67129E-03   -0.10635E-04  1412   0.793E-02    0.265E-02
DAV:  16    -0.369260656745E+02   -0.27190E-03   -0.18432E-05  1324   0.292E-02    0.678E-03
DAV:  17    -0.369261861627E+02   -0.12049E-03   -0.26459E-06  1336   0.133E-02    0.685E-03
DAV:  18    -0.369262080023E+02   -0.21840E-04   -0.11015E-06  1304   0.781E-03    0.806E-04
DAV:  19    -0.369262109777E+02   -0.29755E-05   -0.61711E-08  1324   0.217E-03    0.102E-03
DAV:  20    -0.369262112334E+02   -0.25566E-06   -0.13538E-08  1148   0.888E-04    0.113E-04
DAV:  21    -0.369262112654E+02   -0.31956E-07   -0.10676E-09   924   0.284E-04    0.374E-05
DAV:  22    -0.369262112721E+02   -0.66939E-08   -0.40908E-10   860   0.168E-04
   1 F= -.36926211E+02 E0= -.36926211E+02  d E =-.205115E-60
a= 0.200
 running on    4 total cores
 distrk:  each k-point on    4 cores,    1 groups
 distr:  one band on    1 cores,    4 groups
 using from now: INCAR     
 vasp.5.4.4.18Apr17-6-g9f103f2a35 (build May 31 2018 21:15:54) complex          
  
 POSCAR found type information on POSCAR  C 
 POSCAR found :  1 types and       4 ions
 scaLAPACK will be used
 LDA part: xc-table for Pade appr. of Perdew
 POSCAR, INCAR and KPOINTS ok, starting setup
 FFT: planning ...
 WAVECAR not read
 entering main loop
       N       E                     dE             d eps       ncg     rms          rms(c)
DAV:   1     0.127044697629E+03    0.12704E+03   -0.80145E+03  1152   0.149E+03
DAV:   2    -0.250838575120E+02   -0.15213E+03   -0.13899E+03  1844   0.245E+02
DAV:   3    -0.391897247662E+02   -0.14106E+02   -0.13977E+02  1444   0.858E+01
DAV:   4    -0.394913594223E+02   -0.30163E+00   -0.30080E+00  1476   0.153E+01
DAV:   5    -0.395001842214E+02   -0.88248E-02   -0.88112E-02  1468   0.254E+00    0.902E+00
DAV:   6    -0.376224621562E+02    0.18777E+01   -0.17449E+00  1380   0.925E+00    0.529E+00
DAV:   7    -0.369430667716E+02    0.67940E+00   -0.22962E+00  1416   0.105E+01    0.138E+00
DAV:   8    -0.369402652144E+02    0.28016E-02   -0.75661E-02  1436   0.199E+00    0.133E-01
DAV:   9    -0.369384978505E+02    0.17674E-02   -0.25928E-03  1448   0.407E-01    0.936E-02
DAV:  10    -0.369314622910E+02    0.70356E-02   -0.40373E-03  1368   0.376E-01    0.106E-01
DAV:  11    -0.369297684107E+02    0.16939E-02   -0.53005E-04  1360   0.155E-01    0.528E-02
DAV:  12    -0.369262707839E+02    0.34976E-02   -0.17451E-03  1208   0.259E-01    0.366E-02
DAV:  13    -0.369258870213E+02    0.38376E-03   -0.24767E-04  1288   0.111E-01    0.334E-02
DAV:  14    -0.369272306263E+02   -0.13436E-02   -0.56598E-04  1260   0.133E-01    0.239E-02
DAV:  15    -0.369279020046E+02   -0.67138E-03   -0.99035E-05  1372   0.750E-02    0.252E-02
DAV:  16    -0.369281735102E+02   -0.27151E-03   -0.16651E-05  1320   0.311E-02    0.506E-03
DAV:  17    -0.369282799336E+02   -0.10642E-03   -0.24165E-06  1320   0.135E-02    0.484E-03
DAV:  18    -0.369283027842E+02   -0.22851E-04   -0.12353E-06  1296   0.782E-03    0.666E-04
DAV:  19    -0.369283058309E+02   -0.30467E-05   -0.66515E-08  1336   0.206E-03    0.114E-03
DAV:  20    -0.369283059472E+02   -0.11626E-06   -0.55047E-09   944   0.692E-04    0.491E-05
DAV:  21    -0.369283059625E+02   -0.15356E-07   -0.98682E-10   896   0.307E-04    0.510E-05
DAV:  22    -0.369283059641E+02   -0.15384E-08   -0.31812E-10   912   0.156E-04
   1 F= -.36928306E+02 E0= -.36928306E+02  d E =-.257262E-15
a= 0.205
 running on    4 total cores
 distrk:  each k-point on    4 cores,    1 groups
 distr:  one band on    1 cores,    4 groups
 using from now: INCAR     
 vasp.5.4.4.18Apr17-6-g9f103f2a35 (build May 31 2018 21:15:54) complex          
  
 POSCAR found type information on POSCAR  C 
 POSCAR found :  1 types and       4 ions
 scaLAPACK will be used
 LDA part: xc-table for Pade appr. of Perdew
 POSCAR, INCAR and KPOINTS ok, starting setup
 FFT: planning ...
 WAVECAR not read
 entering main loop
       N       E                     dE             d eps       ncg     rms          rms(c)
DAV:   1     0.126569598005E+03    0.12657E+03   -0.80156E+03  1152   0.149E+03
DAV:   2    -0.249882241607E+02   -0.15156E+03   -0.13819E+03  1844   0.245E+02
DAV:   3    -0.391967331710E+02   -0.14209E+02   -0.13945E+02  1448   0.855E+01
DAV:   4    -0.394985041157E+02   -0.30177E+00   -0.30101E+00  1480   0.151E+01
DAV:   5    -0.395069120023E+02   -0.84079E-02   -0.83924E-02  1468   0.245E+00    0.902E+00
DAV:   6    -0.376272451272E+02    0.18797E+01   -0.17445E+00  1376   0.925E+00    0.529E+00
DAV:   7    -0.369430217588E+02    0.68422E+00   -0.22973E+00  1420   0.105E+01    0.137E+00
DAV:   8    -0.369412281135E+02    0.17936E-02   -0.77106E-02  1468   0.198E+00    0.128E-01
DAV:   9    -0.369394992142E+02    0.17289E-02   -0.24278E-03  1448   0.394E-01    0.920E-02
DAV:  10    -0.369325138139E+02    0.69854E-02   -0.41392E-03  1372   0.386E-01    0.103E-01
DAV:  11    -0.369311047220E+02    0.14091E-02   -0.45170E-04  1344   0.148E-01    0.524E-02
DAV:  12    -0.369275650287E+02    0.35397E-02   -0.17786E-03  1212   0.263E-01    0.364E-02
DAV:  13    -0.369271754528E+02    0.38958E-03   -0.22555E-04  1276   0.106E-01    0.326E-02
DAV:  14    -0.369285505461E+02   -0.13751E-02   -0.52051E-04  1264   0.130E-01    0.229E-02
DAV:  15    -0.369292561298E+02   -0.70558E-03   -0.10255E-04  1364   0.730E-02    0.240E-02
DAV:  16    -0.369295087789E+02   -0.25265E-03   -0.14420E-05  1328   0.308E-02    0.438E-03
DAV:  17    -0.369296079397E+02   -0.99161E-04   -0.24632E-06  1312   0.138E-02    0.360E-03
DAV:  18    -0.369296308959E+02   -0.22956E-04   -0.11330E-06  1316   0.739E-03    0.695E-04
DAV:  19    -0.369296340489E+02   -0.31530E-05   -0.88957E-08  1336   0.222E-03    0.928E-04
DAV:  20    -0.369296341342E+02   -0.85329E-07   -0.78339E-09   988   0.830E-04    0.358E-05
DAV:  21    -0.369296341388E+02   -0.46261E-08   -0.95111E-10   900   0.328E-04
   1 F= -.36929634E+02 E0= -.36929634E+02  d E =-.278782E-23
a= 0.210
 running on    4 total cores
 distrk:  each k-point on    4 cores,    1 groups
 distr:  one band on    1 cores,    4 groups
 using from now: INCAR     
 vasp.5.4.4.18Apr17-6-g9f103f2a35 (build May 31 2018 21:15:54) complex          
  
 POSCAR found type information on POSCAR  C 
 POSCAR found :  1 types and       4 ions
 scaLAPACK will be used
 LDA part: xc-table for Pade appr. of Perdew
 POSCAR, INCAR and KPOINTS ok, starting setup
 FFT: planning ...
 WAVECAR not read
 entering main loop
       N       E                     dE             d eps       ncg     rms          rms(c)
DAV:   1     0.126129907962E+03    0.12613E+03   -0.80166E+03  1152   0.149E+03
DAV:   2    -0.254043868034E+02   -0.15153E+03   -0.13780E+03  1880   0.245E+02
DAV:   3    -0.392046353557E+02   -0.13800E+02   -0.13566E+02  1416   0.847E+01
DAV:   4    -0.395042169271E+02   -0.29958E+00   -0.29865E+00  1500   0.151E+01
DAV:   5    -0.395124683874E+02   -0.82515E-02   -0.82376E-02  1480   0.244E+00    0.902E+00
DAV:   6    -0.376311307626E+02    0.18813E+01   -0.17461E+00  1380   0.924E+00    0.529E+00
DAV:   7    -0.369426473758E+02    0.68848E+00   -0.23062E+00  1420   0.105E+01    0.138E+00
DAV:   8    -0.369416293824E+02    0.10180E-02   -0.77216E-02  1404   0.198E+00    0.127E-01
DAV:   9    -0.369399943207E+02    0.16351E-02   -0.23823E-03  1480   0.394E-01    0.913E-02
DAV:  10    -0.369331680830E+02    0.68262E-02   -0.40345E-03  1364   0.388E-01    0.997E-02
DAV:  11    -0.369319581396E+02    0.12099E-02   -0.42181E-04  1364   0.143E-01    0.524E-02
DAV:  12    -0.369282534109E+02    0.37047E-02   -0.18750E-03  1208   0.267E-01    0.352E-02
DAV:  13    -0.369279685020E+02    0.28491E-03   -0.20071E-04  1288   0.100E-01    0.349E-02
DAV:  14    -0.369292552906E+02   -0.12868E-02   -0.41877E-04  1260   0.123E-01    0.214E-02
DAV:  15    -0.369300771946E+02   -0.82190E-03   -0.12545E-04  1352   0.738E-02    0.238E-02
DAV:  16    -0.369302931303E+02   -0.21594E-03   -0.12838E-05  1352   0.297E-02    0.454E-03
DAV:  17    -0.369303940369E+02   -0.10091E-03   -0.32771E-06  1296   0.159E-02    0.264E-03
DAV:  18    -0.369304160010E+02   -0.21964E-04   -0.10747E-06  1328   0.731E-03    0.752E-04
DAV:  19    -0.369304201598E+02   -0.41587E-05   -0.13288E-07  1296   0.245E-03    0.527E-04
DAV:  20    -0.369304203903E+02   -0.23048E-06   -0.13173E-08  1212   0.927E-04    0.632E-05
DAV:  21    -0.369304203905E+02   -0.25261E-09   -0.88505E-10   940   0.278E-04
   1 F= -.36930420E+02 E0= -.36930420E+02  d E =-.503436E-21
a= 0.215
 running on    4 total cores
 distrk:  each k-point on    4 cores,    1 groups
 distr:  one band on    1 cores,    4 groups
 using from now: INCAR     
 vasp.5.4.4.18Apr17-6-g9f103f2a35 (build May 31 2018 21:15:54) complex          
  
 POSCAR found type information on POSCAR  C 
 POSCAR found :  1 types and       4 ions
 scaLAPACK will be used
 LDA part: xc-table for Pade appr. of Perdew
 POSCAR, INCAR and KPOINTS ok, starting setup
 FFT: planning ...
 WAVECAR not read
 entering main loop
       N       E                     dE             d eps       ncg     rms          rms(c)
DAV:   1     0.125772263149E+03    0.12577E+03   -0.80176E+03  1152   0.149E+03
DAV:   2    -0.255391895438E+02   -0.15131E+03   -0.13764E+03  1900   0.245E+02
DAV:   3    -0.391912302809E+02   -0.13652E+02   -0.13425E+02  1404   0.843E+01
DAV:   4    -0.395075382428E+02   -0.31631E+00   -0.31540E+00  1504   0.154E+01
DAV:   5    -0.395169676745E+02   -0.94294E-02   -0.94115E-02  1440   0.254E+00    0.902E+00
DAV:   6    -0.376346832647E+02    0.18823E+01   -0.17418E+00  1364   0.923E+00    0.529E+00
DAV:   7    -0.369426156663E+02    0.69207E+00   -0.23142E+00  1416   0.105E+01    0.138E+00
DAV:   8    -0.369416929505E+02    0.92272E-03   -0.72577E-02  1412   0.195E+00    0.131E-01
DAV:   9    -0.369401409752E+02    0.15520E-02   -0.22095E-03  1464   0.381E-01    0.916E-02
DAV:  10    -0.369334988571E+02    0.66421E-02   -0.39993E-03  1352   0.393E-01    0.996E-02
DAV:  11    -0.369324574404E+02    0.10414E-02   -0.41325E-04  1368   0.143E-01    0.523E-02
DAV:  12    -0.369286075444E+02    0.38499E-02   -0.19728E-03  1212   0.271E-01    0.350E-02
DAV:  13    -0.369283908886E+02    0.21666E-03   -0.19038E-04  1300   0.968E-02    0.391E-02
DAV:  14    -0.369295870696E+02   -0.11962E-02   -0.34087E-04  1252   0.116E-01    0.209E-02
DAV:  15    -0.369305119493E+02   -0.92488E-03   -0.15458E-04  1332   0.741E-02    0.253E-02
DAV:  16    -0.369307029257E+02   -0.19098E-03   -0.15022E-05  1368   0.304E-02    0.483E-03
DAV:  17    -0.369308075976E+02   -0.10467E-03   -0.38008E-06  1288   0.176E-02    0.240E-03
DAV:  18    -0.369308270846E+02   -0.19487E-04   -0.87414E-07  1332   0.676E-03    0.951E-04
DAV:  19    -0.369308320852E+02   -0.50006E-05   -0.15583E-07  1296   0.266E-03    0.451E-04
DAV:  20    -0.369308325203E+02   -0.43515E-06   -0.20091E-08  1260   0.969E-04    0.772E-05
DAV:  21    -0.369308325246E+02   -0.42498E-08   -0.10529E-09   956   0.287E-04
   1 F= -.36930833E+02 E0= -.36930833E+02  d E =-.241373E-13
a= 0.220
 running on    4 total cores
 distrk:  each k-point on    4 cores,    1 groups
 distr:  one band on    1 cores,    4 groups
 using from now: INCAR     
 vasp.5.4.4.18Apr17-6-g9f103f2a35 (build May 31 2018 21:15:54) complex          
  
 POSCAR found type information on POSCAR  C 
 POSCAR found :  1 types and       4 ions
 scaLAPACK will be used
 LDA part: xc-table for Pade appr. of Perdew
 POSCAR, INCAR and KPOINTS ok, starting setup
 FFT: planning ...
 WAVECAR not read
 entering main loop
       N       E                     dE             d eps       ncg     rms          rms(c)
DAV:   1     0.125489768653E+03    0.12549E+03   -0.80183E+03  1152   0.149E+03
DAV:   2    -0.254986391097E+02   -0.15099E+03   -0.13707E+03  1872   0.245E+02
DAV:   3    -0.391992828865E+02   -0.13701E+02   -0.13526E+02  1412   0.845E+01
DAV:   4    -0.395114776946E+02   -0.31219E+00   -0.31134E+00  1476   0.154E+01
DAV:   5    -0.395207049418E+02   -0.92272E-02   -0.92110E-02  1440   0.255E+00    0.902E+00
DAV:   6    -0.376380583244E+02    0.18826E+01   -0.17390E+00  1364   0.923E+00    0.529E+00
DAV:   7    -0.369421211019E+02    0.69594E+00   -0.23135E+00  1416   0.105E+01    0.138E+00
DAV:   8    -0.369414832774E+02    0.63782E-03   -0.70521E-02  1424   0.193E+00    0.132E-01
DAV:   9    -0.369400005640E+02    0.14827E-02   -0.21785E-03  1448   0.382E-01    0.914E-02
DAV:  10    -0.369336990712E+02    0.63015E-02   -0.38962E-03  1344   0.390E-01    0.970E-02
DAV:  11    -0.369326961147E+02    0.10030E-02   -0.42577E-04  1368   0.144E-01    0.535E-02
DAV:  12    -0.369286799209E+02    0.40162E-02   -0.20674E-03  1208   0.274E-01    0.350E-02
DAV:  13    -0.369285738332E+02    0.10609E-03   -0.17074E-04  1312   0.922E-02    0.414E-02
DAV:  14    -0.369297169586E+02   -0.11431E-02   -0.30376E-04  1252   0.110E-01    0.206E-02
DAV:  15    -0.369306913981E+02   -0.97444E-03   -0.17027E-04  1320   0.763E-02    0.262E-02
DAV:  16    -0.369308661494E+02   -0.17475E-03   -0.18955E-05  1384   0.322E-02    0.498E-03
DAV:  17    -0.369309659456E+02   -0.99796E-04   -0.37341E-06  1280   0.180E-02    0.233E-03
DAV:  18    -0.369309819570E+02   -0.16011E-04   -0.65233E-07  1348   0.606E-03    0.926E-04
DAV:  19    -0.369309877922E+02   -0.58352E-05   -0.16806E-07  1260   0.263E-03    0.385E-04
DAV:  20    -0.369309884770E+02   -0.68470E-06   -0.28292E-08  1304   0.104E-03    0.129E-04
DAV:  21    -0.369309884966E+02   -0.19664E-07   -0.17317E-09   944   0.304E-04    0.483E-05
DAV:  22    -0.369309884970E+02   -0.35243E-09   -0.27709E-10  1008   0.134E-04
   1 F= -.36930988E+02 E0= -.36930988E+02  d E =-.568041E-15
a= 0.225
 running on    4 total cores
 distrk:  each k-point on    4 cores,    1 groups
 distr:  one band on    1 cores,    4 groups
 using from now: INCAR     
 vasp.5.4.4.18Apr17-6-g9f103f2a35 (build May 31 2018 21:15:54) complex          
  
 POSCAR found type information on POSCAR  C 
 POSCAR found :  1 types and       4 ions
 scaLAPACK will be used
 LDA part: xc-table for Pade appr. of Perdew
 POSCAR, INCAR and KPOINTS ok, starting setup
 FFT: planning ...
 WAVECAR not read
 entering main loop
       N       E                     dE             d eps       ncg     rms          rms(c)
DAV:   1     0.125285938113E+03    0.12529E+03   -0.80187E+03  1152   0.149E+03
DAV:   2    -0.253984608974E+02   -0.15068E+03   -0.13738E+03  1872   0.245E+02
DAV:   3    -0.392001349826E+02   -0.13802E+02   -0.13565E+02  1436   0.846E+01
DAV:   4    -0.395150193979E+02   -0.31488E+00   -0.31406E+00  1496   0.154E+01
DAV:   5    -0.395238012372E+02   -0.87818E-02   -0.87703E-02  1432   0.250E+00    0.902E+00
DAV:   6    -0.376410598700E+02    0.18827E+01   -0.17326E+00  1384   0.922E+00    0.529E+00
DAV:   7    -0.369414805445E+02    0.69958E+00   -0.23117E+00  1420   0.105E+01    0.138E+00
DAV:   8    -0.369411428619E+02    0.33768E-03   -0.70742E-02  1428   0.193E+00    0.135E-01
DAV:   9    -0.369397131100E+02    0.14298E-02   -0.20585E-03  1484   0.367E-01    0.919E-02
DAV:  10    -0.369337797953E+02    0.59333E-02   -0.39744E-03  1316   0.388E-01    0.948E-02
DAV:  11    -0.369327727147E+02    0.10071E-02   -0.40060E-04  1388   0.140E-01    0.549E-02
DAV:  12    -0.369286207720E+02    0.41519E-02   -0.21542E-03  1196   0.277E-01    0.365E-02
DAV:  13    -0.369285779694E+02    0.42803E-04   -0.15854E-04  1320   0.879E-02    0.399E-02
DAV:  14    -0.369297137490E+02   -0.11358E-02   -0.28409E-04  1264   0.105E-01    0.200E-02
DAV:  15    -0.369307045237E+02   -0.99077E-03   -0.17929E-04  1320   0.751E-02    0.254E-02
DAV:  16    -0.369308722078E+02   -0.16768E-03   -0.22593E-05  1356   0.341E-02    0.468E-03
DAV:  17    -0.369309560587E+02   -0.83851E-04   -0.30239E-06  1276   0.166E-02    0.214E-03
DAV:  18    -0.369309691303E+02   -0.13072E-04   -0.48914E-07  1380   0.536E-03    0.820E-04
DAV:  19    -0.369309744861E+02   -0.53559E-05   -0.16324E-07  1284   0.243E-03    0.371E-04
DAV:  20    -0.369309754255E+02   -0.93940E-06   -0.35737E-08  1356   0.107E-03    0.132E-04
DAV:  21    -0.369309754820E+02   -0.56488E-07   -0.30492E-09   932   0.327E-04    0.488E-05
DAV:  22    -0.369309754830E+02   -0.97657E-09   -0.38904E-10  1036   0.143E-04
   1 F= -.36930975E+02 E0= -.36930975E+02  d E =-.158874E-11
a= 0.230
 running on    4 total cores
 distrk:  each k-point on    4 cores,    1 groups
 distr:  one band on    1 cores,    4 groups
 using from now: INCAR     
 vasp.5.4.4.18Apr17-6-g9f103f2a35 (build May 31 2018 21:15:54) complex          
  
 POSCAR found type information on POSCAR  C 
 POSCAR found :  1 types and       4 ions
 scaLAPACK will be used
 LDA part: xc-table for Pade appr. of Perdew
 POSCAR, INCAR and KPOINTS ok, starting setup
 FFT: planning ...
 WAVECAR not read
 entering main loop
       N       E                     dE             d eps       ncg     rms          rms(c)
DAV:   1     0.125127236377E+03    0.12513E+03   -0.80189E+03  1152   0.149E+03
DAV:   2    -0.253326683344E+02   -0.15046E+03   -0.13731E+03  1860   0.245E+02
DAV:   3    -0.392126417153E+02   -0.13880E+02   -0.13628E+02  1424   0.848E+01
DAV:   4    -0.395180100010E+02   -0.30537E+00   -0.30460E+00  1492   0.153E+01
DAV:   5    -0.395264001597E+02   -0.83902E-02   -0.83786E-02  1444   0.243E+00    0.902E+00
DAV:   6    -0.376435408085E+02    0.18829E+01   -0.17312E+00  1380   0.921E+00    0.529E+00
DAV:   7    -0.369406365903E+02    0.70290E+00   -0.23155E+00  1408   0.106E+01    0.138E+00
DAV:   8    -0.369406749284E+02   -0.38338E-04   -0.71427E-02  1416   0.194E+00    0.136E-01
DAV:   9    -0.369393062303E+02    0.13687E-02   -0.21826E-03  1476   0.378E-01    0.922E-02
DAV:  10    -0.369337349370E+02    0.55713E-02   -0.38387E-03  1324   0.379E-01    0.921E-02
DAV:  11    -0.369327386707E+02    0.99627E-03   -0.44139E-04  1392   0.146E-01    0.562E-02
DAV:  12    -0.369284763131E+02    0.42624E-02   -0.22416E-03  1196   0.282E-01    0.377E-02
DAV:  13    -0.369285015028E+02   -0.25190E-04   -0.14753E-04  1344   0.854E-02    0.436E-02
DAV:  14    -0.369295833628E+02   -0.10819E-02   -0.25413E-04  1260   0.997E-02    0.196E-02
DAV:  15    -0.369305869136E+02   -0.10036E-02   -0.18604E-04  1324   0.765E-02    0.264E-02
DAV:  16    -0.369307596194E+02   -0.17271E-03   -0.30570E-05  1364   0.384E-02    0.477E-03
DAV:  17    -0.369308404445E+02   -0.80825E-04   -0.32245E-06  1276   0.174E-02    0.212E-03
DAV:  18    -0.369308502363E+02   -0.97918E-05   -0.41186E-07  1384   0.514E-03    0.684E-04
DAV:  19    -0.369308552382E+02   -0.50019E-05   -0.15141E-07  1308   0.226E-03    0.319E-04
DAV:  20    -0.369308562223E+02   -0.98412E-06   -0.20491E-08  1240   0.844E-04    0.142E-04
DAV:  21    -0.369308564258E+02   -0.20353E-06   -0.84295E-09  1116   0.434E-04    0.580E-05
DAV:  22    -0.369308564288E+02   -0.29136E-08   -0.56439E-10  1020   0.154E-04
   1 F= -.36930856E+02 E0= -.36930856E+02  d E =-.401220E-09
a= 0.235
 running on    4 total cores
 distrk:  each k-point on    4 cores,    1 groups
 distr:  one band on    1 cores,    4 groups
 using from now: INCAR     
 vasp.5.4.4.18Apr17-6-g9f103f2a35 (build May 31 2018 21:15:54) complex          
  
 POSCAR found type information on POSCAR  C 
 POSCAR found :  1 types and       4 ions
 scaLAPACK will be used
 LDA part: xc-table for Pade appr. of Perdew
 POSCAR, INCAR and KPOINTS ok, starting setup
 FFT: planning ...
 WAVECAR not read
 entering main loop
       N       E                     dE             d eps       ncg     rms          rms(c)
DAV:   1     0.125016101366E+03    0.12502E+03   -0.80191E+03  1152   0.149E+03
DAV:   2    -0.258131879666E+02   -0.15083E+03   -0.13774E+03  1884   0.245E+02
DAV:   3    -0.392176861458E+02   -0.13404E+02   -0.13301E+02  1440   0.840E+01
DAV:   4    -0.395196240621E+02   -0.30194E+00   -0.30115E+00  1496   0.152E+01
DAV:   5    -0.395284084664E+02   -0.87844E-02   -0.87750E-02  1432   0.250E+00    0.902E+00
DAV:   6    -0.376459050435E+02    0.18825E+01   -0.17284E+00  1396   0.921E+00    0.529E+00
DAV:   7    -0.369399697038E+02    0.70594E+00   -0.23151E+00  1412   0.105E+01    0.138E+00
DAV:   8    -0.369401542013E+02   -0.18450E-03   -0.70127E-02  1412   0.191E+00    0.133E-01
DAV:   9    -0.369388406332E+02    0.13136E-02   -0.21005E-03  1496   0.369E-01    0.920E-02
DAV:  10    -0.369336124071E+02    0.52282E-02   -0.37653E-03  1320   0.369E-01    0.872E-02
DAV:  11    -0.369325947770E+02    0.10176E-02   -0.46538E-04  1400   0.150E-01    0.588E-02
DAV:  12    -0.369282692474E+02    0.43255E-02   -0.22675E-03  1196   0.281E-01    0.395E-02
DAV:  13    -0.369283729832E+02   -0.10374E-03   -0.14097E-04  1344   0.829E-02    0.442E-02
DAV:  14    -0.369294450658E+02   -0.10721E-02   -0.23674E-04  1276   0.954E-02    0.189E-02
DAV:  15    -0.369304218289E+02   -0.97676E-03   -0.17687E-04  1312   0.753E-02    0.259E-02
DAV:  16    -0.369305936825E+02   -0.17185E-03   -0.34175E-05  1348   0.397E-02    0.438E-03
DAV:  17    -0.369306609411E+02   -0.67259E-04   -0.28744E-06  1300   0.166E-02    0.217E-03
DAV:  18    -0.369306685105E+02   -0.75694E-05   -0.39275E-07  1380   0.515E-03    0.568E-04
DAV:  19    -0.369306722330E+02   -0.37225E-05   -0.11659E-07  1332   0.199E-03    0.257E-04
DAV:  20    -0.369306729579E+02   -0.72491E-06   -0.66882E-09   976   0.594E-04    0.131E-04
DAV:  21    -0.369306732723E+02   -0.31442E-06   -0.10838E-08  1188   0.471E-04    0.537E-05
DAV:  22    -0.369306732795E+02   -0.72287E-08   -0.49461E-10   948   0.141E-04
   1 F= -.36930673E+02 E0= -.36930673E+02  d E =-.183290E-07
a= 0.240
 running on    4 total cores
 distrk:  each k-point on    4 cores,    1 groups
 distr:  one band on    1 cores,    4 groups
 using from now: INCAR     
 vasp.5.4.4.18Apr17-6-g9f103f2a35 (build May 31 2018 21:15:54) complex          
  
 POSCAR found type information on POSCAR  C 
 POSCAR found :  1 types and       4 ions
 scaLAPACK will be used
 LDA part: xc-table for Pade appr. of Perdew
 POSCAR, INCAR and KPOINTS ok, starting setup
 FFT: planning ...
 WAVECAR not read
 entering main loop
       N       E                     dE             d eps       ncg     rms          rms(c)
DAV:   1     0.124920941978E+03    0.12492E+03   -0.80193E+03  1152   0.149E+03
DAV:   2    -0.256038789846E+02   -0.15052E+03   -0.13682E+03  1860   0.246E+02
DAV:   3    -0.392100248554E+02   -0.13606E+02   -0.13503E+02  1436   0.846E+01
DAV:   4    -0.395205096177E+02   -0.31048E+00   -0.30963E+00  1488   0.154E+01
DAV:   5    -0.395300448510E+02   -0.95352E-02   -0.95232E-02  1436   0.258E+00    0.902E+00
DAV:   6    -0.376480758705E+02    0.18820E+01   -0.17219E+00  1392   0.921E+00    0.529E+00
DAV:   7    -0.369396032906E+02    0.70847E+00   -0.23269E+00  1420   0.106E+01    0.138E+00
DAV:   8    -0.369396974374E+02   -0.94147E-04   -0.68875E-02  1400   0.192E+00    0.138E-01
DAV:   9    -0.369383711596E+02    0.13263E-02   -0.21215E-03  1524   0.369E-01    0.932E-02
DAV:  10    -0.369334216612E+02    0.49495E-02   -0.37350E-03  1320   0.360E-01    0.874E-02
DAV:  11    -0.369324148045E+02    0.10069E-02   -0.50604E-04  1396   0.154E-01    0.615E-02
DAV:  12    -0.369280809789E+02    0.43338E-02   -0.22803E-03  1208   0.283E-01    0.415E-02
DAV:  13    -0.369281811563E+02   -0.10018E-03   -0.12729E-04  1340   0.778E-02    0.436E-02
DAV:  14    -0.369292249631E+02   -0.10438E-02   -0.19320E-04  1256   0.938E-02    0.183E-02
DAV:  15    -0.369301785772E+02   -0.95361E-03   -0.15511E-04  1292   0.731E-02    0.258E-02
DAV:  16    -0.369303779493E+02   -0.19937E-03   -0.40161E-05  1328   0.411E-02    0.463E-03
DAV:  17    -0.369304432045E+02   -0.65255E-04   -0.39553E-06  1304   0.181E-02    0.245E-03
DAV:  18    -0.369304484339E+02   -0.52294E-05   -0.40737E-07  1388   0.556E-03    0.585E-04
DAV:  19    -0.369304519528E+02   -0.35189E-05   -0.11804E-07  1312   0.206E-03    0.239E-04
DAV:  20    -0.369304522282E+02   -0.27536E-06   -0.32309E-09   992   0.371E-04    0.102E-04
DAV:  21    -0.369304524869E+02   -0.25866E-06   -0.27752E-09   900   0.325E-04    0.366E-05
DAV:  22    -0.369304525053E+02   -0.18485E-07   -0.61309E-10   916   0.135E-04    0.183E-05
DAV:  23    -0.369304525142E+02   -0.88346E-08   -0.15210E-10   924   0.783E-05
   1 F= -.36930453E+02 E0= -.36930452E+02  d E =-.261262E-06
a= 0.245
 running on    4 total cores
 distrk:  each k-point on    4 cores,    1 groups
 distr:  one band on    1 cores,    4 groups
 using from now: INCAR     
 vasp.5.4.4.18Apr17-6-g9f103f2a35 (build May 31 2018 21:15:54) complex          
  
 POSCAR found type information on POSCAR  C 
 POSCAR found :  1 types and       4 ions
 scaLAPACK will be used
 LDA part: xc-table for Pade appr. of Perdew
 POSCAR, INCAR and KPOINTS ok, starting setup
 FFT: planning ...
 WAVECAR not read
 entering main loop
       N       E                     dE             d eps       ncg     rms          rms(c)
DAV:   1     0.124772664038E+03    0.12477E+03   -0.80197E+03  1152   0.149E+03
DAV:   2    -0.257019833452E+02   -0.15047E+03   -0.13650E+03  1900   0.245E+02
DAV:   3    -0.392277759882E+02   -0.13526E+02   -0.13422E+02  1452   0.838E+01
DAV:   4    -0.395225008123E+02   -0.29472E+00   -0.29398E+00  1488   0.149E+01
DAV:   5    -0.395314850577E+02   -0.89842E-02   -0.89742E-02  1464   0.249E+00    0.902E+00
DAV:   6    -0.376503402006E+02    0.18811E+01   -0.17194E+00  1384   0.920E+00    0.530E+00
DAV:   7    -0.369391830707E+02    0.71116E+00   -0.23281E+00  1420   0.106E+01    0.138E+00
DAV:   8    -0.369391779427E+02    0.51280E-05   -0.67328E-02  1408   0.191E+00    0.135E-01
DAV:   9    -0.369378681506E+02    0.13098E-02   -0.19867E-03  1524   0.357E-01    0.933E-02
DAV:  10    -0.369331522495E+02    0.47159E-02   -0.36579E-03  1312   0.350E-01    0.835E-02
DAV:  11    -0.369321185132E+02    0.10337E-02   -0.54580E-04  1388   0.161E-01    0.703E-02
DAV:  12    -0.369278682985E+02    0.42502E-02   -0.21834E-03  1216   0.276E-01    0.439E-02
DAV:  13    -0.369280048568E+02   -0.13656E-03   -0.12997E-04  1332   0.772E-02    0.427E-02
DAV:  14    -0.369290254372E+02   -0.10206E-02   -0.17998E-04  1260   0.910E-02    0.173E-02
DAV:  15    -0.369299471578E+02   -0.92172E-03   -0.13710E-04  1276   0.674E-02    0.230E-02
DAV:  16    -0.369301540703E+02   -0.20691E-03   -0.41383E-05  1300   0.399E-02    0.404E-03
DAV:  17    -0.369302050289E+02   -0.50959E-04   -0.36318E-06  1340   0.168E-02    0.253E-03
DAV:  18    -0.369302101215E+02   -0.50926E-05   -0.45550E-07  1332   0.571E-03    0.575E-04
DAV:  19    -0.369302123340E+02   -0.22125E-05   -0.96568E-08  1312   0.192E-03    0.223E-04
DAV:  20    -0.369302124861E+02   -0.15213E-06   -0.48482E-09   996   0.389E-04    0.924E-05
DAV:  21    -0.369302125295E+02   -0.43362E-07   -0.28513E-09   852   0.262E-04    0.275E-05
DAV:  22    -0.369302125252E+02    0.42644E-08   -0.26982E-10   944   0.994E-05
   1 F= -.36930213E+02 E0= -.36930212E+02  d E =-.167043E-05
a= 0.250
 running on    4 total cores
 distrk:  each k-point on    4 cores,    1 groups
 distr:  one band on    1 cores,    4 groups
 using from now: INCAR     
 vasp.5.4.4.18Apr17-6-g9f103f2a35 (build May 31 2018 21:15:54) complex          
  
 POSCAR found type information on POSCAR  C 
 POSCAR found :  1 types and       4 ions
 scaLAPACK will be used
 LDA part: xc-table for Pade appr. of Perdew
 POSCAR, INCAR and KPOINTS ok, starting setup
 FFT: planning ...
 WAVECAR not read
 entering main loop
       N       E                     dE             d eps       ncg     rms          rms(c)
DAV:   1     0.124632994938E+03    0.12463E+03   -0.80201E+03  1152   0.149E+03
DAV:   2    -0.256566332846E+02   -0.15029E+03   -0.13629E+03  1900   0.246E+02
DAV:   3    -0.392302636740E+02   -0.13574E+02   -0.13475E+02  1468   0.836E+01
DAV:   4    -0.395236638386E+02   -0.29340E+00   -0.29271E+00  1468   0.147E+01
DAV:   5    -0.395325536343E+02   -0.88898E-02   -0.88818E-02  1464   0.246E+00    0.902E+00
DAV:   6    -0.376521733608E+02    0.18804E+01   -0.17197E+00  1388   0.919E+00    0.530E+00
DAV:   7    -0.369387338311E+02    0.71344E+00   -0.23316E+00  1408   0.106E+01    0.138E+00
DAV:   8    -0.369386147490E+02    0.11908E-03   -0.67169E-02  1404   0.190E+00    0.137E-01
DAV:   9    -0.369373782578E+02    0.12365E-02   -0.20963E-03  1488   0.363E-01    0.942E-02
DAV:  10    -0.369328178568E+02    0.45604E-02   -0.36012E-03  1324   0.345E-01    0.800E-02
DAV:  11    -0.369318435025E+02    0.97435E-03   -0.57579E-04  1380   0.165E-01    0.709E-02
DAV:  12    -0.369277521014E+02    0.40914E-02   -0.20710E-03  1212   0.270E-01    0.440E-02
DAV:  13    -0.369278557897E+02   -0.10369E-03   -0.15206E-04  1320   0.808E-02    0.476E-02
DAV:  14    -0.369287848411E+02   -0.92905E-03   -0.14850E-04  1292   0.847E-02    0.163E-02
DAV:  15    -0.369297138303E+02   -0.92899E-03   -0.13441E-04  1264   0.660E-02    0.217E-02
DAV:  16    -0.369299132519E+02   -0.19942E-03   -0.42545E-05  1296   0.407E-02    0.386E-03
DAV:  17    -0.369299612576E+02   -0.48006E-04   -0.36113E-06  1340   0.167E-02    0.272E-03
DAV:  18    -0.369299664407E+02   -0.51831E-05   -0.53786E-07  1344   0.595E-03    0.548E-04
DAV:  19    -0.369299680441E+02   -0.16034E-05   -0.10405E-07  1268   0.194E-03    0.221E-04
DAV:  20    -0.369299683775E+02   -0.33332E-06   -0.79230E-09  1180   0.438E-04    0.105E-04
DAV:  21    -0.369299685348E+02   -0.15739E-06   -0.71846E-09  1092   0.336E-04    0.486E-05
DAV:  22    -0.369299685497E+02   -0.14849E-07   -0.62776E-10   932   0.123E-04    0.164E-05
DAV:  23    -0.369299685545E+02   -0.48065E-08   -0.32668E-10   888   0.841E-05
   1 F= -.36929969E+02 E0= -.36929966E+02  d E =-.603346E-05
0.150 1 F= -.36738357E+02 E0= -.36738357E+02 d E =-.217276E-16
0.155 1 F= -.36795495E+02 E0= -.36795495E+02 d E =-.407777E-44
0.160 1 F= -.36836544E+02 E0= -.36836544E+02 d E =-.796217E-13
0.165 1 F= -.36865823E+02 E0= -.36865823E+02 d E =-.162053E-56
0.170 1 F= -.36886550E+02 E0= -.36886550E+02 d E =-.269579E-21
0.175 1 F= -.36901108E+02 E0= -.36901108E+02 d E =-.526120E-16
0.180 1 F= -.36911247E+02 E0= -.36911247E+02 d E =-.257327E-51
0.185 1 F= -.36918241E+02 E0= -.36918241E+02 d E =-.574384E-28
0.190 1 F= -.36923015E+02 E0= -.36923015E+02 d E =-.258930E-12
0.195 1 F= -.36926211E+02 E0= -.36926211E+02 d E =-.205115E-60
0.200 1 F= -.36928306E+02 E0= -.36928306E+02 d E =-.257262E-15
0.205 1 F= -.36929634E+02 E0= -.36929634E+02 d E =-.278782E-23
0.210 1 F= -.36930420E+02 E0= -.36930420E+02 d E =-.503436E-21
0.215 1 F= -.36930833E+02 E0= -.36930833E+02 d E =-.241373E-13
0.220 1 F= -.36930988E+02 E0= -.36930988E+02 d E =-.568041E-15
0.225 1 F= -.36930975E+02 E0= -.36930975E+02 d E =-.158874E-11
0.230 1 F= -.36930856E+02 E0= -.36930856E+02 d E =-.401220E-09
0.235 1 F= -.36930673E+02 E0= -.36930673E+02 d E =-.183290E-07
0.240 1 F= -.36930453E+02 E0= -.36930452E+02 d E =-.261262E-06
0.245 1 F= -.36930213E+02 E0= -.36930212E+02 d E =-.167043E-05
0.250 1 F= -.36929969E+02 E0= -.36929966E+02 d E =-.603346E-05
