       N       E                     dE             d eps       ncg     rms          rms(c)
DAV:   1     0.127545664045E+03    0.12755E+03   -0.80133E+03  1152   0.149E+03
DAV:   2    -0.251250540134E+02   -0.15267E+03   -0.13979E+03  1828   0.245E+02
DAV:   3    -0.391720667200E+02   -0.14047E+02   -0.13913E+02  1424   0.858E+01
DAV:   4    -0.394834099450E+02   -0.31134E+00   -0.31051E+00  1484   0.155E+01
DAV:   5    -0.394920842572E+02   -0.86743E-02   -0.86573E-02  1480   0.253E+00    0.902E+00
DAV:   6    -0.376167823885E+02    0.18753E+01   -0.17481E+00  1372   0.926E+00    0.529E+00
DAV:   7    -0.369418551960E+02    0.67493E+00   -0.22926E+00  1416   0.105E+01    0.137E+00
DAV:   8    -0.369385541362E+02    0.33011E-02   -0.79040E-02  1432   0.202E+00    0.129E-01
DAV:   9    -0.369366608669E+02    0.18933E-02   -0.27253E-03  1496   0.415E-01    0.937E-02
DAV:  10    -0.369297376423E+02    0.69232E-02   -0.38440E-03  1400   0.361E-01    0.102E-01
DAV:  11    -0.369277236808E+02    0.20140E-02   -0.63192E-04  1348   0.165E-01    0.528E-02
DAV:  12    -0.369242218106E+02    0.35019E-02   -0.17249E-03  1220   0.255E-01    0.363E-02
DAV:  13    -0.369238337819E+02    0.38803E-03   -0.27723E-04  1312   0.116E-01    0.324E-02
DAV:  14    -0.369251224896E+02   -0.12887E-02   -0.60362E-04  1272   0.132E-01    0.264E-02
DAV:  15    -0.369257937781E+02   -0.67129E-03   -0.10635E-04  1412   0.793E-02    0.265E-02
DAV:  16    -0.369260656745E+02   -0.27190E-03   -0.18432E-05  1324   0.292E-02    0.678E-03
DAV:  17    -0.369261861627E+02   -0.12049E-03   -0.26459E-06  1336   0.133E-02    0.685E-03
DAV:  18    -0.369262080023E+02   -0.21840E-04   -0.11015E-06  1304   0.781E-03    0.806E-04
DAV:  19    -0.369262109777E+02   -0.29755E-05   -0.61711E-08  1324   0.217E-03    0.102E-03
DAV:  20    -0.369262112334E+02   -0.25566E-06   -0.13538E-08  1148   0.888E-04    0.113E-04
DAV:  21    -0.369262112654E+02   -0.31956E-07   -0.10676E-09   924   0.284E-04    0.374E-05
DAV:  22    -0.369262112721E+02   -0.66939E-08   -0.40908E-10   860   0.168E-04
   1 F= -.36926211E+02 E0= -.36926211E+02  d E =-.205115E-60
