       N       E                     dE             d eps       ncg     rms          rms(c)
DAV:   1     0.126129907962E+03    0.12613E+03   -0.80166E+03  1152   0.149E+03
DAV:   2    -0.254043868034E+02   -0.15153E+03   -0.13780E+03  1880   0.245E+02
DAV:   3    -0.392046353557E+02   -0.13800E+02   -0.13566E+02  1416   0.847E+01
DAV:   4    -0.395042169271E+02   -0.29958E+00   -0.29865E+00  1500   0.151E+01
DAV:   5    -0.395124683874E+02   -0.82515E-02   -0.82376E-02  1480   0.244E+00    0.902E+00
DAV:   6    -0.376311307626E+02    0.18813E+01   -0.17461E+00  1380   0.924E+00    0.529E+00
DAV:   7    -0.369426473758E+02    0.68848E+00   -0.23062E+00  1420   0.105E+01    0.138E+00
DAV:   8    -0.369416293824E+02    0.10180E-02   -0.77216E-02  1404   0.198E+00    0.127E-01
DAV:   9    -0.369399943207E+02    0.16351E-02   -0.23823E-03  1480   0.394E-01    0.913E-02
DAV:  10    -0.369331680830E+02    0.68262E-02   -0.40345E-03  1364   0.388E-01    0.997E-02
DAV:  11    -0.369319581396E+02    0.12099E-02   -0.42181E-04  1364   0.143E-01    0.524E-02
DAV:  12    -0.369282534109E+02    0.37047E-02   -0.18750E-03  1208   0.267E-01    0.352E-02
DAV:  13    -0.369279685020E+02    0.28491E-03   -0.20071E-04  1288   0.100E-01    0.349E-02
DAV:  14    -0.369292552906E+02   -0.12868E-02   -0.41877E-04  1260   0.123E-01    0.214E-02
DAV:  15    -0.369300771946E+02   -0.82190E-03   -0.12545E-04  1352   0.738E-02    0.238E-02
DAV:  16    -0.369302931303E+02   -0.21594E-03   -0.12838E-05  1352   0.297E-02    0.454E-03
DAV:  17    -0.369303940369E+02   -0.10091E-03   -0.32771E-06  1296   0.159E-02    0.264E-03
DAV:  18    -0.369304160010E+02   -0.21964E-04   -0.10747E-06  1328   0.731E-03    0.752E-04
DAV:  19    -0.369304201598E+02   -0.41587E-05   -0.13288E-07  1296   0.245E-03    0.527E-04
DAV:  20    -0.369304203903E+02   -0.23048E-06   -0.13173E-08  1212   0.927E-04    0.632E-05
DAV:  21    -0.369304203905E+02   -0.25261E-09   -0.88505E-10   940   0.278E-04
   1 F= -.36930420E+02 E0= -.36930420E+02  d E =-.503436E-21
