       N       E                     dE             d eps       ncg     rms          rms(c)
DAV:   1     0.128888796136E+03    0.12889E+03   -0.80128E+03  1152   0.149E+03
DAV:   2    -0.243959470528E+02   -0.15328E+03   -0.13980E+03  1844   0.246E+02
DAV:   3    -0.390974419237E+02   -0.14701E+02   -0.14266E+02  1436   0.869E+01
DAV:   4    -0.394258382996E+02   -0.32840E+00   -0.32747E+00  1468   0.162E+01
DAV:   5    -0.394356330889E+02   -0.97948E-02   -0.97751E-02  1464   0.269E+00    0.902E+00
DAV:   6    -0.375790253924E+02    0.18566E+01   -0.17469E+00  1392   0.927E+00    0.529E+00
DAV:   7    -0.369212538485E+02    0.65777E+00   -0.22380E+00  1424   0.105E+01    0.136E+00
DAV:   8    -0.369147311297E+02    0.65227E-02   -0.83003E-02  1412   0.206E+00    0.121E-01
DAV:   9    -0.369123994529E+02    0.23317E-02   -0.33608E-03  1468   0.443E-01    0.955E-02
DAV:  10    -0.369060165306E+02    0.63829E-02   -0.31420E-03  1404   0.330E-01    0.887E-02
DAV:  11    -0.369028582896E+02    0.31582E-02   -0.12379E-03  1328   0.224E-01    0.534E-02
DAV:  12    -0.368991728726E+02    0.36854E-02   -0.16972E-03  1248   0.241E-01    0.352E-02
DAV:  13    -0.368989265001E+02    0.24637E-03   -0.35820E-04  1240   0.133E-01    0.316E-02
DAV:  14    -0.368998860991E+02   -0.95960E-03   -0.54174E-04  1320   0.119E-01    0.319E-02
DAV:  15    -0.369006675121E+02   -0.78141E-03   -0.15344E-04  1356   0.876E-02    0.355E-02
DAV:  16    -0.369009455310E+02   -0.27802E-03   -0.26161E-05  1328   0.327E-02    0.663E-03
DAV:  17    -0.369010815496E+02   -0.13602E-03   -0.79303E-06  1312   0.163E-02    0.900E-03
DAV:  18    -0.369011024526E+02   -0.20903E-04   -0.80283E-07  1376   0.775E-03    0.176E-03
DAV:  19    -0.369011066171E+02   -0.41645E-05   -0.21093E-07  1356   0.343E-03    0.675E-04
DAV:  20    -0.369011076489E+02   -0.10318E-05   -0.49168E-08  1284   0.141E-03    0.135E-04
DAV:  21    -0.369011077539E+02   -0.10499E-06   -0.34148E-09   984   0.390E-04    0.325E-05
DAV:  22    -0.369011077840E+02   -0.30087E-07   -0.10249E-09   844   0.185E-04    0.140E-05
DAV:  23    -0.369011077822E+02    0.17455E-08   -0.20454E-10   924   0.104E-04
   1 F= -.36901108E+02 E0= -.36901108E+02  d E =-.526120E-16
