       N       E                     dE             d eps       ncg     rms          rms(c)
DAV:   1     0.125772263149E+03    0.12577E+03   -0.80176E+03  1152   0.149E+03
DAV:   2    -0.255391895438E+02   -0.15131E+03   -0.13764E+03  1900   0.245E+02
DAV:   3    -0.391912302809E+02   -0.13652E+02   -0.13425E+02  1404   0.843E+01
DAV:   4    -0.395075382428E+02   -0.31631E+00   -0.31540E+00  1504   0.154E+01
DAV:   5    -0.395169676745E+02   -0.94294E-02   -0.94115E-02  1440   0.254E+00    0.902E+00
DAV:   6    -0.376346832647E+02    0.18823E+01   -0.17418E+00  1364   0.923E+00    0.529E+00
DAV:   7    -0.369426156663E+02    0.69207E+00   -0.23142E+00  1416   0.105E+01    0.138E+00
DAV:   8    -0.369416929505E+02    0.92272E-03   -0.72577E-02  1412   0.195E+00    0.131E-01
DAV:   9    -0.369401409752E+02    0.15520E-02   -0.22095E-03  1464   0.381E-01    0.916E-02
DAV:  10    -0.369334988571E+02    0.66421E-02   -0.39993E-03  1352   0.393E-01    0.996E-02
DAV:  11    -0.369324574404E+02    0.10414E-02   -0.41325E-04  1368   0.143E-01    0.523E-02
DAV:  12    -0.369286075444E+02    0.38499E-02   -0.19728E-03  1212   0.271E-01    0.350E-02
DAV:  13    -0.369283908886E+02    0.21666E-03   -0.19038E-04  1300   0.968E-02    0.391E-02
DAV:  14    -0.369295870696E+02   -0.11962E-02   -0.34087E-04  1252   0.116E-01    0.209E-02
DAV:  15    -0.369305119493E+02   -0.92488E-03   -0.15458E-04  1332   0.741E-02    0.253E-02
DAV:  16    -0.369307029257E+02   -0.19098E-03   -0.15022E-05  1368   0.304E-02    0.483E-03
DAV:  17    -0.369308075976E+02   -0.10467E-03   -0.38008E-06  1288   0.176E-02    0.240E-03
DAV:  18    -0.369308270846E+02   -0.19487E-04   -0.87414E-07  1332   0.676E-03    0.951E-04
DAV:  19    -0.369308320852E+02   -0.50006E-05   -0.15583E-07  1296   0.266E-03    0.451E-04
DAV:  20    -0.369308325203E+02   -0.43515E-06   -0.20091E-08  1260   0.969E-04    0.772E-05
DAV:  21    -0.369308325246E+02   -0.42498E-08   -0.10529E-09   956   0.287E-04
   1 F= -.36930833E+02 E0= -.36930833E+02  d E =-.241373E-13
