       N       E                     dE             d eps       ncg     rms          rms(c)
DAV:   1     0.128947924984E+03    0.12895E+03   -0.80144E+03  1152   0.149E+03
DAV:   2    -0.244145578067E+02   -0.15336E+03   -0.13949E+03  1844   0.246E+02
DAV:   3    -0.390701678444E+02   -0.14656E+02   -0.14299E+02  1444   0.869E+01
DAV:   4    -0.394018081291E+02   -0.33164E+00   -0.33070E+00  1444   0.162E+01
DAV:   5    -0.394115308048E+02   -0.97227E-02   -0.97052E-02  1488   0.268E+00    0.902E+00
DAV:   6    -0.375614780935E+02    0.18501E+01   -0.17380E+00  1380   0.927E+00    0.529E+00
DAV:   7    -0.369078067594E+02    0.65367E+00   -0.22186E+00  1428   0.105E+01    0.136E+00
DAV:   8    -0.369003314897E+02    0.74753E-02   -0.83204E-02  1396   0.207E+00    0.125E-01
DAV:   9    -0.368980446949E+02    0.22868E-02   -0.35267E-03  1480   0.455E-01    0.969E-02
DAV:  10    -0.368918094878E+02    0.62352E-02   -0.29173E-03  1400   0.323E-01    0.866E-02
DAV:  11    -0.368885010810E+02    0.33084E-02   -0.13756E-03  1356   0.235E-01    0.532E-02
DAV:  12    -0.368846620114E+02    0.38391E-02   -0.17632E-03  1244   0.241E-01    0.352E-02
DAV:  13    -0.368843817344E+02    0.28028E-03   -0.38121E-04  1240   0.136E-01    0.327E-02
DAV:  14    -0.368853262594E+02   -0.94453E-03   -0.54482E-04  1332   0.121E-01    0.313E-02
DAV:  15    -0.368860744093E+02   -0.74815E-03   -0.16337E-04  1348   0.892E-02    0.346E-02
DAV:  16    -0.368863896256E+02   -0.31522E-03   -0.39599E-05  1316   0.370E-02    0.851E-03
DAV:  17    -0.368865212341E+02   -0.13161E-03   -0.97250E-06  1320   0.175E-02    0.935E-03
DAV:  18    -0.368865454295E+02   -0.24195E-04   -0.11562E-06  1360   0.846E-03    0.174E-03
DAV:  19    -0.368865489168E+02   -0.34873E-05   -0.23382E-07  1384   0.360E-03    0.717E-04
DAV:  20    -0.368865503096E+02   -0.13928E-05   -0.75580E-08  1312   0.164E-03    0.101E-04
DAV:  21    -0.368865504076E+02   -0.97913E-07   -0.30535E-09  1028   0.389E-04    0.427E-05
DAV:  22    -0.368865504577E+02   -0.50110E-07   -0.17362E-09   848   0.252E-04    0.213E-05
DAV:  23    -0.368865504557E+02    0.19359E-08   -0.34898E-10   964   0.136E-04
   1 F= -.36886550E+02 E0= -.36886550E+02  d E =-.269579E-21
