       N       E                     dE             d eps       ncg     rms          rms(c)
DAV:   1     0.128439485778E+03    0.12844E+03   -0.80117E+03  1152   0.149E+03
DAV:   2    -0.247803709519E+02   -0.15322E+03   -0.14010E+03  1864   0.246E+02
DAV:   3    -0.391406280074E+02   -0.14360E+02   -0.13952E+02  1428   0.858E+01
DAV:   4    -0.394598802249E+02   -0.31925E+00   -0.31824E+00  1468   0.158E+01
DAV:   5    -0.394697865214E+02   -0.99063E-02   -0.98816E-02  1456   0.268E+00    0.902E+00
DAV:   6    -0.376025372703E+02    0.18672E+01   -0.17605E+00  1384   0.928E+00    0.529E+00
DAV:   7    -0.369359032919E+02    0.66663E+00   -0.22675E+00  1424   0.105E+01    0.136E+00
DAV:   8    -0.369312133096E+02    0.46900E-02   -0.82921E-02  1428   0.203E+00    0.123E-01
DAV:   9    -0.369291511499E+02    0.20622E-02   -0.28909E-03  1496   0.420E-01    0.943E-02
DAV:  10    -0.369224864354E+02    0.66647E-02   -0.34944E-03  1372   0.343E-01    0.940E-02
DAV:  11    -0.369198538753E+02    0.26326E-02   -0.90967E-04  1432   0.194E-01    0.529E-02
DAV:  12    -0.369162850080E+02    0.35689E-02   -0.17519E-03  1228   0.251E-01    0.360E-02
DAV:  13    -0.369159738008E+02    0.31121E-03   -0.29361E-04  1244   0.121E-01    0.306E-02
DAV:  14    -0.369170401358E+02   -0.10663E-02   -0.55429E-04  1316   0.119E-01    0.335E-02
DAV:  15    -0.369178362367E+02   -0.79610E-03   -0.15337E-04  1336   0.864E-02    0.369E-02
DAV:  16    -0.369180705633E+02   -0.23433E-03   -0.10880E-05  1368   0.242E-02    0.572E-03
DAV:  17    -0.369182149795E+02   -0.14442E-03   -0.35045E-06  1328   0.123E-02    0.744E-03
DAV:  18    -0.369182381262E+02   -0.23147E-04   -0.95696E-07  1364   0.707E-03    0.157E-03
DAV:  19    -0.369182408640E+02   -0.27378E-05   -0.76311E-08  1336   0.208E-03    0.608E-04
DAV:  20    -0.369182413895E+02   -0.52553E-06   -0.14417E-08  1216   0.894E-04    0.338E-05
DAV:  21    -0.369182414365E+02   -0.47009E-07   -0.13691E-09   988   0.285E-04    0.342E-05
DAV:  22    -0.369182414470E+02   -0.10456E-07   -0.58472E-10   836   0.155E-04    0.924E-06
DAV:  23    -0.369182414455E+02    0.15129E-08   -0.10011E-10   976   0.716E-05
   1 F= -.36918241E+02 E0= -.36918241E+02  d E =-.574384E-28
