       N       E                     dE             d eps       ncg     rms          rms(c)
DAV:   1     0.128912158785E+03    0.12891E+03   -0.80262E+03  1152   0.149E+03
DAV:   2    -0.239935912504E+02   -0.15291E+03   -0.13850E+03  1848   0.245E+02
DAV:   3    -0.388740036945E+02   -0.14880E+02   -0.14761E+02  1452   0.875E+01
DAV:   4    -0.392097868361E+02   -0.33578E+00   -0.33468E+00  1468   0.163E+01
DAV:   5    -0.392198163829E+02   -0.10030E-01   -0.10018E-01  1484   0.267E+00    0.903E+00
DAV:   6    -0.374037834467E+02    0.18160E+01   -0.16839E+00  1368   0.925E+00    0.529E+00
DAV:   7    -0.367624189251E+02    0.64136E+00   -0.21184E+00  1424   0.104E+01    0.135E+00
DAV:   8    -0.367525534750E+02    0.98655E-02   -0.78187E-02  1448   0.203E+00    0.124E-01
DAV:   9    -0.367499716101E+02    0.25819E-02   -0.39143E-03  1396   0.480E-01    0.976E-02
DAV:  10    -0.367443538578E+02    0.56178E-02   -0.23842E-03  1376   0.301E-01    0.743E-02
DAV:  11    -0.367403015591E+02    0.40523E-02   -0.19563E-03  1336   0.267E-01    0.522E-02
DAV:  12    -0.367365002693E+02    0.38013E-02   -0.16108E-03  1272   0.221E-01    0.367E-02
DAV:  13    -0.367363685175E+02    0.13175E-03   -0.43159E-04  1252   0.144E-01    0.330E-02
DAV:  14    -0.367371107760E+02   -0.74226E-03   -0.44455E-04  1328   0.106E-01    0.308E-02
DAV:  15    -0.367377844974E+02   -0.67372E-03   -0.16700E-04  1352   0.854E-02    0.329E-02
DAV:  16    -0.367381848703E+02   -0.40037E-03   -0.36442E-05  1316   0.383E-02    0.109E-02
DAV:  17    -0.367383137511E+02   -0.12888E-03   -0.80513E-06  1344   0.158E-02    0.883E-03
DAV:  18    -0.367383494874E+02   -0.35736E-04   -0.14688E-06  1324   0.835E-03    0.136E-03
DAV:  19    -0.367383551957E+02   -0.57083E-05   -0.20550E-07  1348   0.306E-03    0.874E-04
DAV:  20    -0.367383568041E+02   -0.16084E-05   -0.48748E-08  1352   0.130E-03    0.770E-05
DAV:  21    -0.367383569326E+02   -0.12847E-06   -0.26747E-09  1016   0.341E-04    0.485E-05
DAV:  22    -0.367383569686E+02   -0.35963E-07   -0.13990E-09   860   0.201E-04    0.410E-05
DAV:  23    -0.367383569700E+02   -0.14099E-08   -0.21653E-10   944   0.108E-04
   1 F= -.36738357E+02 E0= -.36738357E+02  d E =-.217276E-16
