       N       E                     dE             d eps       ncg     rms          rms(c)
DAV:   1     0.128974897772E+03    0.12897E+03   -0.80165E+03  1152   0.149E+03
DAV:   2    -0.241344415043E+02   -0.15311E+03   -0.13918E+03  1796   0.246E+02
DAV:   3    -0.390393442695E+02   -0.14905E+02   -0.14771E+02  1444   0.879E+01
DAV:   4    -0.393712701925E+02   -0.33193E+00   -0.33098E+00  1452   0.164E+01
DAV:   5    -0.393806289809E+02   -0.93588E-02   -0.93437E-02  1480   0.265E+00    0.902E+00
DAV:   6    -0.375384137805E+02    0.18422E+01   -0.17327E+00  1368   0.927E+00    0.529E+00
DAV:   7    -0.368877878674E+02    0.65063E+00   -0.21966E+00  1424   0.104E+01    0.135E+00
DAV:   8    -0.368797041008E+02    0.80838E-02   -0.83526E-02  1416   0.206E+00    0.122E-01
DAV:   9    -0.368773840055E+02    0.23201E-02   -0.40034E-03  1440   0.465E-01    0.965E-02
DAV:  10    -0.368711696190E+02    0.62144E-02   -0.29523E-03  1372   0.328E-01    0.839E-02
DAV:  11    -0.368678138286E+02    0.33558E-02   -0.14649E-03  1352   0.244E-01    0.533E-02
DAV:  12    -0.368639260190E+02    0.38878E-02   -0.17421E-03  1248   0.236E-01    0.356E-02
DAV:  13    -0.368636980662E+02    0.22795E-03   -0.42253E-04  1244   0.144E-01    0.338E-02
DAV:  14    -0.368645939832E+02   -0.89592E-03   -0.50693E-04  1336   0.119E-01    0.297E-02
DAV:  15    -0.368653098909E+02   -0.71591E-03   -0.16438E-04  1344   0.871E-02    0.312E-02
DAV:  16    -0.368656704773E+02   -0.36059E-03   -0.44455E-05  1316   0.381E-02    0.903E-03
DAV:  17    -0.368657916588E+02   -0.12118E-03   -0.10454E-05  1336   0.174E-02    0.934E-03
DAV:  18    -0.368658187285E+02   -0.27070E-04   -0.15053E-06  1324   0.892E-03    0.175E-03
DAV:  19    -0.368658214981E+02   -0.27696E-05   -0.24110E-07  1408   0.348E-03    0.780E-04
DAV:  20    -0.368658232344E+02   -0.17364E-05   -0.68859E-08  1340   0.152E-03    0.101E-04
DAV:  21    -0.368658233308E+02   -0.96425E-07   -0.21594E-09  1016   0.335E-04    0.412E-05
DAV:  22    -0.368658233890E+02   -0.58204E-07   -0.20052E-09   852   0.255E-04    0.178E-05
DAV:  23    -0.368658233871E+02    0.19179E-08   -0.33250E-10   992   0.133E-04
   1 F= -.36865823E+02 E0= -.36865823E+02  d E =-.162053E-56
