       N       E                     dE             d eps       ncg     rms          rms(c)
DAV:   1     0.127044697629E+03    0.12704E+03   -0.80145E+03  1152   0.149E+03
DAV:   2    -0.250838575120E+02   -0.15213E+03   -0.13899E+03  1844   0.245E+02
DAV:   3    -0.391897247662E+02   -0.14106E+02   -0.13977E+02  1444   0.858E+01
DAV:   4    -0.394913594223E+02   -0.30163E+00   -0.30080E+00  1476   0.153E+01
DAV:   5    -0.395001842214E+02   -0.88248E-02   -0.88112E-02  1468   0.254E+00    0.902E+00
DAV:   6    -0.376224621562E+02    0.18777E+01   -0.17449E+00  1380   0.925E+00    0.529E+00
DAV:   7    -0.369430667716E+02    0.67940E+00   -0.22962E+00  1416   0.105E+01    0.138E+00
DAV:   8    -0.369402652144E+02    0.28016E-02   -0.75661E-02  1436   0.199E+00    0.133E-01
DAV:   9    -0.369384978505E+02    0.17674E-02   -0.25928E-03  1448   0.407E-01    0.936E-02
DAV:  10    -0.369314622910E+02    0.70356E-02   -0.40373E-03  1368   0.376E-01    0.106E-01
DAV:  11    -0.369297684107E+02    0.16939E-02   -0.53005E-04  1360   0.155E-01    0.528E-02
DAV:  12    -0.369262707839E+02    0.34976E-02   -0.17451E-03  1208   0.259E-01    0.366E-02
DAV:  13    -0.369258870213E+02    0.38376E-03   -0.24767E-04  1288   0.111E-01    0.334E-02
DAV:  14    -0.369272306263E+02   -0.13436E-02   -0.56598E-04  1260   0.133E-01    0.239E-02
DAV:  15    -0.369279020046E+02   -0.67138E-03   -0.99035E-05  1372   0.750E-02    0.252E-02
DAV:  16    -0.369281735102E+02   -0.27151E-03   -0.16651E-05  1320   0.311E-02    0.506E-03
DAV:  17    -0.369282799336E+02   -0.10642E-03   -0.24165E-06  1320   0.135E-02    0.484E-03
DAV:  18    -0.369283027842E+02   -0.22851E-04   -0.12353E-06  1296   0.782E-03    0.666E-04
DAV:  19    -0.369283058309E+02   -0.30467E-05   -0.66515E-08  1336   0.206E-03    0.114E-03
DAV:  20    -0.369283059472E+02   -0.11626E-06   -0.55047E-09   944   0.692E-04    0.491E-05
DAV:  21    -0.369283059625E+02   -0.15356E-07   -0.98682E-10   896   0.307E-04    0.510E-05
DAV:  22    -0.369283059641E+02   -0.15384E-08   -0.31812E-10   912   0.156E-04
   1 F= -.36928306E+02 E0= -.36928306E+02  d E =-.257262E-15
