       N       E                     dE             d eps       ncg     rms          rms(c)
DAV:   1     0.125127236377E+03    0.12513E+03   -0.80189E+03  1152   0.149E+03
DAV:   2    -0.253326683344E+02   -0.15046E+03   -0.13731E+03  1860   0.245E+02
DAV:   3    -0.392126417153E+02   -0.13880E+02   -0.13628E+02  1424   0.848E+01
DAV:   4    -0.395180100010E+02   -0.30537E+00   -0.30460E+00  1492   0.153E+01
DAV:   5    -0.395264001597E+02   -0.83902E-02   -0.83786E-02  1444   0.243E+00    0.902E+00
DAV:   6    -0.376435408085E+02    0.18829E+01   -0.17312E+00  1380   0.921E+00    0.529E+00
DAV:   7    -0.369406365903E+02    0.70290E+00   -0.23155E+00  1408   0.106E+01    0.138E+00
DAV:   8    -0.369406749284E+02   -0.38338E-04   -0.71427E-02  1416   0.194E+00    0.136E-01
DAV:   9    -0.369393062303E+02    0.13687E-02   -0.21826E-03  1476   0.378E-01    0.922E-02
DAV:  10    -0.369337349370E+02    0.55713E-02   -0.38387E-03  1324   0.379E-01    0.921E-02
DAV:  11    -0.369327386707E+02    0.99627E-03   -0.44139E-04  1392   0.146E-01    0.562E-02
DAV:  12    -0.369284763131E+02    0.42624E-02   -0.22416E-03  1196   0.282E-01    0.377E-02
DAV:  13    -0.369285015028E+02   -0.25190E-04   -0.14753E-04  1344   0.854E-02    0.436E-02
DAV:  14    -0.369295833628E+02   -0.10819E-02   -0.25413E-04  1260   0.997E-02    0.196E-02
DAV:  15    -0.369305869136E+02   -0.10036E-02   -0.18604E-04  1324   0.765E-02    0.264E-02
DAV:  16    -0.369307596194E+02   -0.17271E-03   -0.30570E-05  1364   0.384E-02    0.477E-03
DAV:  17    -0.369308404445E+02   -0.80825E-04   -0.32245E-06  1276   0.174E-02    0.212E-03
DAV:  18    -0.369308502363E+02   -0.97918E-05   -0.41186E-07  1384   0.514E-03    0.684E-04
DAV:  19    -0.369308552382E+02   -0.50019E-05   -0.15141E-07  1308   0.226E-03    0.319E-04
DAV:  20    -0.369308562223E+02   -0.98412E-06   -0.20491E-08  1240   0.844E-04    0.142E-04
DAV:  21    -0.369308564258E+02   -0.20353E-06   -0.84295E-09  1116   0.434E-04    0.580E-05
DAV:  22    -0.369308564288E+02   -0.29136E-08   -0.56439E-10  1020   0.154E-04
   1 F= -.36930856E+02 E0= -.36930856E+02  d E =-.401220E-09
