       N       E                     dE             d eps       ncg     rms          rms(c)
DAV:   1     0.124632994938E+03    0.12463E+03   -0.80201E+03  1152   0.149E+03
DAV:   2    -0.256566332846E+02   -0.15029E+03   -0.13629E+03  1900   0.246E+02
DAV:   3    -0.392302636740E+02   -0.13574E+02   -0.13475E+02  1468   0.836E+01
DAV:   4    -0.395236638386E+02   -0.29340E+00   -0.29271E+00  1468   0.147E+01
DAV:   5    -0.395325536343E+02   -0.88898E-02   -0.88818E-02  1464   0.246E+00    0.902E+00
DAV:   6    -0.376521733608E+02    0.18804E+01   -0.17197E+00  1388   0.919E+00    0.530E+00
DAV:   7    -0.369387338311E+02    0.71344E+00   -0.23316E+00  1408   0.106E+01    0.138E+00
DAV:   8    -0.369386147490E+02    0.11908E-03   -0.67169E-02  1404   0.190E+00    0.137E-01
DAV:   9    -0.369373782578E+02    0.12365E-02   -0.20963E-03  1488   0.363E-01    0.942E-02
DAV:  10    -0.369328178568E+02    0.45604E-02   -0.36012E-03  1324   0.345E-01    0.800E-02
DAV:  11    -0.369318435025E+02    0.97435E-03   -0.57579E-04  1380   0.165E-01    0.709E-02
DAV:  12    -0.369277521014E+02    0.40914E-02   -0.20710E-03  1212   0.270E-01    0.440E-02
DAV:  13    -0.369278557897E+02   -0.10369E-03   -0.15206E-04  1320   0.808E-02    0.476E-02
DAV:  14    -0.369287848411E+02   -0.92905E-03   -0.14850E-04  1292   0.847E-02    0.163E-02
DAV:  15    -0.369297138303E+02   -0.92899E-03   -0.13441E-04  1264   0.660E-02    0.217E-02
DAV:  16    -0.369299132519E+02   -0.19942E-03   -0.42545E-05  1296   0.407E-02    0.386E-03
DAV:  17    -0.369299612576E+02   -0.48006E-04   -0.36113E-06  1340   0.167E-02    0.272E-03
DAV:  18    -0.369299664407E+02   -0.51831E-05   -0.53786E-07  1344   0.595E-03    0.548E-04
DAV:  19    -0.369299680441E+02   -0.16034E-05   -0.10405E-07  1268   0.194E-03    0.221E-04
DAV:  20    -0.369299683775E+02   -0.33332E-06   -0.79230E-09  1180   0.438E-04    0.105E-04
DAV:  21    -0.369299685348E+02   -0.15739E-06   -0.71846E-09  1092   0.336E-04    0.486E-05
DAV:  22    -0.369299685497E+02   -0.14849E-07   -0.62776E-10   932   0.123E-04    0.164E-05
DAV:  23    -0.369299685545E+02   -0.48065E-08   -0.32668E-10   888   0.841E-05
   1 F= -.36929969E+02 E0= -.36929966E+02  d E =-.603346E-05
