       N       E                     dE             d eps       ncg     rms          rms(c)
DAV:   1     0.125489768653E+03    0.12549E+03   -0.80183E+03  1152   0.149E+03
DAV:   2    -0.254986391097E+02   -0.15099E+03   -0.13707E+03  1872   0.245E+02
DAV:   3    -0.391992828865E+02   -0.13701E+02   -0.13526E+02  1412   0.845E+01
DAV:   4    -0.395114776946E+02   -0.31219E+00   -0.31134E+00  1476   0.154E+01
DAV:   5    -0.395207049418E+02   -0.92272E-02   -0.92110E-02  1440   0.255E+00    0.902E+00
DAV:   6    -0.376380583244E+02    0.18826E+01   -0.17390E+00  1364   0.923E+00    0.529E+00
DAV:   7    -0.369421211019E+02    0.69594E+00   -0.23135E+00  1416   0.105E+01    0.138E+00
DAV:   8    -0.369414832774E+02    0.63782E-03   -0.70521E-02  1424   0.193E+00    0.132E-01
DAV:   9    -0.369400005640E+02    0.14827E-02   -0.21785E-03  1448   0.382E-01    0.914E-02
DAV:  10    -0.369336990712E+02    0.63015E-02   -0.38962E-03  1344   0.390E-01    0.970E-02
DAV:  11    -0.369326961147E+02    0.10030E-02   -0.42577E-04  1368   0.144E-01    0.535E-02
DAV:  12    -0.369286799209E+02    0.40162E-02   -0.20674E-03  1208   0.274E-01    0.350E-02
DAV:  13    -0.369285738332E+02    0.10609E-03   -0.17074E-04  1312   0.922E-02    0.414E-02
DAV:  14    -0.369297169586E+02   -0.11431E-02   -0.30376E-04  1252   0.110E-01    0.206E-02
DAV:  15    -0.369306913981E+02   -0.97444E-03   -0.17027E-04  1320   0.763E-02    0.262E-02
DAV:  16    -0.369308661494E+02   -0.17475E-03   -0.18955E-05  1384   0.322E-02    0.498E-03
DAV:  17    -0.369309659456E+02   -0.99796E-04   -0.37341E-06  1280   0.180E-02    0.233E-03
DAV:  18    -0.369309819570E+02   -0.16011E-04   -0.65233E-07  1348   0.606E-03    0.926E-04
DAV:  19    -0.369309877922E+02   -0.58352E-05   -0.16806E-07  1260   0.263E-03    0.385E-04
DAV:  20    -0.369309884770E+02   -0.68470E-06   -0.28292E-08  1304   0.104E-03    0.129E-04
DAV:  21    -0.369309884966E+02   -0.19664E-07   -0.17317E-09   944   0.304E-04    0.483E-05
DAV:  22    -0.369309884970E+02   -0.35243E-09   -0.27709E-10  1008   0.134E-04
   1 F= -.36930988E+02 E0= -.36930988E+02  d E =-.568041E-15
