       N       E                     dE             d eps       ncg     rms          rms(c)
DAV:   1     0.128924809652E+03    0.12892E+03   -0.80224E+03  1152   0.149E+03
DAV:   2    -0.244349170922E+02   -0.15336E+03   -0.13917E+03  1864   0.245E+02
DAV:   3    -0.389470854501E+02   -0.14512E+02   -0.14398E+02  1460   0.868E+01
DAV:   4    -0.392784292392E+02   -0.33134E+00   -0.33029E+00  1460   0.162E+01
DAV:   5    -0.392885034481E+02   -0.10074E-01   -0.10056E-01  1484   0.272E+00    0.902E+00
DAV:   6    -0.374633317644E+02    0.18252E+01   -0.17051E+00  1360   0.926E+00    0.529E+00
DAV:   7    -0.368190175522E+02    0.64431E+00   -0.21414E+00  1424   0.104E+01    0.135E+00
DAV:   8    -0.368097220398E+02    0.92955E-02   -0.80168E-02  1456   0.204E+00    0.122E-01
DAV:   9    -0.368070719806E+02    0.26501E-02   -0.38464E-03  1440   0.464E-01    0.970E-02
DAV:  10    -0.368012554627E+02    0.58165E-02   -0.25425E-03  1368   0.307E-01    0.780E-02
DAV:  11    -0.367974421845E+02    0.38133E-02   -0.18079E-03  1324   0.262E-01    0.528E-02
DAV:  12    -0.367936234030E+02    0.38188E-02   -0.16333E-03  1280   0.224E-01    0.364E-02
DAV:  13    -0.367934617777E+02    0.16163E-03   -0.42839E-04  1244   0.143E-01    0.331E-02
DAV:  14    -0.367942487329E+02   -0.78696E-03   -0.46383E-04  1328   0.111E-01    0.295E-02
DAV:  15    -0.367949363829E+02   -0.68765E-03   -0.16606E-04  1348   0.850E-02    0.304E-02
DAV:  16    -0.367953326160E+02   -0.39623E-03   -0.37564E-05  1316   0.368E-02    0.913E-03
DAV:  17    -0.367954586580E+02   -0.12604E-03   -0.90607E-06  1332   0.161E-02    0.899E-03
DAV:  18    -0.367954892785E+02   -0.30620E-04   -0.14424E-06  1340   0.858E-03    0.156E-03
DAV:  19    -0.367954934920E+02   -0.42135E-05   -0.23776E-07  1364   0.341E-03    0.726E-04
DAV:  20    -0.367954951846E+02   -0.16926E-05   -0.64606E-08  1348   0.146E-03    0.982E-05
DAV:  21    -0.367954952944E+02   -0.10982E-06   -0.26314E-09  1036   0.347E-04    0.606E-05
DAV:  22    -0.367954953424E+02   -0.47975E-07   -0.14983E-09   860   0.209E-04    0.473E-05
DAV:  23    -0.367954953438E+02   -0.14074E-08   -0.34585E-10   924   0.127E-04
   1 F= -.36795495E+02 E0= -.36795495E+02  d E =-.407777E-44
