       N       E                     dE             d eps       ncg     rms          rms(c)
DAV:   1     0.124920941978E+03    0.12492E+03   -0.80193E+03  1152   0.149E+03
DAV:   2    -0.256038789846E+02   -0.15052E+03   -0.13682E+03  1860   0.246E+02
DAV:   3    -0.392100248554E+02   -0.13606E+02   -0.13503E+02  1436   0.846E+01
DAV:   4    -0.395205096177E+02   -0.31048E+00   -0.30963E+00  1488   0.154E+01
DAV:   5    -0.395300448510E+02   -0.95352E-02   -0.95232E-02  1436   0.258E+00    0.902E+00
DAV:   6    -0.376480758705E+02    0.18820E+01   -0.17219E+00  1392   0.921E+00    0.529E+00
DAV:   7    -0.369396032906E+02    0.70847E+00   -0.23269E+00  1420   0.106E+01    0.138E+00
DAV:   8    -0.369396974374E+02   -0.94147E-04   -0.68875E-02  1400   0.192E+00    0.138E-01
DAV:   9    -0.369383711596E+02    0.13263E-02   -0.21215E-03  1524   0.369E-01    0.932E-02
DAV:  10    -0.369334216612E+02    0.49495E-02   -0.37350E-03  1320   0.360E-01    0.874E-02
DAV:  11    -0.369324148045E+02    0.10069E-02   -0.50604E-04  1396   0.154E-01    0.615E-02
DAV:  12    -0.369280809789E+02    0.43338E-02   -0.22803E-03  1208   0.283E-01    0.415E-02
DAV:  13    -0.369281811563E+02   -0.10018E-03   -0.12729E-04  1340   0.778E-02    0.436E-02
DAV:  14    -0.369292249631E+02   -0.10438E-02   -0.19320E-04  1256   0.938E-02    0.183E-02
DAV:  15    -0.369301785772E+02   -0.95361E-03   -0.15511E-04  1292   0.731E-02    0.258E-02
DAV:  16    -0.369303779493E+02   -0.19937E-03   -0.40161E-05  1328   0.411E-02    0.463E-03
DAV:  17    -0.369304432045E+02   -0.65255E-04   -0.39553E-06  1304   0.181E-02    0.245E-03
DAV:  18    -0.369304484339E+02   -0.52294E-05   -0.40737E-07  1388   0.556E-03    0.585E-04
DAV:  19    -0.369304519528E+02   -0.35189E-05   -0.11804E-07  1312   0.206E-03    0.239E-04
DAV:  20    -0.369304522282E+02   -0.27536E-06   -0.32309E-09   992   0.371E-04    0.102E-04
DAV:  21    -0.369304524869E+02   -0.25866E-06   -0.27752E-09   900   0.325E-04    0.366E-05
DAV:  22    -0.369304525053E+02   -0.18485E-07   -0.61309E-10   916   0.135E-04    0.183E-05
DAV:  23    -0.369304525142E+02   -0.88346E-08   -0.15210E-10   924   0.783E-05
   1 F= -.36930453E+02 E0= -.36930452E+02  d E =-.261262E-06
