       N       E                     dE             d eps       ncg     rms          rms(c)
DAV:   1     0.128716031983E+03    0.12872E+03   -0.80118E+03  1152   0.149E+03
DAV:   2    -0.249581533059E+02   -0.15367E+03   -0.14020E+03  1868   0.246E+02
DAV:   3    -0.391200595471E+02   -0.14162E+02   -0.14062E+02  1412   0.864E+01
DAV:   4    -0.394443788181E+02   -0.32432E+00   -0.32320E+00  1476   0.161E+01
DAV:   5    -0.394545385866E+02   -0.10160E-01   -0.10140E-01  1432   0.274E+00    0.902E+00
DAV:   6    -0.375922688260E+02    0.18623E+01   -0.17516E+00  1380   0.928E+00    0.529E+00
DAV:   7    -0.369304921478E+02    0.66178E+00   -0.22583E+00  1424   0.105E+01    0.136E+00
DAV:   8    -0.369245239248E+02    0.59682E-02   -0.81123E-02  1420   0.205E+00    0.127E-01
DAV:   9    -0.369224230135E+02    0.21009E-02   -0.31542E-03  1484   0.431E-01    0.958E-02
DAV:  10    -0.369157809146E+02    0.66421E-02   -0.34710E-03  1424   0.342E-01    0.954E-02
DAV:  11    -0.369129728711E+02    0.28080E-02   -0.10065E-03  1344   0.205E-01    0.527E-02
DAV:  12    -0.369092902282E+02    0.36826E-02   -0.17365E-03  1236   0.248E-01    0.356E-02
DAV:  13    -0.369090247713E+02    0.26546E-03   -0.34260E-04  1232   0.130E-01    0.323E-02
DAV:  14    -0.369100576026E+02   -0.10328E-02   -0.56212E-04  1328   0.122E-01    0.317E-02
DAV:  15    -0.369108186693E+02   -0.76107E-03   -0.14702E-04  1360   0.878E-02    0.358E-02
DAV:  16    -0.369110775947E+02   -0.25893E-03   -0.23926E-05  1324   0.306E-02    0.490E-03
DAV:  17    -0.369112214343E+02   -0.14384E-03   -0.57406E-06  1324   0.150E-02    0.970E-03
DAV:  18    -0.369112417181E+02   -0.20284E-04   -0.79061E-07  1380   0.761E-03    0.153E-03
DAV:  19    -0.369112459274E+02   -0.42093E-05   -0.17523E-07  1348   0.325E-03    0.809E-04
DAV:  20    -0.369112468041E+02   -0.87671E-06   -0.46893E-08  1280   0.139E-03    0.127E-04
DAV:  21    -0.369112468819E+02   -0.77761E-07   -0.26846E-09   992   0.369E-04    0.325E-05
DAV:  22    -0.369112469071E+02   -0.25229E-07   -0.97767E-10   840   0.205E-04    0.174E-05
DAV:  23    -0.369112469049E+02    0.21707E-08   -0.18183E-10  1000   0.103E-04
   1 F= -.36911247E+02 E0= -.36911247E+02  d E =-.257327E-51
