 vasp.5.4.4.18Apr17-6-g9f103f2a35 (build May 31 2018 21:15:54) complex          
  
 executed on          c7_intel_O1 date 2020.07.23  19:18:33
 running on    4 total cores
 distrk:  each k-point on    4 cores,    1 groups
 distr:  one band on NCORES_PER_BAND=   1 cores,    4 groups


--------------------------------------------------------------------------------------------------------


 INCAR:
 POTCAR:    PAW_PBE C 08Apr2002                   
 POTCAR:    PAW_PBE C 08Apr2002                   
   VRHFIN =C: s2p2                                                              
   LEXCH  = PE                                                                  
   EATOM  =   147.1560 eV,   10.8157 Ry                                         
                                                                                
   TITEL  = PAW_PBE C 08Apr2002                                                 
   LULTRA =        F    use ultrasoft PP ?                                      
   IUNSCR =        1    unscreen: 0-lin 1-nonlin 2-no                           
   RPACOR =    1.200    partial core radius                                     
   POMASS =   12.011; ZVAL   =    4.000    mass and valenz                      
   RCORE  =    1.500    outmost cutoff radius                                   
   RWIGS  =    1.630; RWIGS  =    0.863    wigner-seitz radius (au A)           
   ENMAX  =  400.000; ENMIN  =  300.000 eV                                      
   ICORE  =        2    local potential                                         
   LCOR   =        T    correct aug charges                                     
   LPAW   =        T    paw PP                                                  
   EAUG   =  644.873                                                            
   DEXC   =    0.000                                                            
   RMAX   =    1.529    core radius for proj-oper                               
   RAUG   =    1.300    factor for augmentation sphere                          
   RDEP   =    1.501    radius for radial grids                                 
   RDEPT  =    1.300    core radius for aug-charge                              
                                                                                
   Atomic configuration                                                         
    4 entries                                                                   
     n  l   j            E        occ.                                          
     1  0  0.50      -273.3789   2.0000                                         
     2  0  0.50       -13.7508   2.0000                                         
     2  1  0.50        -5.2854   2.0000                                         
     3  2  1.50        -5.4423   0.0000                                         
   Description                                                                  
     l       E           TYP  RCUT    TYP  RCUT                                 
     0    -13.7508458     23  1.200                                             
     0     -8.2022199     23  1.200                                             
     1     -5.2854383     23  1.500                                             
     1     34.0145650     23  1.500                                             
     2     -5.4423304      7  1.500                                             
  local pseudopotential read in
  partial core-charges read in
  partial kinetic energy density read in
  atomic valenz-charges read in
  non local Contribution for L=           0  read in
    real space projection operators read in
  non local Contribution for L=           0  read in
    real space projection operators read in
  non local Contribution for L=           1  read in
    real space projection operators read in
  non local Contribution for L=           1  read in
    real space projection operators read in
    PAW grid and wavefunctions read in
 
   number of l-projection  operators is LMAX  =           4
   number of lm-projection operators is LMMAX =           8
 
  PAW_PBE C 08Apr2002                   :
 energy of atom  1       EATOM= -147.1560
 kinetic energy error for atom=    0.0016 (will be added to EATOM!!)
 
 
 POSCAR: C2_bilayer                              
  positions in direct lattice
  No initial velocities read in
 exchange correlation table for  LEXCH =        8
   RHO(1)=    0.500       N(1)  =     2000
   RHO(2)=  100.500       N(2)  =     4000
 


--------------------------------------------------------------------------------------------------------


 ion  position               nearest neighbor table
   1  0.000  0.000  0.000-   2 1.42   2 1.42   2 1.42
   2  0.333  0.333  0.000-   1 1.42   1 1.42   1 1.42
   3  0.000  0.000  0.200-   4 1.42   4 1.42   4 1.42
   4  0.333  0.333  0.200-   3 1.42   3 1.42   3 1.42
 
  LATTYP: Found a hexagonal cell.
 ALAT       =     2.4595120000
 C/A-ratio  =     8.1316944174
  
  Lattice vectors:
  
 A1 = (   0.0000000000,  -2.4595120000,   0.0000000000)
 A2 = (  -2.1300000000,   1.2297560000,   0.0000000000)
 A3 = (   0.0000000000,   0.0000000000, -20.0000000000)


Analysis of symmetry for initial positions (statically):
=====================================================================
 Subroutine PRICEL returns:
 Original cell was already a primitive cell.
 

 Routine SETGRP: Setting up the symmetry group for a 
 hexagonal supercell.


 Subroutine GETGRP returns: Found 24 space group operations
 (whereof  6 operations were pure point group operations)
 out of a pool of 24 trial point group operations.


The static configuration has the point symmetry C_3v.
 The point group associated with its full space group is D_6h.


Analysis of symmetry for dynamics (positions and initial velocities):
=====================================================================
 Subroutine PRICEL returns:
 Original cell was already a primitive cell.
 

 Routine SETGRP: Setting up the symmetry group for a 
 hexagonal supercell.


 Subroutine GETGRP returns: Found 24 space group operations
 (whereof  6 operations were pure point group operations)
 out of a pool of 24 trial point group operations.


The dynamic configuration has the point symmetry C_3v.
 The point group associated with its full space group is D_6h.


 Subroutine INISYM returns: Found 24 space group operations
 (whereof  6 operations are pure point group operations),
 and found     1 'primitive' translations

 
 
 KPOINTS: k grid                                  

Automatic generation of k-mesh.
Space group operators:
 irot       det(A)        alpha          n_x          n_y          n_z        tau_x        tau_y        tau_z
    1     1.000000     0.000000     1.000000     0.000000     0.000000     0.000000     0.000000     0.000000
    2     1.000000   120.000000     0.000000     0.000000     1.000000     0.000000     0.000000     0.000000
    3     1.000000   120.000000     0.000000     0.000000    -1.000000     0.000000     0.000000     0.000000
    4    -1.000000   180.000000    -0.000000     1.000000     0.000000     0.000000     0.000000     0.000000
    5    -1.000000   180.000000     0.866025    -0.500000     0.000000     0.000000     0.000000     0.000000
    6    -1.000000   180.000000     0.866025     0.500000     0.000000     0.000000     0.000000     0.000000
    7    -1.000000     0.000000     1.000000     0.000000     0.000000     0.333333    -0.666667    -0.800000
    8     1.000000    60.000000     0.000000     0.000000     1.000000     0.333333    -0.666667     0.000000
    9    -1.000000    60.000000     0.000000     0.000000     1.000000    -0.000001    -0.000000    -0.800000
   10    -1.000000   120.000000     0.000000     0.000000     1.000000     0.333333    -0.666667    -0.800000
   11     1.000000   180.000000     0.000000     0.000000     1.000000     0.333333    -0.666667     0.000000
   12    -1.000000   180.000000     0.000000     0.000000     1.000000     0.000000     0.000000    -0.800000
   13    -1.000000   120.000000     0.000000     0.000000    -1.000000     0.333333    -0.666667    -0.800000
   14     1.000000    60.000000     0.000000     0.000000    -1.000000     0.333333    -0.666667     0.000000
   15    -1.000000    60.000000     0.000000     0.000000    -1.000000    -0.000000    -0.000001    -0.800000
   16     1.000000   180.000000    -0.000000     1.000000     0.000000     0.333333    -0.666667    -0.800000
   17     1.000000   180.000000     0.500000    -0.866025     0.000000    -0.000000    -0.000001    -0.800000
   18    -1.000000   180.000000     0.500000    -0.866025     0.000000     0.333333    -0.666667     0.000000
   19     1.000000   180.000000     0.866025    -0.500000     0.000000     0.333333    -0.666667    -0.800000
   20     1.000000   180.000000     1.000000     0.000000     0.000000     0.000000     0.000000    -0.800000
   21    -1.000000   180.000000     1.000000     0.000000     0.000000     0.333333    -0.666667     0.000000
   22     1.000000   180.000000     0.866025     0.500000     0.000000     0.333333    -0.666667    -0.800000
   23     1.000000   180.000000    -0.500000    -0.866025     0.000000    -0.000001    -0.000000    -0.800000
   24    -1.000000   180.000000    -0.500000    -0.866025     0.000000     0.333333    -0.666667     0.000000
 
 Subroutine IBZKPT returns following result:
 ===========================================
 
 Found     48 irreducible k-points:
 
 Following reciprocal coordinates:
            Coordinates               Weight
  0.000000  0.000000  0.000000      1.000000
  0.047619  0.000000  0.000000      6.000000
  0.095238  0.000000  0.000000      6.000000
  0.142857  0.000000  0.000000      6.000000
  0.190476  0.000000  0.000000      6.000000
  0.238095  0.000000  0.000000      6.000000
  0.285714  0.000000  0.000000      6.000000
  0.333333  0.000000  0.000000      6.000000
  0.380952  0.000000  0.000000      6.000000
  0.428571  0.000000  0.000000      6.000000
  0.476190  0.000000  0.000000      6.000000
  0.095238  0.047619  0.000000      6.000000
  0.142857  0.047619  0.000000     12.000000
  0.190476  0.047619  0.000000     12.000000
  0.238095  0.047619  0.000000     12.000000
  0.285714  0.047619  0.000000     12.000000
  0.333333  0.047619  0.000000     12.000000
  0.380952  0.047619  0.000000     12.000000
  0.428571  0.047619  0.000000     12.000000
  0.476190  0.047619  0.000000     12.000000
 -0.476190  0.047619  0.000000      6.000000
  0.190476  0.095238  0.000000      6.000000
  0.238095  0.095238  0.000000     12.000000
  0.285714  0.095238  0.000000     12.000000
  0.333333  0.095238  0.000000     12.000000
  0.380952  0.095238  0.000000     12.000000
  0.428571  0.095238  0.000000     12.000000
  0.476190  0.095238  0.000000     12.000000
 -0.476190  0.095238  0.000000     12.000000
  0.285714  0.142857  0.000000      6.000000
  0.333333  0.142857  0.000000     12.000000
  0.380952  0.142857  0.000000     12.000000
  0.428571  0.142857  0.000000     12.000000
  0.476190  0.142857  0.000000     12.000000
 -0.476190  0.142857  0.000000     12.000000
 -0.428571  0.142857  0.000000      6.000000
  0.380952  0.190476  0.000000      6.000000
  0.428571  0.190476  0.000000     12.000000
  0.476190  0.190476  0.000000     12.000000
 -0.476190  0.190476  0.000000     12.000000
 -0.428571  0.190476  0.000000     12.000000
  0.476190  0.238095  0.000000      6.000000
 -0.476190  0.238095  0.000000     12.000000
 -0.428571  0.238095  0.000000     12.000000
 -0.380952  0.238095  0.000000      6.000000
 -0.428571  0.285714  0.000000      6.000000
 -0.380952  0.285714  0.000000     12.000000
 -0.333333  0.333333  0.000000      2.000000
 
 Following cartesian coordinates:
            Coordinates               Weight
  0.000000  0.000000  0.000000      1.000000
  0.011178 -0.019361  0.000000      6.000000
  0.022356 -0.038722  0.000000      6.000000
  0.033535 -0.058084  0.000000      6.000000
  0.044713 -0.077445  0.000000      6.000000
  0.055891 -0.096806  0.000000      6.000000
  0.067069 -0.116167  0.000000      6.000000
  0.078247 -0.135528  0.000000      6.000000
  0.089425 -0.154889  0.000000      6.000000
  0.100604 -0.174251  0.000000      6.000000
  0.111782 -0.193612  0.000000      6.000000
  0.033535 -0.019361  0.000000      6.000000
  0.044713 -0.038722  0.000000     12.000000
  0.055891 -0.058084  0.000000     12.000000
  0.067069 -0.077445  0.000000     12.000000
  0.078247 -0.096806  0.000000     12.000000
  0.089425 -0.116167  0.000000     12.000000
  0.100604 -0.135528  0.000000     12.000000
  0.111782 -0.154889  0.000000     12.000000
  0.122960 -0.174251  0.000000     12.000000
 -0.100604  0.212973  0.000000      6.000000
  0.067069 -0.038722  0.000000      6.000000
  0.078247 -0.058084  0.000000     12.000000
  0.089425 -0.077445  0.000000     12.000000
  0.100604 -0.096806  0.000000     12.000000
  0.111782 -0.116167  0.000000     12.000000
  0.122960 -0.135528  0.000000     12.000000
  0.134138 -0.154889  0.000000     12.000000
 -0.089425  0.232334  0.000000     12.000000
  0.100604 -0.058084  0.000000      6.000000
  0.111782 -0.077445  0.000000     12.000000
  0.122960 -0.096806  0.000000     12.000000
  0.134138 -0.116167  0.000000     12.000000
  0.145316 -0.135528  0.000000     12.000000
 -0.078247  0.251695  0.000000     12.000000
 -0.067069  0.232334  0.000000      6.000000
  0.134138 -0.077445  0.000000      6.000000
  0.145316 -0.096806  0.000000     12.000000
  0.156495 -0.116167  0.000000     12.000000
 -0.067069  0.271056  0.000000     12.000000
 -0.055891  0.251695  0.000000     12.000000
  0.167673 -0.096806  0.000000      6.000000
 -0.055891  0.290418  0.000000     12.000000
 -0.044713  0.271056  0.000000     12.000000
 -0.033535  0.251695  0.000000      6.000000
 -0.033535  0.290418  0.000000      6.000000
 -0.022356  0.271056  0.000000     12.000000
  0.000000  0.271056  0.000000      2.000000
 


--------------------------------------------------------------------------------------------------------




 Dimension of arrays:
   k-points           NKPTS =     48   k-points in BZ     NKDIM =     48   number of bands    NBANDS=     12
   number of dos      NEDOS =    301   number of ions     NIONS =      4
   non local maximal  LDIM  =      4   non local SUM 2l+1 LMDIM =      8
   total plane-waves  NPLWV = 110592
   max r-space proj   IRMAX =      1   max aug-charges    IRDMAX=  99836
   dimension x,y,z NGX =    24 NGY =   24 NGZ =  192
   dimension x,y,z NGXF=    48 NGYF=   48 NGZF=  384
   support grid    NGXF=    96 NGYF=   96 NGZF=  768
   ions per type =               4
   NGX,Y,Z   is equivalent  to a cutoff of  16.22, 16.22, 15.96 a.u.
   NGXF,Y,Z  is equivalent  to a cutoff of  32.44, 32.44, 31.92 a.u.

 SYSTEM =  C:graphene                              
 POSCAR =  C2_bilayer                              

 Startparameter for this run:
   NWRITE =      2    write-flag & timer
   PREC   = accura    normal or accurate (medium, high low for compatibility)
   ISTART =      0    job   : 0-new  1-cont  2-samecut
   ICHARG =      2    charge: 1-file 2-atom 10-const
   ISPIN  =      1    spin polarized calculation?
   LNONCOLLINEAR =      F non collinear calculations
   LSORBIT =      F    spin-orbit coupling
   INIWAV =      1    electr: 0-lowe 1-rand  2-diag
   LASPH  =      F    aspherical Exc in radial PAW
   METAGGA=      F    non-selfconsistent MetaGGA calc.

 Electronic Relaxation 1
   ENCUT  =  800.0 eV  58.80 Ry    7.67 a.u.   5.67  5.67 46.12*2*pi/ulx,y,z
   ENINI  =  800.0     initial cutoff
   ENAUG  =  644.9 eV  augmentation charge cutoff
   NELM   =     60;   NELMIN=  5; NELMDL= -5     # of ELM steps 
   EDIFF  = 0.1E-07   stopping-criterion for ELM
   LREAL  =      F    real-space projection
   NLSPLINE    = F    spline interpolate recip. space projectors
   LCOMPAT=      F    compatible to vasp.4.4
   GGA_COMPAT  = T    GGA compatible to vasp.4.4-vasp.4.6
   LMAXPAW     = -100 max onsite density
   LMAXMIX     =    2 max onsite mixed and CHGCAR
   VOSKOWN=      0    Vosko Wilk Nusair interpolation
   ROPT   =    0.00000
 Ionic relaxation
   EDIFFG = 0.1E-06   stopping-criterion for IOM
   NSW    =      1    number of steps for IOM
   NBLOCK =      1;   KBLOCK =      1    inner block; outer block 
   IBRION =     -1    ionic relax: 0-MD 1-quasi-New 2-CG
   NFREE  =      0    steps in history (QN), initial steepest desc. (CG)
   ISIF   =      2    stress and relaxation
   IWAVPR =     10    prediction:  0-non 1-charg 2-wave 3-comb
   ISYM   =      2    0-nonsym 1-usesym 2-fastsym
   LCORR  =      T    Harris-Foulkes like correction to forces

   POTIM  = 0.5000    time-step for ionic-motion
   TEIN   =    0.0    initial temperature
   TEBEG  =    0.0;   TEEND  =   0.0 temperature during run
   SMASS  =  -3.00    Nose mass-parameter (am)
   estimated Nose-frequenzy (Omega)   =  0.10E-29 period in steps =****** mass=  -0.138E-27a.u.
   SCALEE = 1.0000    scale energy and forces
   NPACO  =    256;   APACO  = 16.0  distance and # of slots for P.C.
   PSTRESS=    0.0 pullay stress

  Mass of Ions in am
   POMASS =  12.01
  Ionic Valenz
   ZVAL   =   4.00
  Atomic Wigner-Seitz radii
   RWIGS  =  -1.00
  virtual crystal weights 
   VCA    =   1.00
   NELECT =      16.0000    total number of electrons
   NUPDOWN=      -1.0000    fix difference up-down

 DOS related values:
   EMIN   =  10.00;   EMAX   =-10.00  energy-range for DOS
   EFERMI =   0.00
   ISMEAR =     0;   SIGMA  =   0.01  broadening in eV -4-tet -1-fermi 0-gaus

 Electronic relaxation 2 (details)
   IALGO  =     38    algorithm
   LDIAG  =      T    sub-space diagonalisation (order eigenvalues)
   LSUBROT=      F    optimize rotation matrix (better conditioning)
   TURBO    =      0    0=normal 1=particle mesh
   IRESTART =      0    0=no restart 2=restart with 2 vectors
   NREBOOT  =      0    no. of reboots
   NMIN     =      0    reboot dimension
   EREF     =   0.00    reference energy to select bands
   IMIX   =      4    mixing-type and parameters
     AMIX     =   0.40;   BMIX     =  1.00
     AMIX_MAG =   1.60;   BMIX_MAG =  1.00
     AMIN     =   0.01
     WC   =   100.;   INIMIX=   1;  MIXPRE=   1;  MAXMIX= -45

 Intra band minimization:
   WEIMIN = 0.0000     energy-eigenvalue tresh-hold
   EBREAK =  0.21E-09  absolut break condition
   DEPER  =   0.30     relativ break condition  

   TIME   =   0.40     timestep for ELM

  volume/ion in A,a.u.               =      26.19       176.76
  Fermi-wavevector in a.u.,A,eV,Ry     =   0.875041  1.653589 10.417948  0.765698
  Thomas-Fermi vector in A             =   1.994657
 
 Write flags
   LWAVE        =      F    write WAVECAR
   LDOWNSAMPLE  =      F    k-point downsampling of WAVECAR
   LCHARG       =      T    write CHGCAR
   LVTOT        =      F    write LOCPOT, total local potential
   LVHAR        =      F    write LOCPOT, Hartree potential only
   LELF         =      F    write electronic localiz. function (ELF)
   LORBIT       =      0    0 simple, 1 ext, 2 COOP (PROOUT), +10 PAW based schemes


 Dipole corrections
   LMONO  =      F    monopole corrections only (constant potential shift)
   LDIPOL =      F    correct potential (dipole corrections)
   IDIPOL =      0    1-x, 2-y, 3-z, 4-all directions 
   EPSILON=  1.0000000 bulk dielectric constant

 Exchange correlation treatment:
   GGA     =    --    GGA type
   LEXCH   =     8    internal setting for exchange type
   VOSKOWN=      0    Vosko Wilk Nusair interpolation
   LHFCALC =     F    Hartree Fock is set to
   LHFONE  =     F    Hartree Fock one center treatment
   AEXX    =    0.0000 exact exchange contribution

 Linear response parameters
   LEPSILON=     F    determine dielectric tensor
   LRPA    =     F    only Hartree local field effects (RPA)
   LNABLA  =     F    use nabla operator in PAW spheres
   LVEL    =     F    velocity operator in full k-point grid
   LINTERFAST=   F  fast interpolation
   KINTER  =     0    interpolate to denser k-point grid
   CSHIFT  =0.1000    complex shift for real part using Kramers Kronig
   OMEGAMAX=  -1.0    maximum frequency
   DEG_THRESHOLD= 0.2000000E-02 threshold for treating states as degnerate
   RTIME   =   -0.100 relaxation time in fs
  (WPLASMAI=    0.000 imaginary part of plasma frequency in eV, 0.658/RTIME)
   DFIELD  = 0.0000000 0.0000000 0.0000000 field for delta impulse in time
 
 Orbital magnetization related:
   ORBITALMAG=     F  switch on orbital magnetization
   LCHIMAG   =     F  perturbation theory with respect to B field
   DQ        =  0.001000  dq finite difference perturbation B field
   LLRAUG    =     F  two centre corrections for induced B field



--------------------------------------------------------------------------------------------------------


 Static calculation
 charge density and potential will be updated during run
 non-spin polarized calculation
 Variant of blocked Davidson
 Davidson routine will perform the subspace rotation
 perform sub-space diagonalisation
    after iterative eigenvector-optimisation
 modified Broyden-mixing scheme, WC =      100.0
 initial mixing is a Kerker type mixing with AMIX =  0.4000 and BMIX =      1.0000
 Hartree-type preconditioning will be used
 using additional bands            4
 reciprocal scheme for non local part
 use partial core corrections
 calculate Harris-corrections to forces 
   (improved forces if not selfconsistent)
 use gradient corrections 
 use of overlap-Matrix (Vanderbilt PP)
 Gauss-broadening in eV      SIGMA  =   0.01


--------------------------------------------------------------------------------------------------------


  energy-cutoff  :      800.00
  volume of cell :      104.78
      direct lattice vectors                 reciprocal lattice vectors
     2.130000000 -1.229756000  0.000000000     0.234741784 -0.406584721  0.000000000
     2.130000000  1.229756000  0.000000000     0.234741784  0.406584721  0.000000000
     0.000000000  0.000000000 20.000000000     0.000000000  0.000000000  0.050000000

  length of vectors
     2.459512110  2.459512110 20.000000000     0.469483589  0.469483589  0.050000000


 
 k-points in units of 2pi/SCALE and weight: k grid                                  
   0.00000000  0.00000000  0.00000000       0.002
   0.01117818 -0.01936118  0.00000000       0.014
   0.02235636 -0.03872235  0.00000000       0.014
   0.03353454 -0.05808353  0.00000000       0.014
   0.04471272 -0.07744471  0.00000000       0.014
   0.05589090 -0.09680589  0.00000000       0.014
   0.06706908 -0.11616706  0.00000000       0.014
   0.07824726 -0.13552824  0.00000000       0.014
   0.08942544 -0.15488942  0.00000000       0.014
   0.10060362 -0.17425059  0.00000000       0.014
   0.11178180 -0.19361177  0.00000000       0.014
   0.03353454 -0.01936118  0.00000000       0.014
   0.04471272 -0.03872235  0.00000000       0.027
   0.05589090 -0.05808353  0.00000000       0.027
   0.06706908 -0.07744471  0.00000000       0.027
   0.07824726 -0.09680589  0.00000000       0.027
   0.08942544 -0.11616706  0.00000000       0.027
   0.10060362 -0.13552824  0.00000000       0.027
   0.11178180 -0.15488942  0.00000000       0.027
   0.12295998 -0.17425059  0.00000000       0.027
  -0.10060362  0.21297295  0.00000000       0.014
   0.06706908 -0.03872235  0.00000000       0.014
   0.07824726 -0.05808353  0.00000000       0.027
   0.08942544 -0.07744471  0.00000000       0.027
   0.10060362 -0.09680589  0.00000000       0.027
   0.11178180 -0.11616706  0.00000000       0.027
   0.12295998 -0.13552824  0.00000000       0.027
   0.13413816 -0.15488942  0.00000000       0.027
  -0.08942544  0.23233413  0.00000000       0.027
   0.10060362 -0.05808353  0.00000000       0.014
   0.11178180 -0.07744471  0.00000000       0.027
   0.12295998 -0.09680589  0.00000000       0.027
   0.13413816 -0.11616706  0.00000000       0.027
   0.14531634 -0.13552824  0.00000000       0.027
  -0.07824726  0.25169530  0.00000000       0.027
  -0.06706908  0.23233413  0.00000000       0.014
   0.13413816 -0.07744471  0.00000000       0.014
   0.14531634 -0.09680589  0.00000000       0.027
   0.15649452 -0.11616706  0.00000000       0.027
  -0.06706908  0.27105648  0.00000000       0.027
  -0.05589090  0.25169530  0.00000000       0.027
   0.16767270 -0.09680589  0.00000000       0.014
  -0.05589090  0.29041766  0.00000000       0.027
  -0.04471272  0.27105648  0.00000000       0.027
  -0.03353454  0.25169530  0.00000000       0.014
  -0.03353454  0.29041766  0.00000000       0.014
  -0.02235636  0.27105648  0.00000000       0.027
   0.00000000  0.27105648  0.00000000       0.005
 
 k-points in reciprocal lattice and weights: k grid                                  
   0.00000000  0.00000000  0.00000000       0.002
   0.04761905  0.00000000  0.00000000       0.014
   0.09523810  0.00000000  0.00000000       0.014
   0.14285714  0.00000000  0.00000000       0.014
   0.19047619  0.00000000  0.00000000       0.014
   0.23809524  0.00000000  0.00000000       0.014
   0.28571429  0.00000000  0.00000000       0.014
   0.33333333  0.00000000  0.00000000       0.014
   0.38095238  0.00000000  0.00000000       0.014
   0.42857143  0.00000000  0.00000000       0.014
   0.47619048  0.00000000  0.00000000       0.014
   0.09523810  0.04761905  0.00000000       0.014
   0.14285714  0.04761905  0.00000000       0.027
   0.19047619  0.04761905  0.00000000       0.027
   0.23809524  0.04761905  0.00000000       0.027
   0.28571429  0.04761905  0.00000000       0.027
   0.33333333  0.04761905  0.00000000       0.027
   0.38095238  0.04761905  0.00000000       0.027
   0.42857143  0.04761905  0.00000000       0.027
   0.47619048  0.04761905  0.00000000       0.027
  -0.47619048  0.04761905  0.00000000       0.014
   0.19047619  0.09523810  0.00000000       0.014
   0.23809524  0.09523810  0.00000000       0.027
   0.28571429  0.09523810  0.00000000       0.027
   0.33333333  0.09523810  0.00000000       0.027
   0.38095238  0.09523810  0.00000000       0.027
   0.42857143  0.09523810  0.00000000       0.027
   0.47619048  0.09523810  0.00000000       0.027
  -0.47619048  0.09523810  0.00000000       0.027
   0.28571429  0.14285714  0.00000000       0.014
   0.33333333  0.14285714  0.00000000       0.027
   0.38095238  0.14285714  0.00000000       0.027
   0.42857143  0.14285714  0.00000000       0.027
   0.47619048  0.14285714  0.00000000       0.027
  -0.47619048  0.14285714  0.00000000       0.027
  -0.42857143  0.14285714  0.00000000       0.014
   0.38095238  0.19047619  0.00000000       0.014
   0.42857143  0.19047619  0.00000000       0.027
   0.47619048  0.19047619  0.00000000       0.027
  -0.47619048  0.19047619  0.00000000       0.027
  -0.42857143  0.19047619  0.00000000       0.027
   0.47619048  0.23809524  0.00000000       0.014
  -0.47619048  0.23809524  0.00000000       0.027
  -0.42857143  0.23809524  0.00000000       0.027
  -0.38095238  0.23809524  0.00000000       0.014
  -0.42857143  0.28571429  0.00000000       0.014
  -0.38095238  0.28571429  0.00000000       0.027
  -0.33333333  0.33333333  0.00000000       0.005
 
 position of ions in fractional coordinates (direct lattice) 
   0.00000000  0.00000000  0.00000000
   0.33333300  0.33333300  0.00000000
   0.00000000  0.00000000  0.20000000
   0.33333300  0.33333300  0.20000000
 
 position of ions in cartesian coordinates  (Angst):
   0.00000000  0.00000000  0.00000000
   1.41999858  0.00000000  0.00000000
   0.00000000  0.00000000  4.00000000
   1.41999858  0.00000000  4.00000000
 


--------------------------------------------------------------------------------------------------------


 k-point  1 :   0.0000 0.0000 0.0000  plane waves:    5409
 k-point  2 :   0.0476 0.0000 0.0000  plane waves:    5413
 k-point  3 :   0.0952 0.0000 0.0000  plane waves:    5402
 k-point  4 :   0.1429 0.0000 0.0000  plane waves:    5398
 k-point  5 :   0.1905 0.0000 0.0000  plane waves:    5404
 k-point  6 :   0.2381 0.0000 0.0000  plane waves:    5408
 k-point  7 :   0.2857 0.0000 0.0000  plane waves:    5404
 k-point  8 :   0.3333 0.0000 0.0000  plane waves:    5394
 k-point  9 :   0.3810 0.0000 0.0000  plane waves:    5382
 k-point 10 :   0.4286 0.0000 0.0000  plane waves:    5396
 k-point 11 :   0.4762 0.0000 0.0000  plane waves:    5380
 k-point 12 :   0.0952 0.0476 0.0000  plane waves:    5411
 k-point 13 :   0.1429 0.0476 0.0000  plane waves:    5415
 k-point 14 :   0.1905 0.0476 0.0000  plane waves:    5413
 k-point 15 :   0.2381 0.0476 0.0000  plane waves:    5399
 k-point 16 :   0.2857 0.0476 0.0000  plane waves:    5396
 k-point 17 :   0.3333 0.0476 0.0000  plane waves:    5389
 k-point 18 :   0.3810 0.0476 0.0000  plane waves:    5378
 k-point 19 :   0.4286 0.0476 0.0000  plane waves:    5381
 k-point 20 :   0.4762 0.0476 0.0000  plane waves:    5391
 k-point 21 :  -0.4762 0.0476 0.0000  plane waves:    5394
 k-point 22 :   0.1905 0.0952 0.0000  plane waves:    5403
 k-point 23 :   0.2381 0.0952 0.0000  plane waves:    5409
 k-point 24 :   0.2857 0.0952 0.0000  plane waves:    5419
 k-point 25 :   0.3333 0.0952 0.0000  plane waves:    5384
 k-point 26 :   0.3810 0.0952 0.0000  plane waves:    5369
 k-point 27 :   0.4286 0.0952 0.0000  plane waves:    5364
 k-point 28 :   0.4762 0.0952 0.0000  plane waves:    5382
 k-point 29 :  -0.4762 0.0952 0.0000  plane waves:    5404
 k-point 30 :   0.2857 0.1429 0.0000  plane waves:    5405
 k-point 31 :   0.3333 0.1429 0.0000  plane waves:    5404
 k-point 32 :   0.3810 0.1429 0.0000  plane waves:    5382
 k-point 33 :   0.4286 0.1429 0.0000  plane waves:    5347
 k-point 34 :   0.4762 0.1429 0.0000  plane waves:    5367
 k-point 35 :  -0.4762 0.1429 0.0000  plane waves:    5376
 k-point 36 :  -0.4286 0.1429 0.0000  plane waves:    5400
 k-point 37 :   0.3810 0.1905 0.0000  plane waves:    5390
 k-point 38 :   0.4286 0.1905 0.0000  plane waves:    5358
 k-point 39 :   0.4762 0.1905 0.0000  plane waves:    5365
 k-point 40 :  -0.4762 0.1905 0.0000  plane waves:    5363
 k-point 41 :  -0.4286 0.1905 0.0000  plane waves:    5377
 k-point 42 :   0.4762 0.2381 0.0000  plane waves:    5364
 k-point 43 :  -0.4762 0.2381 0.0000  plane waves:    5368
 k-point 44 :  -0.4286 0.2381 0.0000  plane waves:    5360
 k-point 45 :  -0.3810 0.2381 0.0000  plane waves:    5366
 k-point 46 :  -0.4286 0.2857 0.0000  plane waves:    5362
 k-point 47 :  -0.3810 0.2857 0.0000  plane waves:    5326
 k-point 48 :  -0.3333 0.3333 0.0000  plane waves:    5334

 maximum and minimum number of plane-waves per node :      5419     5326

 maximum number of plane-waves:      5419
 maximum index in each direction: 
   IXMAX=    6   IYMAX=    5   IZMAX=   46
   IXMIN=   -6   IYMIN=   -5   IZMIN=  -46


 serial   3D FFT for wavefunctions
 parallel 3D FFT for charge:
    minimum data exchange during FFTs selected (reduces bandwidth)


 total amount of memory used by VASP MPI-rank0   107376. kBytes
=======================================================================

   base      :      30000. kBytes
   nonl-proj :      16997. kBytes
   fftplans  :      32720. kBytes
   grid      :      15086. kBytes
   one-center:         12. kBytes
   wavefun   :      12561. kBytes
 
     INWAV:  cpu time    0.0000: real time    0.0001
 Broyden mixing: mesh for mixing (old mesh)
   NGX = 11   NGY = 11   NGZ = 93
  (NGX  = 48   NGY  = 48   NGZ  =384)
  gives a total of  11253 points

 initial charge density was supplied:
 charge density of overlapping atoms calculated
 number of electron      16.0000000 magnetization 
 keeping initial charge density in first step


--------------------------------------------------------------------------------------------------------


 Maximum index for augmentation-charges        24142 (set IRDMAX)


--------------------------------------------------------------------------------------------------------


 First call to EWALD:  gamma=   0.376
 Maximum number of real-space cells 5x 5x 1
 Maximum number of reciprocal cells 2x 2x10

    FEWALD:  cpu time    0.0011: real time    0.0011


--------------------------------------- Iteration      1(   1)  ---------------------------------------


    POTLOK:  cpu time    0.0868: real time    0.1037
    SETDIJ:  cpu time    0.0431: real time    0.0433
     EDDAV:  cpu time    1.4519: real time    1.4570
       DOS:  cpu time    0.0004: real time    0.0004
    --------------------------------------------
      LOOP:  cpu time    1.5822: real time    1.6043

 eigenvalue-minimisations  :  1152
 total energy-change (2. order) : 0.1270447E+03  (-0.8014494E+03)
 number of electron      16.0000000 magnetization 
 augmentation part       16.0000000 magnetization 

 Free energy of the ion-electron system (eV)
  ---------------------------------------------------
  alpha Z        PSCENC =        12.54445055
  Ewald energy   TEWEN  =      2753.44633211
  -Hartree energ DENC   =     -3215.15055456
  -exchange      EXHF   =         0.00000000
  -V(xc)+E(xc)   XCENC  =        52.83054840
  PAW double counting   =       434.08818552     -436.36580876
  entropy T*S    EENTRO =        -0.00001426
  eigenvalues    EBANDS =       -62.96613518
  atomic energy  EATOM  =       588.61769381
  Solvation  Ediel_sol  =         0.00000000
  ---------------------------------------------------
  free energy    TOTEN  =       127.04469763 eV

  energy without entropy =      127.04471189  energy(sigma->0) =      127.04470476


--------------------------------------------------------------------------------------------------------




--------------------------------------- Iteration      1(   2)  ---------------------------------------


     EDDAV:  cpu time    2.0134: real time    2.0197
       DOS:  cpu time    0.0004: real time    0.0004
    --------------------------------------------
      LOOP:  cpu time    2.0138: real time    2.0201

 eigenvalue-minimisations  :  1844
 total energy-change (2. order) :-0.1521286E+03  (-0.1389909E+03)
 number of electron      16.0000000 magnetization 
 augmentation part       16.0000000 magnetization 

 Free energy of the ion-electron system (eV)
  ---------------------------------------------------
  alpha Z        PSCENC =        12.54445055
  Ewald energy   TEWEN  =      2753.44633211
  -Hartree energ DENC   =     -3215.15055456
  -exchange      EXHF   =         0.00000000
  -V(xc)+E(xc)   XCENC  =        52.83054840
  PAW double counting   =       434.08818552     -436.36580876
  entropy T*S    EENTRO =        -0.00004807
  eigenvalues    EBANDS =      -215.09465651
  atomic energy  EATOM  =       588.61769381
  Solvation  Ediel_sol  =         0.00000000
  ---------------------------------------------------
  free energy    TOTEN  =       -25.08385751 eV

  energy without entropy =      -25.08380944  energy(sigma->0) =      -25.08383348


--------------------------------------------------------------------------------------------------------




--------------------------------------- Iteration      1(   3)  ---------------------------------------


     EDDAV:  cpu time    1.6676: real time    1.6730
       DOS:  cpu time    0.0002: real time    0.0002
    --------------------------------------------
      LOOP:  cpu time    1.6678: real time    1.6732

 eigenvalue-minimisations  :  1444
 total energy-change (2. order) :-0.1410587E+02  (-0.1397708E+02)
 number of electron      16.0000000 magnetization 
 augmentation part       16.0000000 magnetization 

 Free energy of the ion-electron system (eV)
  ---------------------------------------------------
  alpha Z        PSCENC =        12.54445055
  Ewald energy   TEWEN  =      2753.44633211
  -Hartree energ DENC   =     -3215.15055456
  -exchange      EXHF   =         0.00000000
  -V(xc)+E(xc)   XCENC  =        52.83054840
  PAW double counting   =       434.08818552     -436.36580876
  entropy T*S    EENTRO =        -0.00000000
  eigenvalues    EBANDS =      -229.20057184
  atomic energy  EATOM  =       588.61769381
  Solvation  Ediel_sol  =         0.00000000
  ---------------------------------------------------
  free energy    TOTEN  =       -39.18972477 eV

  energy without entropy =      -39.18972477  energy(sigma->0) =      -39.18972477


--------------------------------------------------------------------------------------------------------




--------------------------------------- Iteration      1(   4)  ---------------------------------------


     EDDAV:  cpu time    1.7081: real time    1.7133
       DOS:  cpu time    0.0002: real time    0.0002
    --------------------------------------------
      LOOP:  cpu time    1.7083: real time    1.7134

 eigenvalue-minimisations  :  1476
 total energy-change (2. order) :-0.3016347E+00  (-0.3008007E+00)
 number of electron      16.0000000 magnetization 
 augmentation part       16.0000000 magnetization 

 Free energy of the ion-electron system (eV)
  ---------------------------------------------------
  alpha Z        PSCENC =        12.54445055
  Ewald energy   TEWEN  =      2753.44633211
  -Hartree energ DENC   =     -3215.15055456
  -exchange      EXHF   =         0.00000000
  -V(xc)+E(xc)   XCENC  =        52.83054840
  PAW double counting   =       434.08818552     -436.36580876
  entropy T*S    EENTRO =        -0.00000000
  eigenvalues    EBANDS =      -229.50220650
  atomic energy  EATOM  =       588.61769381
  Solvation  Ediel_sol  =         0.00000000
  ---------------------------------------------------
  free energy    TOTEN  =       -39.49135942 eV

  energy without entropy =      -39.49135942  energy(sigma->0) =      -39.49135942


--------------------------------------------------------------------------------------------------------




--------------------------------------- Iteration      1(   5)  ---------------------------------------


     EDDAV:  cpu time    1.7012: real time    1.7063
       DOS:  cpu time    0.0002: real time    0.0002
    CHARGE:  cpu time    0.1890: real time    0.1895
    MIXING:  cpu time    0.0025: real time    0.0025
    --------------------------------------------
      LOOP:  cpu time    1.8929: real time    1.8985

 eigenvalue-minimisations  :  1468
 total energy-change (2. order) :-0.8824799E-02  (-0.8811160E-02)
 number of electron      16.0000000 magnetization 
 augmentation part        0.4280332 magnetization 

 Broyden mixing:
  rms(total) = 0.90204E+00    rms(broyden)= 0.90203E+00
  rms(prec ) = 0.96425E+00
  weight for this iteration     100.00

 Free energy of the ion-electron system (eV)
  ---------------------------------------------------
  alpha Z        PSCENC =        12.54445055
  Ewald energy   TEWEN  =      2753.44633211
  -Hartree energ DENC   =     -3215.15055456
  -exchange      EXHF   =         0.00000000
  -V(xc)+E(xc)   XCENC  =        52.83054840
  PAW double counting   =       434.08818552     -436.36580876
  entropy T*S    EENTRO =        -0.00000000
  eigenvalues    EBANDS =      -229.51103130
  atomic energy  EATOM  =       588.61769381
  Solvation  Ediel_sol  =         0.00000000
  ---------------------------------------------------
  free energy    TOTEN  =       -39.50018422 eV

  energy without entropy =      -39.50018422  energy(sigma->0) =      -39.50018422


--------------------------------------------------------------------------------------------------------




--------------------------------------- Iteration      1(   6)  ---------------------------------------


    POTLOK:  cpu time    0.0738: real time    0.0740
    SETDIJ:  cpu time    0.0360: real time    0.0362
     EDDAV:  cpu time    1.6307: real time    1.6361
       DOS:  cpu time    0.0002: real time    0.0002
    CHARGE:  cpu time    0.1855: real time    0.1860
    MIXING:  cpu time    0.0030: real time    0.0030
    --------------------------------------------
      LOOP:  cpu time    1.9293: real time    1.9356

 eigenvalue-minimisations  :  1380
 total energy-change (2. order) : 0.1877722E+01  (-0.1744856E+00)
 number of electron      16.0000000 magnetization 
 augmentation part        0.4090942 magnetization 

 Broyden mixing:
  rms(total) = 0.52905E+00    rms(broyden)= 0.52905E+00
  rms(prec ) = 0.55947E+00
  weight for this iteration     100.00

 eigenvalues of (default mixing * dielectric matrix)
  average eigenvalue GAMMA=   2.2041
  2.2041

 Free energy of the ion-electron system (eV)
  ---------------------------------------------------
  alpha Z        PSCENC =        12.54445055
  Ewald energy   TEWEN  =      2753.44633211
  -Hartree energ DENC   =     -3235.24733367
  -exchange      EXHF   =         0.00000000
  -V(xc)+E(xc)   XCENC  =        53.82444192
  PAW double counting   =       803.49195991     -806.06834272
  entropy T*S    EENTRO =        -0.00000000
  eigenvalues    EBANDS =      -208.23166407
  atomic energy  EATOM  =       588.61769381
  Solvation  Ediel_sol  =         0.00000000
  ---------------------------------------------------
  free energy    TOTEN  =       -37.62246216 eV

  energy without entropy =      -37.62246216  energy(sigma->0) =      -37.62246216


--------------------------------------------------------------------------------------------------------




--------------------------------------- Iteration      1(   7)  ---------------------------------------


    POTLOK:  cpu time    0.0735: real time    0.0739
    SETDIJ:  cpu time    0.0358: real time    0.0360
     EDDAV:  cpu time    1.6782: real time    1.6834
       DOS:  cpu time    0.0002: real time    0.0002
    CHARGE:  cpu time    0.1824: real time    0.1828
    MIXING:  cpu time    0.0027: real time    0.0027
    --------------------------------------------
      LOOP:  cpu time    1.9728: real time    1.9790

 eigenvalue-minimisations  :  1416
 total energy-change (2. order) : 0.6793954E+00  (-0.2296156E+00)
 number of electron      16.0000000 magnetization 
 augmentation part        0.3867743 magnetization 

 Broyden mixing:
  rms(total) = 0.13764E+00    rms(broyden)= 0.13764E+00
  rms(prec ) = 0.14298E+00
  weight for this iteration     100.00

 eigenvalues of (default mixing * dielectric matrix)
  average eigenvalue GAMMA=   2.2808
  2.1703  2.3913

 Free energy of the ion-electron system (eV)
  ---------------------------------------------------
  alpha Z        PSCENC =        12.54445055
  Ewald energy   TEWEN  =      2753.44633211
  -Hartree energ DENC   =     -3261.18575072
  -exchange      EXHF   =         0.00000000
  -V(xc)+E(xc)   XCENC  =        55.11943414
  PAW double counting   =      1520.55705636    -1523.39736522
  entropy T*S    EENTRO =        -0.00000000
  eigenvalues    EBANDS =      -182.64491781
  atomic energy  EATOM  =       588.61769381
  Solvation  Ediel_sol  =         0.00000000
  ---------------------------------------------------
  free energy    TOTEN  =       -36.94306677 eV

  energy without entropy =      -36.94306677  energy(sigma->0) =      -36.94306677


--------------------------------------------------------------------------------------------------------




--------------------------------------- Iteration      1(   8)  ---------------------------------------


    POTLOK:  cpu time    0.0730: real time    0.0732
    SETDIJ:  cpu time    0.0382: real time    0.0383
     EDDAV:  cpu time    1.7187: real time    1.7238
       DOS:  cpu time    0.0002: real time    0.0002
    CHARGE:  cpu time    0.1845: real time    0.1850
    MIXING:  cpu time    0.0027: real time    0.0028
    --------------------------------------------
      LOOP:  cpu time    2.0173: real time    2.0231

 eigenvalue-minimisations  :  1436
 total energy-change (2. order) : 0.2801557E-02  (-0.7566086E-02)
 number of electron      16.0000000 magnetization 
 augmentation part        0.3860273 magnetization 

 Broyden mixing:
  rms(total) = 0.13332E-01    rms(broyden)= 0.13332E-01
  rms(prec ) = 0.28008E-01
  weight for this iteration     100.00

 eigenvalues of (default mixing * dielectric matrix)
  average eigenvalue GAMMA=   1.7907
  0.9176  2.3241  2.1304

 Free energy of the ion-electron system (eV)
  ---------------------------------------------------
  alpha Z        PSCENC =        12.54445055
  Ewald energy   TEWEN  =      2753.44633211
  -Hartree energ DENC   =     -3262.88666590
  -exchange      EXHF   =         0.00000000
  -V(xc)+E(xc)   XCENC  =        55.09618797
  PAW double counting   =      1709.75654684    -1712.48083298
  entropy T*S    EENTRO =        -0.00000000
  eigenvalues    EBANDS =      -181.03397762
  atomic energy  EATOM  =       588.61769381
  Solvation  Ediel_sol  =         0.00000000
  ---------------------------------------------------
  free energy    TOTEN  =       -36.94026521 eV

  energy without entropy =      -36.94026521  energy(sigma->0) =      -36.94026521


--------------------------------------------------------------------------------------------------------




--------------------------------------- Iteration      1(   9)  ---------------------------------------


    POTLOK:  cpu time    0.0729: real time    0.0731
    SETDIJ:  cpu time    0.0381: real time    0.0382
     EDDAV:  cpu time    1.7286: real time    1.7337
       DOS:  cpu time    0.0002: real time    0.0002
    CHARGE:  cpu time    0.1826: real time    0.1831
    MIXING:  cpu time    0.0028: real time    0.0028
    --------------------------------------------
      LOOP:  cpu time    2.0252: real time    2.0311

 eigenvalue-minimisations  :  1448
 total energy-change (2. order) : 0.1767364E-02  (-0.2592805E-03)
 number of electron      16.0000000 magnetization 
 augmentation part        0.3855559 magnetization 

 Broyden mixing:
  rms(total) = 0.93607E-02    rms(broyden)= 0.93606E-02
  rms(prec ) = 0.24823E-01
  weight for this iteration     100.00

 eigenvalues of (default mixing * dielectric matrix)
  average eigenvalue GAMMA=   2.0791
  1.0403  2.6651  2.6651  1.9459

 Free energy of the ion-electron system (eV)
  ---------------------------------------------------
  alpha Z        PSCENC =        12.54445055
  Ewald energy   TEWEN  =      2753.44633211
  -Hartree energ DENC   =     -3263.95826516
  -exchange      EXHF   =         0.00000000
  -V(xc)+E(xc)   XCENC  =        55.12066188
  PAW double counting   =      1703.88690759    -1706.61632465
  entropy T*S    EENTRO =        -0.00000000
  eigenvalues    EBANDS =      -179.97995399
  atomic energy  EATOM  =       588.61769381
  Solvation  Ediel_sol  =         0.00000000
  ---------------------------------------------------
  free energy    TOTEN  =       -36.93849785 eV

  energy without entropy =      -36.93849785  energy(sigma->0) =      -36.93849785


--------------------------------------------------------------------------------------------------------




--------------------------------------- Iteration      1(  10)  ---------------------------------------


    POTLOK:  cpu time    0.0730: real time    0.0732
    SETDIJ:  cpu time    0.0379: real time    0.0380
     EDDAV:  cpu time    1.6202: real time    1.6250
       DOS:  cpu time    0.0002: real time    0.0002
    CHARGE:  cpu time    0.1761: real time    0.1766
    MIXING:  cpu time    0.0029: real time    0.0029
    --------------------------------------------
      LOOP:  cpu time    1.9103: real time    1.9158

 eigenvalue-minimisations  :  1368
 total energy-change (2. order) : 0.7035559E-02  (-0.4037256E-03)
 number of electron      16.0000000 magnetization 
 augmentation part        0.3850358 magnetization 

 Broyden mixing:
  rms(total) = 0.10561E-01    rms(broyden)= 0.10561E-01
  rms(prec ) = 0.19107E-01
  weight for this iteration     100.00

 eigenvalues of (default mixing * dielectric matrix)
  average eigenvalue GAMMA=   1.8934
  3.1548  2.5140  1.9803  1.0143  0.8037

 Free energy of the ion-electron system (eV)
  ---------------------------------------------------
  alpha Z        PSCENC =        12.54445055
  Ewald energy   TEWEN  =      2753.44633211
  -Hartree energ DENC   =     -3268.45570218
  -exchange      EXHF   =         0.00000000
  -V(xc)+E(xc)   XCENC  =        55.17903305
  PAW double counting   =      1683.53440113    -1686.25849899
  entropy T*S    EENTRO =        -0.00000000
  eigenvalues    EBANDS =      -175.53917179
  atomic energy  EATOM  =       588.61769381
  Solvation  Ediel_sol  =         0.00000000
  ---------------------------------------------------
  free energy    TOTEN  =       -36.93146229 eV

  energy without entropy =      -36.93146229  energy(sigma->0) =      -36.93146229


--------------------------------------------------------------------------------------------------------




--------------------------------------- Iteration      1(  11)  ---------------------------------------


    POTLOK:  cpu time    0.0713: real time    0.0716
    SETDIJ:  cpu time    0.0350: real time    0.0351
     EDDAV:  cpu time    1.6124: real time    1.6172
       DOS:  cpu time    0.0002: real time    0.0002
    CHARGE:  cpu time    0.1818: real time    0.1822
    MIXING:  cpu time    0.0033: real time    0.0033
    --------------------------------------------
      LOOP:  cpu time    1.9040: real time    1.9095

 eigenvalue-minimisations  :  1360
 total energy-change (2. order) : 0.1693880E-02  (-0.5300482E-04)
 number of electron      16.0000000 magnetization 
 augmentation part        0.3849003 magnetization 

 Broyden mixing:
  rms(total) = 0.52786E-02    rms(broyden)= 0.52786E-02
  rms(prec ) = 0.14766E-01
  weight for this iteration     100.00

 eigenvalues of (default mixing * dielectric matrix)
  average eigenvalue GAMMA=   2.1396
  4.1981  2.4765  2.1307  1.9207  0.9850  1.1264

 Free energy of the ion-electron system (eV)
  ---------------------------------------------------
  alpha Z        PSCENC =        12.54445055
  Ewald energy   TEWEN  =      2753.44633211
  -Hartree energ DENC   =     -3269.85675910
  -exchange      EXHF   =         0.00000000
  -V(xc)+E(xc)   XCENC  =        55.19168900
  PAW double counting   =      1699.86155315    -1702.58181182
  entropy T*S    EENTRO =        -0.00000000
  eigenvalues    EBANDS =      -174.15291612
  atomic energy  EATOM  =       588.61769381
  Solvation  Ediel_sol  =         0.00000000
  ---------------------------------------------------
  free energy    TOTEN  =       -36.92976841 eV

  energy without entropy =      -36.92976841  energy(sigma->0) =      -36.92976841


--------------------------------------------------------------------------------------------------------




--------------------------------------- Iteration      1(  12)  ---------------------------------------


    POTLOK:  cpu time    0.0691: real time    0.0694
    SETDIJ:  cpu time    0.0358: real time    0.0360
     EDDAV:  cpu time    1.4976: real time    1.5024
       DOS:  cpu time    0.0002: real time    0.0002
    CHARGE:  cpu time    0.1869: real time    0.1874
    MIXING:  cpu time    0.0032: real time    0.0032
    --------------------------------------------
      LOOP:  cpu time    1.7928: real time    1.7985

 eigenvalue-minimisations  :  1208
 total energy-change (2. order) : 0.3497627E-02  (-0.1745051E-03)
 number of electron      16.0000000 magnetization 
 augmentation part        0.3848401 magnetization 

 Broyden mixing:
  rms(total) = 0.36581E-02    rms(broyden)= 0.36581E-02
  rms(prec ) = 0.98367E-02
  weight for this iteration     100.00

 eigenvalues of (default mixing * dielectric matrix)
  average eigenvalue GAMMA=   2.4230
  6.3079  2.8104  2.2557  2.0510  1.4708  0.9976  1.0673

 Free energy of the ion-electron system (eV)
  ---------------------------------------------------
  alpha Z        PSCENC =        12.54445055
  Ewald energy   TEWEN  =      2753.44633211
  -Hartree energ DENC   =     -3273.04937481
  -exchange      EXHF   =         0.00000000
  -V(xc)+E(xc)   XCENC  =        55.19202183
  PAW double counting   =      1698.63226097    -1701.35600843
  entropy T*S    EENTRO =        -0.00000000
  eigenvalues    EBANDS =      -170.95364682
  atomic energy  EATOM  =       588.61769381
  Solvation  Ediel_sol  =         0.00000000
  ---------------------------------------------------
  free energy    TOTEN  =       -36.92627078 eV

  energy without entropy =      -36.92627078  energy(sigma->0) =      -36.92627078


--------------------------------------------------------------------------------------------------------




--------------------------------------- Iteration      1(  13)  ---------------------------------------


    POTLOK:  cpu time    0.0673: real time    0.0675
    SETDIJ:  cpu time    0.0355: real time    0.0356
     EDDAV:  cpu time    1.5625: real time    1.5675
       DOS:  cpu time    0.0002: real time    0.0002
    CHARGE:  cpu time    0.1842: real time    0.1846
    MIXING:  cpu time    0.0032: real time    0.0033
    --------------------------------------------
      LOOP:  cpu time    1.8529: real time    1.8587

 eigenvalue-minimisations  :  1288
 total energy-change (2. order) : 0.3837626E-03  (-0.2476699E-04)
 number of electron      16.0000000 magnetization 
 augmentation part        0.3848046 magnetization 

 Broyden mixing:
  rms(total) = 0.33388E-02    rms(broyden)= 0.33388E-02
  rms(prec ) = 0.75757E-02
  weight for this iteration     100.00

 eigenvalues of (default mixing * dielectric matrix)
  average eigenvalue GAMMA=   2.6531
  8.0985  3.4124  2.4899  2.0244  1.9402  1.2678  0.9957  0.9957

 Free energy of the ion-electron system (eV)
  ---------------------------------------------------
  alpha Z        PSCENC =        12.54445055
  Ewald energy   TEWEN  =      2753.44633211
  -Hartree energ DENC   =     -3274.84632814
  -exchange      EXHF   =         0.00000000
  -V(xc)+E(xc)   XCENC  =        55.19078948
  PAW double counting   =      1697.16760156    -1699.89152089
  entropy T*S    EENTRO =        -0.00000000
  eigenvalues    EBANDS =      -169.15490549
  atomic energy  EATOM  =       588.61769381
  Solvation  Ediel_sol  =         0.00000000
  ---------------------------------------------------
  free energy    TOTEN  =       -36.92588702 eV

  energy without entropy =      -36.92588702  energy(sigma->0) =      -36.92588702


--------------------------------------------------------------------------------------------------------




--------------------------------------- Iteration      1(  14)  ---------------------------------------


    POTLOK:  cpu time    0.0665: real time    0.0690
    SETDIJ:  cpu time    0.0364: real time    0.0365
     EDDAV:  cpu time    1.5344: real time    1.5397
       DOS:  cpu time    0.0001: real time    0.0001
    CHARGE:  cpu time    0.1780: real time    0.1784
    MIXING:  cpu time    0.0033: real time    0.0033
    --------------------------------------------
      LOOP:  cpu time    1.8186: real time    1.8271

 eigenvalue-minimisations  :  1260
 total energy-change (2. order) :-0.1343605E-02  (-0.5659839E-04)
 number of electron      16.0000000 magnetization 
 augmentation part        0.3847536 magnetization 

 Broyden mixing:
  rms(total) = 0.23895E-02    rms(broyden)= 0.23895E-02
  rms(prec ) = 0.38402E-02
  weight for this iteration     100.00

 eigenvalues of (default mixing * dielectric matrix)
  average eigenvalue GAMMA=   2.9540
  9.9952  4.5760  2.6640  2.6640  1.9578  1.5690  1.1760  0.9644  1.0200

 Free energy of the ion-electron system (eV)
  ---------------------------------------------------
  alpha Z        PSCENC =        12.54445055
  Ewald energy   TEWEN  =      2753.44633211
  -Hartree energ DENC   =     -3276.69644969
  -exchange      EXHF   =         0.00000000
  -V(xc)+E(xc)   XCENC  =        55.18914289
  PAW double counting   =      1698.55323843    -1701.27637816
  entropy T*S    EENTRO =        -0.00000000
  eigenvalues    EBANDS =      -167.30526056
  atomic energy  EATOM  =       588.61769381
  Solvation  Ediel_sol  =         0.00000000
  ---------------------------------------------------
  free energy    TOTEN  =       -36.92723063 eV

  energy without entropy =      -36.92723063  energy(sigma->0) =      -36.92723063


--------------------------------------------------------------------------------------------------------




--------------------------------------- Iteration      1(  15)  ---------------------------------------


    POTLOK:  cpu time    0.0646: real time    0.0648
    SETDIJ:  cpu time    0.0355: real time    0.0356
     EDDAV:  cpu time    1.6226: real time    1.6279
       DOS:  cpu time    0.0002: real time    0.0001
    CHARGE:  cpu time    0.1779: real time    0.1783
    MIXING:  cpu time    0.0033: real time    0.0033
    --------------------------------------------
      LOOP:  cpu time    1.9041: real time    1.9101

 eigenvalue-minimisations  :  1372
 total energy-change (2. order) :-0.6713784E-03  (-0.9903474E-05)
 number of electron      16.0000000 magnetization 
 augmentation part        0.3847166 magnetization 

 Broyden mixing:
  rms(total) = 0.25171E-02    rms(broyden)= 0.25171E-02
  rms(prec ) = 0.27429E-02
  weight for this iteration     100.00

 eigenvalues of (default mixing * dielectric matrix)
  average eigenvalue GAMMA=   3.6858
 16.6563  6.1374  3.0508  2.5165  2.0229  2.0229  1.4506  1.0209  1.0209  0.9585

 Free energy of the ion-electron system (eV)
  ---------------------------------------------------
  alpha Z        PSCENC =        12.54445055
  Ewald energy   TEWEN  =      2753.44633211
  -Hartree energ DENC   =     -3277.67493516
  -exchange      EXHF   =         0.00000000
  -V(xc)+E(xc)   XCENC  =        55.19362224
  PAW double counting   =      1692.92400619    -1695.64587358
  entropy T*S    EENTRO =        -0.00000000
  eigenvalues    EBANDS =      -166.33319816
  atomic energy  EATOM  =       588.61769381
  Solvation  Ediel_sol  =         0.00000000
  ---------------------------------------------------
  free energy    TOTEN  =       -36.92790200 eV

  energy without entropy =      -36.92790200  energy(sigma->0) =      -36.92790200


--------------------------------------------------------------------------------------------------------




--------------------------------------- Iteration      1(  16)  ---------------------------------------


    POTLOK:  cpu time    0.0653: real time    0.0655
    SETDIJ:  cpu time    0.0356: real time    0.0356
     EDDAV:  cpu time    1.5812: real time    1.5862
       DOS:  cpu time    0.0002: real time    0.0002
    CHARGE:  cpu time    0.1798: real time    0.1803
    MIXING:  cpu time    0.0036: real time    0.0036
    --------------------------------------------
      LOOP:  cpu time    1.8656: real time    1.8713

 eigenvalue-minimisations  :  1320
 total energy-change (2. order) :-0.2715056E-03  (-0.1665071E-05)
 number of electron      16.0000000 magnetization 
 augmentation part        0.3847068 magnetization 

 Broyden mixing:
  rms(total) = 0.50620E-03    rms(broyden)= 0.50620E-03
  rms(prec ) = 0.65702E-03
  weight for this iteration     100.00

 eigenvalues of (default mixing * dielectric matrix)
  average eigenvalue GAMMA=   4.2032
 22.5791  7.0283  3.5525  2.6755  2.4512  1.9816  1.7078  1.2467  0.9931  0.9931
  1.0263

 Free energy of the ion-electron system (eV)
  ---------------------------------------------------
  alpha Z        PSCENC =        12.54445055
  Ewald energy   TEWEN  =      2753.44633211
  -Hartree energ DENC   =     -3277.76488782
  -exchange      EXHF   =         0.00000000
  -V(xc)+E(xc)   XCENC  =        55.19380786
  PAW double counting   =      1695.43331210    -1698.15585401
  entropy T*S    EENTRO =        -0.00000000
  eigenvalues    EBANDS =      -166.24302811
  atomic energy  EATOM  =       588.61769381
  Solvation  Ediel_sol  =         0.00000000
  ---------------------------------------------------
  free energy    TOTEN  =       -36.92817351 eV

  energy without entropy =      -36.92817351  energy(sigma->0) =      -36.92817351


--------------------------------------------------------------------------------------------------------




--------------------------------------- Iteration      1(  17)  ---------------------------------------


    POTLOK:  cpu time    0.0672: real time    0.0723
    SETDIJ:  cpu time    0.0357: real time    0.0358
     EDDAV:  cpu time    1.5912: real time    1.5959
       DOS:  cpu time    0.0002: real time    0.0002
    CHARGE:  cpu time    0.1831: real time    0.1835
    MIXING:  cpu time    0.0036: real time    0.0036
    --------------------------------------------
      LOOP:  cpu time    1.8809: real time    1.8913

 eigenvalue-minimisations  :  1320
 total energy-change (2. order) :-0.1064234E-03  (-0.2416471E-06)
 number of electron      16.0000000 magnetization 
 augmentation part        0.3847031 magnetization 

 Broyden mixing:
  rms(total) = 0.48362E-03    rms(broyden)= 0.48362E-03
  rms(prec ) = 0.50579E-03
  weight for this iteration     100.00

 eigenvalues of (default mixing * dielectric matrix)
  average eigenvalue GAMMA=   4.1658
 23.7948  7.0676  3.7135  3.0348  2.4731  2.2236  1.9908  1.6187  0.9861  0.9861
  1.0503  1.0503

 Free energy of the ion-electron system (eV)
  ---------------------------------------------------
  alpha Z        PSCENC =        12.54445055
  Ewald energy   TEWEN  =      2753.44633211
  -Hartree energ DENC   =     -3277.80556139
  -exchange      EXHF   =         0.00000000
  -V(xc)+E(xc)   XCENC  =        55.19368689
  PAW double counting   =      1696.27267791    -1698.99553299
  entropy T*S    EENTRO =        -0.00000000
  eigenvalues    EBANDS =      -166.20202683
  atomic energy  EATOM  =       588.61769381
  Solvation  Ediel_sol  =         0.00000000
  ---------------------------------------------------
  free energy    TOTEN  =       -36.92827993 eV

  energy without entropy =      -36.92827993  energy(sigma->0) =      -36.92827993


--------------------------------------------------------------------------------------------------------




--------------------------------------- Iteration      1(  18)  ---------------------------------------


    POTLOK:  cpu time    0.0661: real time    0.0663
    SETDIJ:  cpu time    0.0359: real time    0.0360
     EDDAV:  cpu time    1.5699: real time    1.5750
       DOS:  cpu time    0.0002: real time    0.0002
    CHARGE:  cpu time    0.1803: real time    0.1807
    MIXING:  cpu time    0.0037: real time    0.0037
    --------------------------------------------
      LOOP:  cpu time    1.8561: real time    1.8619

 eigenvalue-minimisations  :  1296
 total energy-change (2. order) :-0.2285061E-04  (-0.1235270E-06)
 number of electron      16.0000000 magnetization 
 augmentation part        0.3847044 magnetization 

 Broyden mixing:
  rms(total) = 0.66591E-04    rms(broyden)= 0.66590E-04
  rms(prec ) = 0.72975E-04
  weight for this iteration     100.00

 eigenvalues of (default mixing * dielectric matrix)
  average eigenvalue GAMMA=   4.0833
 24.2197  7.1581  4.2548  3.1009  2.5909  2.5909  1.9965  1.5988  1.5406  1.0417
  0.9757  1.0070  1.0070

 Free energy of the ion-electron system (eV)
  ---------------------------------------------------
  alpha Z        PSCENC =        12.54445055
  Ewald energy   TEWEN  =      2753.44633211
  -Hartree energ DENC   =     -3277.80832737
  -exchange      EXHF   =         0.00000000
  -V(xc)+E(xc)   XCENC  =        55.19335062
  PAW double counting   =      1695.81365335    -1698.53640225
  entropy T*S    EENTRO =        -0.00000000
  eigenvalues    EBANDS =      -166.19905361
  atomic energy  EATOM  =       588.61769381
  Solvation  Ediel_sol  =         0.00000000
  ---------------------------------------------------
  free energy    TOTEN  =       -36.92830278 eV

  energy without entropy =      -36.92830278  energy(sigma->0) =      -36.92830278


--------------------------------------------------------------------------------------------------------




--------------------------------------- Iteration      1(  19)  ---------------------------------------


    POTLOK:  cpu time    0.0669: real time    0.0671
    SETDIJ:  cpu time    0.0350: real time    0.0351
     EDDAV:  cpu time    1.5911: real time    1.5963
       DOS:  cpu time    0.0002: real time    0.0002
    CHARGE:  cpu time    0.1805: real time    0.1809
    MIXING:  cpu time    0.0039: real time    0.0039
    --------------------------------------------
      LOOP:  cpu time    1.8775: real time    1.8834

 eigenvalue-minimisations  :  1336
 total energy-change (2. order) :-0.3046682E-05  (-0.6651521E-08)
 number of electron      16.0000000 magnetization 
 augmentation part        0.3847033 magnetization 

 Broyden mixing:
  rms(total) = 0.11400E-03    rms(broyden)= 0.11400E-03
  rms(prec ) = 0.11464E-03
  weight for this iteration     100.00

 eigenvalues of (default mixing * dielectric matrix)
  average eigenvalue GAMMA=   3.9213
 24.1965  7.1755  4.3111  3.1124  2.7419  2.3066  2.3066  1.9953  1.6500  1.1023
  1.0149  1.0149  0.9995  0.9707

 Free energy of the ion-electron system (eV)
  ---------------------------------------------------
  alpha Z        PSCENC =        12.54445055
  Ewald energy   TEWEN  =      2753.44633211
  -Hartree energ DENC   =     -3277.80559914
  -exchange      EXHF   =         0.00000000
  -V(xc)+E(xc)   XCENC  =        55.19338135
  PAW double counting   =      1695.62633109    -1698.34904760
  entropy T*S    EENTRO =        -0.00000000
  eigenvalues    EBANDS =      -166.20184800
  atomic energy  EATOM  =       588.61769381
  Solvation  Ediel_sol  =         0.00000000
  ---------------------------------------------------
  free energy    TOTEN  =       -36.92830583 eV

  energy without entropy =      -36.92830583  energy(sigma->0) =      -36.92830583


--------------------------------------------------------------------------------------------------------




--------------------------------------- Iteration      1(  20)  ---------------------------------------


    POTLOK:  cpu time    0.0688: real time    0.0690
    SETDIJ:  cpu time    0.0379: real time    0.0380
     EDDAV:  cpu time    1.3068: real time    1.3109
       DOS:  cpu time    0.0002: real time    0.0002
    CHARGE:  cpu time    0.1796: real time    0.1800
    MIXING:  cpu time    0.0040: real time    0.0040
    --------------------------------------------
      LOOP:  cpu time    1.5972: real time    1.6021

 eigenvalue-minimisations  :   944
 total energy-change (2. order) :-0.1162616E-06  (-0.5504667E-09)
 number of electron      16.0000000 magnetization 
 augmentation part        0.3847033 magnetization 

 Broyden mixing:
  rms(total) = 0.49094E-05    rms(broyden)= 0.48951E-05
  rms(prec ) = 0.52803E-05
  weight for this iteration     100.00

 eigenvalues of (default mixing * dielectric matrix)
  average eigenvalue GAMMA=   3.7765
 24.2286  7.1627  4.3997  3.1730  2.7619  2.4918  2.4918  1.9995  1.6219  1.3503
  1.0600  1.0050  1.0050  0.9745  0.9227

 Free energy of the ion-electron system (eV)
  ---------------------------------------------------
  alpha Z        PSCENC =        12.54445055
  Ewald energy   TEWEN  =      2753.44633211
  -Hartree energ DENC   =     -3277.80712989
  -exchange      EXHF   =         0.00000000
  -V(xc)+E(xc)   XCENC  =        55.19339389
  PAW double counting   =      1695.77657186    -1698.49928722
  entropy T*S    EENTRO =        -0.00000000
  eigenvalues    EBANDS =      -166.20033105
  atomic energy  EATOM  =       588.61769381
  Solvation  Ediel_sol  =         0.00000000
  ---------------------------------------------------
  free energy    TOTEN  =       -36.92830595 eV

  energy without entropy =      -36.92830595  energy(sigma->0) =      -36.92830595


--------------------------------------------------------------------------------------------------------




--------------------------------------- Iteration      1(  21)  ---------------------------------------


    POTLOK:  cpu time    0.0690: real time    0.0692
    SETDIJ:  cpu time    0.0379: real time    0.0380
     EDDAV:  cpu time    1.2573: real time    1.2613
       DOS:  cpu time    0.0002: real time    0.0002
    CHARGE:  cpu time    0.1821: real time    0.1825
    MIXING:  cpu time    0.0043: real time    0.0043
    --------------------------------------------
      LOOP:  cpu time    1.5507: real time    1.5555

 eigenvalue-minimisations  :   896
 total energy-change (2. order) :-0.1535636E-07  (-0.9868183E-10)
 number of electron      16.0000000 magnetization 
 augmentation part        0.3847033 magnetization 

 Broyden mixing:
  rms(total) = 0.51011E-05    rms(broyden)= 0.50873E-05
  rms(prec ) = 0.51744E-05
  weight for this iteration     100.00

 eigenvalues of (default mixing * dielectric matrix)
  average eigenvalue GAMMA=   3.6772
 24.2348  7.1614  4.4062  3.2271  2.7487  2.7487  2.2916  2.2916  1.9836  1.6432
  1.0727  0.9802  0.9802  1.0355  1.0146  1.0146

 Free energy of the ion-electron system (eV)
  ---------------------------------------------------
  alpha Z        PSCENC =        12.54445055
  Ewald energy   TEWEN  =      2753.44633211
  -Hartree energ DENC   =     -3277.80690844
  -exchange      EXHF   =         0.00000000
  -V(xc)+E(xc)   XCENC  =        55.19338892
  PAW double counting   =      1695.77083808    -1698.49355699
  entropy T*S    EENTRO =        -0.00000000
  eigenvalues    EBANDS =      -166.20054402
  atomic energy  EATOM  =       588.61769381
  Solvation  Ediel_sol  =         0.00000000
  ---------------------------------------------------
  free energy    TOTEN  =       -36.92830596 eV

  energy without entropy =      -36.92830596  energy(sigma->0) =      -36.92830596


--------------------------------------------------------------------------------------------------------




--------------------------------------- Iteration      1(  22)  ---------------------------------------


    POTLOK:  cpu time    0.0706: real time    0.0708
    SETDIJ:  cpu time    0.0377: real time    0.0378
     EDDAV:  cpu time    1.2675: real time    1.2715
       DOS:  cpu time    0.0002: real time    0.0002
    --------------------------------------------
      LOOP:  cpu time    1.3759: real time    1.3803

 eigenvalue-minimisations  :   912
 total energy-change (2. order) :-0.1538410E-08  (-0.3181225E-10)
 number of electron      16.0000000 magnetization 
 augmentation part        0.3847033 magnetization 

 Free energy of the ion-electron system (eV)
  ---------------------------------------------------
  alpha Z        PSCENC =        12.54445055
  Ewald energy   TEWEN  =      2753.44633211
  -Hartree energ DENC   =     -3277.80666146
  -exchange      EXHF   =         0.00000000
  -V(xc)+E(xc)   XCENC  =        55.19338665
  PAW double counting   =      1695.76507525    -1698.48779449
  entropy T*S    EENTRO =        -0.00000000
  eigenvalues    EBANDS =      -166.20078838
  atomic energy  EATOM  =       588.61769381
  Solvation  Ediel_sol  =         0.00000000
  ---------------------------------------------------
  free energy    TOTEN  =       -36.92830596 eV

  energy without entropy =      -36.92830596  energy(sigma->0) =      -36.92830596


--------------------------------------------------------------------------------------------------------




 average (electrostatic) potential at core
  the test charge radii are     0.6991
  (the norm of the test charge is              1.0000)
       1 -56.6480       2 -56.6480       3 -56.6480       4 -56.6480
 
 
 
 E-fermi :  -1.2783     XC(G=0):  -3.9811     alpha+bet : -3.8262


 k-point     1 :       0.0000    0.0000    0.0000
  band No.  band energies     occupation 
      1     -20.8125      2.00000
      2     -20.7792      2.00000
      3      -9.0710      2.00000
      4      -8.7088      2.00000
      5      -4.2499      2.00000
      6      -4.2498      2.00000
      7      -4.2473      2.00000
      8      -4.2472      2.00000
      9       2.0281      0.00000
     10       2.5127      0.00000
     11       3.2307      0.00000
     12       4.2395      0.00000

 k-point     2 :       0.0476    0.0000    0.0000
  band No.  band energies     occupation 
      1     -20.7585      2.00000
      2     -20.7254      2.00000
      3      -9.0062      2.00000
      4      -8.6449      2.00000
      5      -4.4709      2.00000
      6      -4.4680      2.00000
      7      -4.3667      2.00000
      8      -4.3641      2.00000
      9       2.1003      0.00000
     10       2.5859      0.00000
     11       3.3043      0.00000
     12       4.3102      0.00000

 k-point     3 :       0.0952    0.0000    0.0000
  band No.  band energies     occupation 
      1     -20.5970      2.00000
      2     -20.5643      2.00000
      3      -8.8121      2.00000
      4      -8.4535      2.00000
      5      -5.0912      2.00000
      6      -5.0874      2.00000
      7      -4.6866      2.00000
      8      -4.6838      2.00000
      9       2.3168      0.00000
     10       2.8057      0.00000
     11       3.5253      0.00000
     12       4.5222      0.00000

 k-point     4 :       0.1429    0.0000    0.0000
  band No.  band energies     occupation 
      1     -20.3284      2.00000
      2     -20.2964      2.00000
      3      -8.4905      2.00000
      4      -8.1365      2.00000
      5      -6.0113      2.00000
      6      -6.0061      2.00000
      7      -5.1383      2.00000
      8      -5.1353      2.00000
      9       2.6775      0.00000
     10       3.1716      0.00000
     11       3.8934      0.00000
     12       4.8743      0.00000

 k-point     5 :       0.1905    0.0000    0.0000
  band No.  band energies     occupation 
      1     -19.9538      2.00000
      2     -19.9226      2.00000
      3      -8.0444      2.00000
      4      -7.6972      2.00000
      5      -7.1248      2.00000
      6      -7.1178      2.00000
      7      -5.6472      2.00000
      8      -5.6439      2.00000
      9       3.1821      0.00000
     10       3.6827      0.00000
     11       4.4077      0.00000
     12       5.3619      0.00000

 k-point     6 :       0.2381    0.0000    0.0000
  band No.  band energies     occupation 
      1     -19.4746      2.00000
      2     -19.4446      2.00000
      3      -8.3454      2.00000
      4      -8.3365      2.00000
      5      -7.4790      2.00000
      6      -7.1409      2.00000
      7      -6.1543      2.00000
      8      -6.1508      2.00000
      9       3.8291      0.00000
     10       4.3354      0.00000
     11       5.0635      0.00000
     12       5.9129      0.00000

 k-point     7 :       0.2857    0.0000    0.0000
  band No.  band energies     occupation 
      1     -18.8932      2.00000
      2     -18.8645      2.00000
      3      -9.6104      2.00000
      4      -9.5994      2.00000
      5      -6.8032      2.00000
      6      -6.6188      2.00000
      7      -6.6150      2.00000
      8      -6.4771      2.00000
      9       4.6161      0.00000
     10       4.9408      0.00000
     11       4.9956      0.00000
     12       5.3108      0.00000

 k-point     8 :       0.3333    0.0000    0.0000
  band No.  band energies     occupation 
      1     -18.2130      2.00000
      2     -18.1858      2.00000
      3     -10.8750      2.00000
      4     -10.8620      2.00000
      5      -7.0138      2.00000
      6      -7.0098      2.00000
      7      -6.0332      2.00000
      8      -5.7228      2.00000
      9       3.6033      0.00000
     10       3.8256      0.00000
     11       5.5347      0.00000
     12       6.0943      0.00000

 k-point     9 :       0.3810    0.0000    0.0000
  band No.  band energies     occupation 
      1     -17.4402      2.00000
      2     -17.4146      2.00000
      3     -12.1059      2.00000
      4     -12.0909      2.00000
      5      -7.3220      2.00000
      6      -7.3179      2.00000
      7      -5.2023      2.00000
      8      -4.9125      2.00000
      9       2.3022      0.00000
     10       2.5622      0.00000
     11       6.3131      0.00000
     12       6.4153      0.00000

 k-point    10 :       0.4286    0.0000    0.0000
  band No.  band energies     occupation 
      1     -16.5899      2.00000
      2     -16.5660      2.00000
      3     -13.2702      2.00000
      4     -13.2532      2.00000
      5      -7.5326      2.00000
      6      -7.5285      2.00000
      7      -4.3898      2.00000
      8      -4.1266      2.00000
      9       1.1591      0.00000
     10       1.4568      0.00000
     11       6.2654      0.00000
     12       6.3166      0.00000

 k-point    11 :       0.4762    0.0000    0.0000
  band No.  band energies     occupation 
      1     -15.7444      2.00000
      2     -15.7218      2.00000
      3     -14.2751      2.00000
      4     -14.2567      2.00000
      5      -7.6394      2.00000
      6      -7.6352      2.00000
      7      -3.8036      2.00000
      8      -3.5677      2.00000
      9       0.4028      0.00000
     10       0.7334      0.00000
     11       6.2156      0.00000
     12       6.2634      0.00000

 k-point    12 :       0.0952    0.0476    0.0000
  band No.  band energies     occupation 
      1     -20.6508      2.00000
      2     -20.6180      2.00000
      3      -8.8767      2.00000
      4      -8.5172      2.00000
      5      -4.8761      2.00000
      6      -4.8727      2.00000
      7      -4.6006      2.00000
      8      -4.5978      2.00000
      9       2.2446      0.00000
     10       2.7325      0.00000
     11       3.4517      0.00000
     12       4.4516      0.00000

 k-point    13 :       0.1429    0.0476    0.0000
  band No.  band energies     occupation 
      1     -20.4358      2.00000
      2     -20.4035      2.00000
      3      -8.6189      2.00000
      4      -8.2630      2.00000
      5      -5.6135      2.00000
      6      -5.6090      2.00000
      7      -5.0199      2.00000
      8      -5.0167      2.00000
      9       2.5334      0.00000
     10       3.0254      0.00000
     11       3.7463      0.00000
     12       4.7339      0.00000

 k-point    14 :       0.1905    0.0476    0.0000
  band No.  band energies     occupation 
      1     -20.1142      2.00000
      2     -20.0826      2.00000
      3      -8.2349      2.00000
      4      -7.8847      2.00000
      5      -6.6003      2.00000
      6      -6.5943      2.00000
      7      -5.5310      2.00000
      8      -5.5274      2.00000
      9       2.9662      0.00000
     10       3.4641      0.00000
     11       4.1877      0.00000
     12       5.1551      0.00000

 k-point    15 :       0.2381    0.0476    0.0000
  band No.  band energies     occupation 
      1     -19.6873      2.00000
      2     -19.6567      2.00000
      3      -7.7464      2.00000
      4      -7.7382      2.00000
      5      -7.7285      2.00000
      6      -7.3865      2.00000
      7      -6.0610      2.00000
      8      -6.0571      2.00000
      9       3.5424      0.00000
     10       4.0469      0.00000
     11       4.7743      0.00000
     12       5.7032      0.00000

 k-point    16 :       0.2857    0.0476    0.0000
  band No.  band energies     occupation 
      1     -19.1570      2.00000
      2     -19.1276      2.00000
      3      -8.9750      2.00000
      4      -8.9652      2.00000
      5      -7.1073      2.00000
      6      -6.7756      2.00000
      7      -6.5610      2.00000
      8      -6.5568      2.00000
      9       4.2602      0.00000
     10       4.7629      0.00000
     11       5.4387      0.00000
     12       5.6277      0.00000

 k-point    17 :       0.3333    0.0476    0.0000
  band No.  band energies     occupation 
      1     -18.5261      2.00000
      2     -18.4982      2.00000
      3     -10.2313      2.00000
      4     -10.2194      2.00000
      5      -6.9994      2.00000
      6      -6.9950      2.00000
      7      -6.3823      2.00000
      8      -6.0643      2.00000
      9       4.2406      0.00000
     10       4.4355      0.00000
     11       5.1162      0.00000
     12       5.6728      0.00000

[...]
      7      -6.1697      2.00000
      8      -6.1651      2.00000
      9       3.3992      0.00000
     10       3.9024      0.00000
     11       4.6289      0.00000
     12       5.5754      0.00000

 k-point    24 :       0.2857    0.0952    0.0000
  band No.  band energies     occupation 
      1     -19.3158      2.00000
      2     -19.2861      2.00000
      3      -8.4004      2.00000
      4      -8.3917      2.00000
      5      -7.2912      2.00000
      6      -6.9561      2.00000
      7      -6.7470      2.00000
      8      -6.7419      2.00000
      9       4.0467      0.00000
     10       4.5558      0.00000
     11       5.2857      0.00000
     12       5.9832      0.00000

 k-point    25 :       0.3333    0.0952    0.0000
  band No.  band energies     occupation 
      1     -18.7360      2.00000
      2     -18.7076      2.00000
      3      -9.5892      2.00000
      4      -9.5785      2.00000
      5      -7.2530      2.00000
      6      -7.2475      2.00000
      7      -6.6179      2.00000
      8      -6.2949      2.00000
      9       4.7659      0.00000
     10       4.8354      0.00000
     11       4.9183      0.00000
     12       5.3883      0.00000

 k-point    26 :       0.3810    0.0952    0.0000
  band No.  band energies     occupation 
      1     -18.0580      2.00000
      2     -18.0311      2.00000
      3     -10.8060      2.00000
      4     -10.7933      2.00000
      5      -7.6712      2.00000
      6      -7.6655      2.00000
      7      -5.8502      2.00000
      8      -5.5428      2.00000
      9       3.4811      0.00000
     10       3.6829      0.00000
     11       5.7594      0.00000
     12       6.3073      0.00000

 k-point    27 :       0.4286    0.0952    0.0000
  band No.  band energies     occupation 
      1     -17.2883      2.00000
      2     -17.2631      2.00000
      3     -12.0063      2.00000
      4     -11.9916      2.00000
      5      -7.9921      2.00000
      6      -7.9862      2.00000
      7      -5.0201      2.00000
      8      -4.7329      2.00000
      9       2.2266      0.00000
     10       2.4645      0.00000
     11       6.7977      0.00000
     12       7.2950      0.00000

 k-point    28 :       0.4762    0.0952    0.0000
  band No.  band energies     occupation 
      1     -16.4425      2.00000
      2     -16.4189      2.00000
      3     -13.1506      2.00000
      4     -13.1339      2.00000
      5      -8.2092      2.00000
      6      -8.2032      2.00000
      7      -4.2040      2.00000
      8      -3.9428      2.00000
      9       1.1108      0.00000
     10       1.3859      0.00000
     11       7.1838      0.00000
     12       7.2507      0.00000

 k-point    29 :      -0.4762    0.0952    0.0000
  band No.  band energies     occupation 
      1     -15.6035      2.00000
      2     -15.5813      2.00000
      3     -14.1421      2.00000
      4     -14.1239      2.00000
      5      -8.3188      2.00000
      6      -8.3127      2.00000
      7      -3.6085      2.00000
      8      -3.3740      2.00000
      9       0.3606      0.00000
     10       0.6681      0.00000
     11       7.1403      0.00000
     12       7.1982      0.00000

 k-point    30 :       0.2857    0.1429    0.0000
  band No.  band energies     occupation 
      1     -19.3689      2.00000
      2     -19.3390      2.00000
      3      -8.1154      2.00000
      4      -8.1074      2.00000
      5      -7.3527      2.00000
      6      -7.0165      2.00000
      7      -6.9092      2.00000
      8      -6.9034      2.00000
      9       3.9756      0.00000
     10       4.4853      0.00000
     11       5.2160      0.00000
     12       6.1325      0.00000

 k-point    31 :       0.3333    0.1429    0.0000
  band No.  band energies     occupation 
      1     -18.8413      2.00000
      2     -18.8127      2.00000
      3      -9.0826      2.00000
      4      -9.0731      2.00000
      5      -7.5864      2.00000
      6      -7.5798      2.00000
      7      -6.7365      2.00000
      8      -6.4110      2.00000
      9       4.6936      0.00000
     10       5.0823      0.00000
     11       5.1770      0.00000
     12       5.2609      0.00000

 k-point    32 :       0.3810    0.1429    0.0000
  band No.  band energies     occupation 
      1     -18.2142      2.00000
      2     -18.1870      2.00000
      3     -10.1752      2.00000
      4     -10.1638      2.00000
      5      -8.1295      2.00000
      6      -8.1224      2.00000
      7      -6.0171      2.00000
      8      -5.7054      2.00000
      9       3.8944      0.00000
     10       4.0625      0.00000
     11       5.5505      0.00000
     12       6.0812      0.00000

 k-point    33 :       0.4286    0.1429    0.0000
  band No.  band energies     occupation 
      1     -17.4927      2.00000
      2     -17.4670      2.00000
      3     -11.3217      2.00000
      4     -11.3082      2.00000
      5      -8.5408      2.00000
      6      -8.5333      2.00000
      7      -5.2153      2.00000
      8      -4.9211      2.00000
      9       2.6886      0.00000
     10       2.8875      0.00000
     11       6.5412      0.00000
     12       7.0835      0.00000

 k-point    34 :       0.4762    0.1429    0.0000
  band No.  band energies     occupation 
      1     -16.6866      2.00000
      2     -16.6626      2.00000
      3     -12.4600      2.00000
      4     -12.4446      2.00000
      5      -8.8307      2.00000
      6      -8.8230      2.00000
      7      -4.3766      2.00000
      8      -4.1047      2.00000
      9       1.5380      0.00000
     10       1.7706      0.00000
     11       7.6475      0.00000
     12       8.1888      0.00000

 k-point    35 :      -0.4762    0.1429    0.0000
  band No.  band energies     occupation 
      1     -15.8276      2.00000
      2     -15.8051      2.00000
      3     -13.5284      2.00000
      4     -13.5111      2.00000
      5      -9.0037      2.00000
      6      -8.9959      2.00000
      7      -3.6216      2.00000
      8      -3.3769      2.00000
      9       0.5861      0.00000
     10       0.8534      0.00000
     11       8.1699      0.00000
     12       8.2544      0.00000

 k-point    36 :      -0.4286    0.1429    0.0000
  band No.  band energies     occupation 
      1     -15.2196      2.00000
      2     -15.1980      2.00000
      3     -14.2077      2.00000
      4     -14.1896      2.00000
      5      -9.0613      2.00000
      6      -9.0534      2.00000
      7      -3.2701      2.00000
      8      -3.0426      2.00000
      9       0.1673      0.00000
     10       0.4543      0.00000
     11       8.1512      0.00000
     12       8.2280      0.00000

 k-point    37 :       0.3810    0.1905    0.0000
  band No.  band energies     occupation 
      1     -18.2664      2.00000
      2     -18.2391      2.00000
      3      -9.8454      2.00000
      4      -9.8347      2.00000
      5      -8.4093      2.00000
      6      -8.4012      2.00000
      7      -6.0732      2.00000
      8      -5.7600      2.00000
      9       4.0507      0.00000
     10       4.2037      0.00000
     11       5.4802      0.00000
     12       6.0030      0.00000

 k-point    38 :       0.4286    0.1905    0.0000
  band No.  band energies     occupation 
      1     -17.5955      2.00000
      2     -17.5697      2.00000
      3     -10.7560      2.00000
      4     -10.7437      2.00000
      5      -9.0577      2.00000
      6      -9.0488      2.00000
      7      -5.3151      2.00000
      8      -5.0174      2.00000
      9       2.9647      0.00000
     10       3.1354      0.00000
     11       6.4025      0.00000
     12       6.9298      0.00000

 k-point    39 :       0.4762    0.1905    0.0000
  band No.  band energies     occupation 
      1     -16.8359      2.00000
      2     -16.8116      2.00000
      3     -11.7827      2.00000
      4     -11.7686      2.00000
      5      -9.4978      2.00000
      6      -9.4883      2.00000
      7      -4.4898      2.00000
      8      -4.2113      2.00000
      9       1.8707      0.00000
     10       2.0652      0.00000
     11       7.4526      0.00000
     12       7.9795      0.00000

 k-point    40 :      -0.4762    0.1905    0.0000
  band No.  band energies     occupation 
      1     -16.0042      2.00000
      2     -15.9816      2.00000
      3     -12.8320      2.00000
      4     -12.8160      2.00000
      5      -9.7691      2.00000
      6      -9.7595      2.00000
      7      -3.6623      2.00000
      8      -3.4076      2.00000
      9       0.8513      0.00000
     10       1.0743      0.00000
     11       8.6086      0.00000
     12       9.1197      0.00000

 k-point    41 :      -0.4286    0.1905    0.0000
  band No.  band energies     occupation 
      1     -15.1836      2.00000
      2     -15.1624      2.00000
      3     -13.7716      2.00000
      4     -13.7540      2.00000
      5      -9.8997      2.00000
      6      -9.8899      2.00000
      7      -3.0295      2.00000
      8      -2.7996      2.00000
      9       0.1182      0.00000
     10       0.3691      0.00000
     11       9.3600      0.00000
     12       9.4941      0.00000

 k-point    42 :       0.4762    0.2381    0.0000
  band No.  band energies     occupation 
      1     -16.8860      2.00000
      2     -16.8617      2.00000
      3     -11.4115      2.00000
      4     -11.3981      2.00000
      5      -9.8709      2.00000
      6      -9.8605      2.00000
      7      -4.5290      2.00000
      8      -4.2483      2.00000
      9       1.9984      0.00000
     10       2.1769      0.00000
     11       7.3834      0.00000
     12       7.8992      0.00000

 k-point    43 :      -0.4762    0.2381    0.0000
  band No.  band energies     occupation 
      1     -16.0971      2.00000
      2     -16.0744      2.00000
      3     -12.2265      2.00000
      4     -12.2116      2.00000
      5     -10.4191      2.00000
      6     -10.4079      2.00000
      7      -3.6926      2.00000
      8      -3.4321      2.00000
      9       1.0295      0.00000
     10       1.2225      0.00000
     11       8.4743      0.00000
     12       8.9469      0.00000

 k-point    44 :      -0.4286    0.2381    0.0000
  band No.  band energies     occupation 
      1     -15.2614      2.00000
      2     -15.2402      2.00000
      3     -13.1332      2.00000
      4     -13.1167      2.00000
      5     -10.7044      2.00000
      6     -10.6929      2.00000
      7      -2.8988      2.00000
      8      -2.6615      2.00000
      9       0.1532      0.00000
     10       0.3669      0.00000
     11       9.2638      0.00000
     12       9.6966      0.00000

 k-point    45 :      -0.3810    0.2381    0.0000
  band No.  band energies     occupation 
      1     -14.6676      2.00000
      2     -14.6474      2.00000
      3     -13.7603      2.00000
      4     -13.7428      2.00000
      5     -10.7917      2.00000
      6     -10.7801      2.00000
      7      -2.4873      2.00000
      8      -2.2660      2.00000
      9      -0.2864      0.00000
     10      -0.0575      0.00000
     11       9.2808      0.00000
     12      10.3674      0.00000

 k-point    46 :      -0.4286    0.2857    0.0000
  band No.  band energies     occupation 
      1     -15.2960      2.00000
      2     -15.2749      2.00000
      3     -12.7535      2.00000
      4     -12.7376      2.00000
      5     -11.1348      2.00000
      6     -11.1224      2.00000
      7      -2.8595      2.00000
      8      -2.6184      2.00000
      9       0.1801      0.00000
     10       0.3777      0.00000
     11       9.0911      0.00000
     12       9.6291      0.00000

 k-point    47 :      -0.3810    0.2857    0.0000
  band No.  band energies     occupation 
      1     -14.5037      2.00000
      2     -14.4841      2.00000
      3     -13.4181      2.00000
      4     -13.4009      2.00000
      5     -11.4899      2.00000
      6     -11.4770      2.00000
      7      -2.1121      2.00000
      8      -1.8902      2.00000
      9      -0.5714      0.00000
     10      -0.3625      0.00000
     11       8.9695      0.00000
     12      10.0832      0.00000

 k-point    48 :      -0.3333    0.3333    0.0000
  band No.  band energies     occupation 
      1     -13.8434      2.00000
      2     -13.8434      2.00000
      3     -13.8252      2.00000
      4     -13.8251      2.00000
      5     -11.8319      2.00000
      6     -11.8184      2.00000
      7      -1.3293      2.00000
      8      -1.3293      2.00000
      9      -1.1176      0.00000
     10      -1.1176      0.00000
     11       8.8389      0.00000
     12      10.0230      0.00000


--------------------------------------------------------------------------------------------------------


 soft charge-density along one line, spin component           1
         0         1         2         3         4         5         6         7         8         9
 total charge-density along one line
 
 pseudopotential strength for first ion, spin component:           1
 10.124  13.461   0.000  -0.000   0.000  -0.000  -0.000  -0.000
 13.461  17.898   0.000  -0.000   0.000  -0.000  -0.000  -0.000
  0.000   0.000  -4.266  -0.000  -0.000   8.344   0.000   0.000
 -0.000  -0.000  -0.000  -4.258  -0.000   0.000   8.334   0.000
  0.000   0.000  -0.000  -0.000  -4.266   0.000   0.000   8.344
 -0.000  -0.000   8.344   0.000   0.000 -18.452  -0.000  -0.000
 -0.000  -0.000   0.000   8.334   0.000  -0.000 -18.443  -0.000
 -0.000  -0.000   0.000   0.000   8.344  -0.000  -0.000 -18.452
 total augmentation occupancy for first ion, spin component:           1
  8.117  -3.602   0.000   0.000   0.000   0.000   0.000  -0.000
 -3.602   1.656  -0.000   0.000  -0.000   0.000  -0.000   0.000
  0.000   0.000   1.837   0.000   0.000   0.173   0.000   0.000
  0.000   0.000  -0.000   1.199  -0.000  -0.000   0.073   0.000
  0.000   0.000   0.000   0.000   1.837   0.000  -0.000   0.173
  0.000   0.000   0.173  -0.000   0.000   0.018  -0.000   0.000
  0.000  -0.000   0.000   0.073   0.000  -0.000   0.005   0.000
  0.000   0.000   0.000  -0.000   0.173   0.000   0.000   0.018


------------------------ aborting loop because EDIFF is reached ----------------------------------------


    CHARGE:  cpu time    0.1910: real time    0.1915
    FORLOC:  cpu time    0.0049: real time    0.0049
    FORNL :  cpu time    0.3573: real time    0.3581
    STRESS:  cpu time    1.3277: real time    1.3309
    FORCOR:  cpu time    0.0706: real time    0.0707
    FORHAR:  cpu time    0.0219: real time    0.0221
    MIXING:  cpu time    0.0044: real time    0.0044
    OFIELD:  cpu time    0.0000: real time    0.0000

  FORCE on cell =-STRESS in cart. coord.  units (eV):
  Direction    XX          YY          ZZ          XY          YZ          ZX
  --------------------------------------------------------------------------------------
  Alpha Z    12.54445    12.54445    12.54445
  Ewald    3292.58372  3292.58249 -3831.72026     0.00000    -0.00000     0.00000
  Hartree  3255.25853  3255.25851 -3232.71042     0.00000    -0.00000    -0.00000
  E(xc)     -59.52766   -59.52766   -61.74484    -0.00000     0.00000     0.00000
  Local   -6725.15417 -6725.15356  6852.72767    -0.00000     0.00000     0.00000
  n-local   -14.82451   -13.74964   -13.01087     0.71051     0.00000    -0.00000
  augment    -1.57117    -1.57117    -1.44416     0.00000    -0.00000    -0.00000
  Kinetic   245.07523   236.87368   275.38056    -6.59917    -0.00000     0.00000
  Fock        0.00000     0.00000     0.00000     0.00000     0.00000     0.00000
  -------------------------------------------------------------------------------------
  Total       0.82076     0.82076     0.02214    -0.00000     0.00000     0.00000
  in kB      12.55066    12.55065     0.33849    -0.00000     0.00000     0.00000
  external pressure =        8.48 kB  Pullay stress =        0.00 kB


 VOLUME and BASIS-vectors are now :
 -----------------------------------------------------------------------------
  energy-cutoff  :      800.00
  volume of cell :      104.78
      direct lattice vectors                 reciprocal lattice vectors
     2.130000000 -1.229756000  0.000000000     0.234741784 -0.406584721  0.000000000
     2.130000000  1.229756000  0.000000000     0.234741784  0.406584721  0.000000000
     0.000000000  0.000000000 20.000000000     0.000000000  0.000000000  0.050000000

  length of vectors
     2.459512110  2.459512110 20.000000000     0.469483589  0.469483589  0.050000000


 FORCES acting on ions
    electron-ion (+dipol)            ewald-force                    non-local-force                 convergence-correction
 -----------------------------------------------------------------------------------------------
   -.878E-05 0.219E-11 0.332E+03   -.241E-03 0.656E-14 -.332E+03   -.156E-16 0.519E-17 -.665E-02   0.751E-11 0.436E-15 0.203E-04
   0.262E-03 -.135E-11 0.332E+03   0.241E-03 -.412E-14 -.332E+03   -.236E-16 0.209E-16 -.665E-02   -.127E-10 -.789E-15 0.203E-04
   -.879E-05 -.775E-12 -.332E+03   -.241E-03 0.640E-14 0.332E+03   0.997E-16 0.216E-16 0.665E-02   0.711E-11 0.199E-14 -.203E-04
   0.262E-03 0.137E-11 -.332E+03   0.241E-03 -.428E-14 0.332E+03   -.441E-16 -.438E-16 0.665E-02   -.135E-10 0.210E-15 -.203E-04
 -----------------------------------------------------------------------------------------------
   0.506E-03 0.143E-11 -.130E-03   0.858E-14 0.456E-14 0.000E+00   0.164E-16 0.396E-17 -.173E-17   -.115E-10 0.185E-14 -.370E-09
 
 
 POSITION                                       TOTAL-FORCE (eV/Angst)
 -----------------------------------------------------------------------------------
      0.00000      0.00000      0.00000        -0.000000     -0.000000     -0.008322
      1.42000      0.00000      0.00000         0.000000      0.000000     -0.008322
      0.00000      0.00000      4.00000        -0.000000      0.000000      0.008322
      1.42000      0.00000      4.00000         0.000000     -0.000000      0.008322
 -----------------------------------------------------------------------------------
    total drift:                                0.000506      0.000000     -0.000130


--------------------------------------------------------------------------------------------------------



  FREE ENERGIE OF THE ION-ELECTRON SYSTEM (eV)
  ---------------------------------------------------
  free  energy   TOTEN  =       -36.92830596 eV

  energy  without entropy=      -36.92830596  energy(sigma->0) =      -36.92830596
 


--------------------------------------------------------------------------------------------------------


    POTLOK:  cpu time    0.1084: real time    0.1087


--------------------------------------------------------------------------------------------------------


     LOOP+:  cpu time   42.6698: real time   42.9725
    4ORBIT:  cpu time    0.0000: real time    0.0000

 total amount of memory used by VASP MPI-rank0   107376. kBytes
=======================================================================

   base      :      30000. kBytes
   nonl-proj :      16997. kBytes
   fftplans  :      32720. kBytes
   grid      :      15086. kBytes
   one-center:         12. kBytes
   wavefun   :      12561. kBytes
 
  
  
 General timing and accounting informations for this job:
 ========================================================
  
                  Total CPU time used (sec):       44.664
                            User time (sec):       43.874
                          System time (sec):        0.790
                         Elapsed time (sec):       45.363
  
                   Maximum memory used (kb):      169680.
                   Average memory used (kb):           0.
  
                          Minor page faults:       141574
                          Major page faults:            0
                 Voluntary context switches:         3806
