 vasp.5.4.4.18Apr17-6-g9f103f2a35 (build May 31 2018 21:15:54) complex          
  
 executed on          c7_intel_O1 date 2020.07.23  19:20:03
 running on    4 total cores
 distrk:  each k-point on    4 cores,    1 groups
 distr:  one band on NCORES_PER_BAND=   1 cores,    4 groups


--------------------------------------------------------------------------------------------------------


 INCAR:
 POTCAR:    PAW_PBE C 08Apr2002                   
 POTCAR:    PAW_PBE C 08Apr2002                   
   VRHFIN =C: s2p2                                                              
   LEXCH  = PE                                                                  
   EATOM  =   147.1560 eV,   10.8157 Ry                                         
                                                                                
   TITEL  = PAW_PBE C 08Apr2002                                                 
   LULTRA =        F    use ultrasoft PP ?                                      
   IUNSCR =        1    unscreen: 0-lin 1-nonlin 2-no                           
   RPACOR =    1.200    partial core radius                                     
   POMASS =   12.011; ZVAL   =    4.000    mass and valenz                      
   RCORE  =    1.500    outmost cutoff radius                                   
   RWIGS  =    1.630; RWIGS  =    0.863    wigner-seitz radius (au A)           
   ENMAX  =  400.000; ENMIN  =  300.000 eV                                      
   ICORE  =        2    local potential                                         
   LCOR   =        T    correct aug charges                                     
   LPAW   =        T    paw PP                                                  
   EAUG   =  644.873                                                            
   DEXC   =    0.000                                                            
   RMAX   =    1.529    core radius for proj-oper                               
   RAUG   =    1.300    factor for augmentation sphere                          
   RDEP   =    1.501    radius for radial grids                                 
   RDEPT  =    1.300    core radius for aug-charge                              
                                                                                
   Atomic configuration                                                         
    4 entries                                                                   
     n  l   j            E        occ.                                          
     1  0  0.50      -273.3789   2.0000                                         
     2  0  0.50       -13.7508   2.0000                                         
     2  1  0.50        -5.2854   2.0000                                         
     3  2  1.50        -5.4423   0.0000                                         
   Description                                                                  
     l       E           TYP  RCUT    TYP  RCUT                                 
     0    -13.7508458     23  1.200                                             
     0     -8.2022199     23  1.200                                             
     1     -5.2854383     23  1.500                                             
     1     34.0145650     23  1.500                                             
     2     -5.4423304      7  1.500                                             
  local pseudopotential read in
  partial core-charges read in
  partial kinetic energy density read in
  atomic valenz-charges read in
  non local Contribution for L=           0  read in
    real space projection operators read in
  non local Contribution for L=           0  read in
    real space projection operators read in
  non local Contribution for L=           1  read in
    real space projection operators read in
  non local Contribution for L=           1  read in
    real space projection operators read in
    PAW grid and wavefunctions read in
 
   number of l-projection  operators is LMAX  =           4
   number of lm-projection operators is LMMAX =           8
 
  PAW_PBE C 08Apr2002                   :
 energy of atom  1       EATOM= -147.1560
 kinetic energy error for atom=    0.0016 (will be added to EATOM!!)
 
 
 POSCAR: C2_bilayer                              
  positions in direct lattice
  No initial velocities read in
 exchange correlation table for  LEXCH =        8
   RHO(1)=    0.500       N(1)  =     2000
   RHO(2)=  100.500       N(2)  =     4000
 


--------------------------------------------------------------------------------------------------------


 ion  position               nearest neighbor table
   1  0.000  0.000  0.000-   2 1.42   2 1.42   2 1.42
   2  0.333  0.333  0.000-   1 1.42   1 1.42   1 1.42
   3  0.000  0.000  0.210-   4 1.42   4 1.42   4 1.42
   4  0.333  0.333  0.210-   3 1.42   3 1.42   3 1.42
 
  LATTYP: Found a hexagonal cell.
 ALAT       =     2.4595120000
 C/A-ratio  =     8.1316944174
  
  Lattice vectors:
  
 A1 = (   0.0000000000,  -2.4595120000,   0.0000000000)
 A2 = (  -2.1300000000,   1.2297560000,   0.0000000000)
 A3 = (   0.0000000000,   0.0000000000, -20.0000000000)


Analysis of symmetry for initial positions (statically):
=====================================================================
 Subroutine PRICEL returns:
 Original cell was already a primitive cell.
 

 Routine SETGRP: Setting up the symmetry group for a 
 hexagonal supercell.


 Subroutine GETGRP returns: Found 24 space group operations
 (whereof  6 operations were pure point group operations)
 out of a pool of 24 trial point group operations.


The static configuration has the point symmetry C_3v.
 The point group associated with its full space group is D_6h.


Analysis of symmetry for dynamics (positions and initial velocities):
=====================================================================
 Subroutine PRICEL returns:
 Original cell was already a primitive cell.
 

 Routine SETGRP: Setting up the symmetry group for a 
 hexagonal supercell.


 Subroutine GETGRP returns: Found 24 space group operations
 (whereof  6 operations were pure point group operations)
 out of a pool of 24 trial point group operations.


The dynamic configuration has the point symmetry C_3v.
 The point group associated with its full space group is D_6h.


 Subroutine INISYM returns: Found 24 space group operations
 (whereof  6 operations are pure point group operations),
 and found     1 'primitive' translations

 
 
 KPOINTS: k grid                                  

Automatic generation of k-mesh.
Space group operators:
 irot       det(A)        alpha          n_x          n_y          n_z        tau_x        tau_y        tau_z
    1     1.000000     0.000000     1.000000     0.000000     0.000000     0.000000     0.000000     0.000000
    2     1.000000   120.000000     0.000000     0.000000     1.000000     0.000000     0.000000     0.000000
    3     1.000000   120.000000     0.000000     0.000000    -1.000000     0.000000     0.000000     0.000000
    4    -1.000000   180.000000    -0.000000     1.000000     0.000000     0.000000     0.000000     0.000000
    5    -1.000000   180.000000     0.866025    -0.500000     0.000000     0.000000     0.000000     0.000000
    6    -1.000000   180.000000     0.866025     0.500000     0.000000     0.000000     0.000000     0.000000
    7    -1.000000     0.000000     1.000000     0.000000     0.000000     0.333333    -0.666667    -0.790000
    8     1.000000    60.000000     0.000000     0.000000     1.000000     0.333333    -0.666667     0.000000
    9    -1.000000    60.000000     0.000000     0.000000     1.000000    -0.000001    -0.000000    -0.790000
   10    -1.000000   120.000000     0.000000     0.000000     1.000000     0.333333    -0.666667    -0.790000
   11     1.000000   180.000000     0.000000     0.000000     1.000000     0.333333    -0.666667     0.000000
   12    -1.000000   180.000000     0.000000     0.000000     1.000000     0.000000     0.000000    -0.790000
   13    -1.000000   120.000000     0.000000     0.000000    -1.000000     0.333333    -0.666667    -0.790000
   14     1.000000    60.000000     0.000000     0.000000    -1.000000     0.333333    -0.666667     0.000000
   15    -1.000000    60.000000     0.000000     0.000000    -1.000000    -0.000000    -0.000001    -0.790000
   16     1.000000   180.000000    -0.000000     1.000000     0.000000     0.333333    -0.666667    -0.790000
   17     1.000000   180.000000     0.500000    -0.866025     0.000000    -0.000000    -0.000001    -0.790000
   18    -1.000000   180.000000     0.500000    -0.866025     0.000000     0.333333    -0.666667     0.000000
   19     1.000000   180.000000     0.866025    -0.500000     0.000000     0.333333    -0.666667    -0.790000
   20     1.000000   180.000000     1.000000     0.000000     0.000000     0.000000     0.000000    -0.790000
   21    -1.000000   180.000000     1.000000     0.000000     0.000000     0.333333    -0.666667     0.000000
   22     1.000000   180.000000     0.866025     0.500000     0.000000     0.333333    -0.666667    -0.790000
   23     1.000000   180.000000    -0.500000    -0.866025     0.000000    -0.000001    -0.000000    -0.790000
   24    -1.000000   180.000000    -0.500000    -0.866025     0.000000     0.333333    -0.666667     0.000000
 
 Subroutine IBZKPT returns following result:
 ===========================================
 
 Found     48 irreducible k-points:
 
 Following reciprocal coordinates:
            Coordinates               Weight
  0.000000  0.000000  0.000000      1.000000
  0.047619  0.000000  0.000000      6.000000
  0.095238  0.000000  0.000000      6.000000
  0.142857  0.000000  0.000000      6.000000
  0.190476  0.000000  0.000000      6.000000
  0.238095  0.000000  0.000000      6.000000
  0.285714  0.000000  0.000000      6.000000
  0.333333  0.000000  0.000000      6.000000
  0.380952  0.000000  0.000000      6.000000
  0.428571  0.000000  0.000000      6.000000
  0.476190  0.000000  0.000000      6.000000
  0.095238  0.047619  0.000000      6.000000
  0.142857  0.047619  0.000000     12.000000
  0.190476  0.047619  0.000000     12.000000
  0.238095  0.047619  0.000000     12.000000
  0.285714  0.047619  0.000000     12.000000
  0.333333  0.047619  0.000000     12.000000
  0.380952  0.047619  0.000000     12.000000
  0.428571  0.047619  0.000000     12.000000
  0.476190  0.047619  0.000000     12.000000
 -0.476190  0.047619  0.000000      6.000000
  0.190476  0.095238  0.000000      6.000000
  0.238095  0.095238  0.000000     12.000000
  0.285714  0.095238  0.000000     12.000000
  0.333333  0.095238  0.000000     12.000000
  0.380952  0.095238  0.000000     12.000000
  0.428571  0.095238  0.000000     12.000000
  0.476190  0.095238  0.000000     12.000000
 -0.476190  0.095238  0.000000     12.000000
  0.285714  0.142857  0.000000      6.000000
  0.333333  0.142857  0.000000     12.000000
  0.380952  0.142857  0.000000     12.000000
  0.428571  0.142857  0.000000     12.000000
  0.476190  0.142857  0.000000     12.000000
 -0.476190  0.142857  0.000000     12.000000
 -0.428571  0.142857  0.000000      6.000000
  0.380952  0.190476  0.000000      6.000000
  0.428571  0.190476  0.000000     12.000000
  0.476190  0.190476  0.000000     12.000000
 -0.476190  0.190476  0.000000     12.000000
 -0.428571  0.190476  0.000000     12.000000
  0.476190  0.238095  0.000000      6.000000
 -0.476190  0.238095  0.000000     12.000000
 -0.428571  0.238095  0.000000     12.000000
 -0.380952  0.238095  0.000000      6.000000
 -0.428571  0.285714  0.000000      6.000000
 -0.380952  0.285714  0.000000     12.000000
 -0.333333  0.333333  0.000000      2.000000
 
 Following cartesian coordinates:
            Coordinates               Weight
  0.000000  0.000000  0.000000      1.000000
  0.011178 -0.019361  0.000000      6.000000
  0.022356 -0.038722  0.000000      6.000000
  0.033535 -0.058084  0.000000      6.000000
  0.044713 -0.077445  0.000000      6.000000
  0.055891 -0.096806  0.000000      6.000000
  0.067069 -0.116167  0.000000      6.000000
  0.078247 -0.135528  0.000000      6.000000
  0.089425 -0.154889  0.000000      6.000000
  0.100604 -0.174251  0.000000      6.000000
  0.111782 -0.193612  0.000000      6.000000
  0.033535 -0.019361  0.000000      6.000000
  0.044713 -0.038722  0.000000     12.000000
  0.055891 -0.058084  0.000000     12.000000
  0.067069 -0.077445  0.000000     12.000000
  0.078247 -0.096806  0.000000     12.000000
  0.089425 -0.116167  0.000000     12.000000
  0.100604 -0.135528  0.000000     12.000000
  0.111782 -0.154889  0.000000     12.000000
  0.122960 -0.174251  0.000000     12.000000
 -0.100604  0.212973  0.000000      6.000000
  0.067069 -0.038722  0.000000      6.000000
  0.078247 -0.058084  0.000000     12.000000
  0.089425 -0.077445  0.000000     12.000000
  0.100604 -0.096806  0.000000     12.000000
  0.111782 -0.116167  0.000000     12.000000
  0.122960 -0.135528  0.000000     12.000000
  0.134138 -0.154889  0.000000     12.000000
 -0.089425  0.232334  0.000000     12.000000
  0.100604 -0.058084  0.000000      6.000000
  0.111782 -0.077445  0.000000     12.000000
  0.122960 -0.096806  0.000000     12.000000
  0.134138 -0.116167  0.000000     12.000000
  0.145316 -0.135528  0.000000     12.000000
 -0.078247  0.251695  0.000000     12.000000
 -0.067069  0.232334  0.000000      6.000000
  0.134138 -0.077445  0.000000      6.000000
  0.145316 -0.096806  0.000000     12.000000
  0.156495 -0.116167  0.000000     12.000000
 -0.067069  0.271056  0.000000     12.000000
 -0.055891  0.251695  0.000000     12.000000
  0.167673 -0.096806  0.000000      6.000000
 -0.055891  0.290418  0.000000     12.000000
 -0.044713  0.271056  0.000000     12.000000
 -0.033535  0.251695  0.000000      6.000000
 -0.033535  0.290418  0.000000      6.000000
 -0.022356  0.271056  0.000000     12.000000
  0.000000  0.271056  0.000000      2.000000
 


--------------------------------------------------------------------------------------------------------




 Dimension of arrays:
   k-points           NKPTS =     48   k-points in BZ     NKDIM =     48   number of bands    NBANDS=     12
   number of dos      NEDOS =    301   number of ions     NIONS =      4
   non local maximal  LDIM  =      4   non local SUM 2l+1 LMDIM =      8
   total plane-waves  NPLWV = 110592
   max r-space proj   IRMAX =      1   max aug-charges    IRDMAX=  99836
   dimension x,y,z NGX =    24 NGY =   24 NGZ =  192
   dimension x,y,z NGXF=    48 NGYF=   48 NGZF=  384
   support grid    NGXF=    96 NGYF=   96 NGZF=  768
   ions per type =               4
   NGX,Y,Z   is equivalent  to a cutoff of  16.22, 16.22, 15.96 a.u.
   NGXF,Y,Z  is equivalent  to a cutoff of  32.44, 32.44, 31.92 a.u.

 SYSTEM =  C:graphene                              
 POSCAR =  C2_bilayer                              

 Startparameter for this run:
   NWRITE =      2    write-flag & timer
   PREC   = accura    normal or accurate (medium, high low for compatibility)
   ISTART =      0    job   : 0-new  1-cont  2-samecut
   ICHARG =      2    charge: 1-file 2-atom 10-const
   ISPIN  =      1    spin polarized calculation?
   LNONCOLLINEAR =      F non collinear calculations
   LSORBIT =      F    spin-orbit coupling
   INIWAV =      1    electr: 0-lowe 1-rand  2-diag
   LASPH  =      F    aspherical Exc in radial PAW
   METAGGA=      F    non-selfconsistent MetaGGA calc.

 Electronic Relaxation 1
   ENCUT  =  800.0 eV  58.80 Ry    7.67 a.u.   5.67  5.67 46.12*2*pi/ulx,y,z
   ENINI  =  800.0     initial cutoff
   ENAUG  =  644.9 eV  augmentation charge cutoff
   NELM   =     60;   NELMIN=  5; NELMDL= -5     # of ELM steps 
   EDIFF  = 0.1E-07   stopping-criterion for ELM
   LREAL  =      F    real-space projection
   NLSPLINE    = F    spline interpolate recip. space projectors
   LCOMPAT=      F    compatible to vasp.4.4
   GGA_COMPAT  = T    GGA compatible to vasp.4.4-vasp.4.6
   LMAXPAW     = -100 max onsite density
   LMAXMIX     =    2 max onsite mixed and CHGCAR
   VOSKOWN=      0    Vosko Wilk Nusair interpolation
   ROPT   =    0.00000
 Ionic relaxation
   EDIFFG = 0.1E-06   stopping-criterion for IOM
   NSW    =      1    number of steps for IOM
   NBLOCK =      1;   KBLOCK =      1    inner block; outer block 
   IBRION =     -1    ionic relax: 0-MD 1-quasi-New 2-CG
   NFREE  =      0    steps in history (QN), initial steepest desc. (CG)
   ISIF   =      2    stress and relaxation
   IWAVPR =     10    prediction:  0-non 1-charg 2-wave 3-comb
   ISYM   =      2    0-nonsym 1-usesym 2-fastsym
   LCORR  =      T    Harris-Foulkes like correction to forces

   POTIM  = 0.5000    time-step for ionic-motion
   TEIN   =    0.0    initial temperature
   TEBEG  =    0.0;   TEEND  =   0.0 temperature during run
   SMASS  =  -3.00    Nose mass-parameter (am)
   estimated Nose-frequenzy (Omega)   =  0.10E-29 period in steps =****** mass=  -0.138E-27a.u.
   SCALEE = 1.0000    scale energy and forces
   NPACO  =    256;   APACO  = 16.0  distance and # of slots for P.C.
   PSTRESS=    0.0 pullay stress

  Mass of Ions in am
   POMASS =  12.01
  Ionic Valenz
   ZVAL   =   4.00
  Atomic Wigner-Seitz radii
   RWIGS  =  -1.00
  virtual crystal weights 
   VCA    =   1.00
   NELECT =      16.0000    total number of electrons
   NUPDOWN=      -1.0000    fix difference up-down

 DOS related values:
   EMIN   =  10.00;   EMAX   =-10.00  energy-range for DOS
   EFERMI =   0.00
   ISMEAR =     0;   SIGMA  =   0.01  broadening in eV -4-tet -1-fermi 0-gaus

 Electronic relaxation 2 (details)
   IALGO  =     38    algorithm
   LDIAG  =      T    sub-space diagonalisation (order eigenvalues)
   LSUBROT=      F    optimize rotation matrix (better conditioning)
   TURBO    =      0    0=normal 1=particle mesh
   IRESTART =      0    0=no restart 2=restart with 2 vectors
   NREBOOT  =      0    no. of reboots
   NMIN     =      0    reboot dimension
   EREF     =   0.00    reference energy to select bands
   IMIX   =      4    mixing-type and parameters
     AMIX     =   0.40;   BMIX     =  1.00
     AMIX_MAG =   1.60;   BMIX_MAG =  1.00
     AMIN     =   0.01
     WC   =   100.;   INIMIX=   1;  MIXPRE=   1;  MAXMIX= -45

 Intra band minimization:
   WEIMIN = 0.0000     energy-eigenvalue tresh-hold
   EBREAK =  0.21E-09  absolut break condition
   DEPER  =   0.30     relativ break condition  

   TIME   =   0.40     timestep for ELM

  volume/ion in A,a.u.               =      26.19       176.76
  Fermi-wavevector in a.u.,A,eV,Ry     =   0.875041  1.653589 10.417948  0.765698
  Thomas-Fermi vector in A             =   1.994657
 
 Write flags
   LWAVE        =      F    write WAVECAR
   LDOWNSAMPLE  =      F    k-point downsampling of WAVECAR
   LCHARG       =      T    write CHGCAR
   LVTOT        =      F    write LOCPOT, total local potential
   LVHAR        =      F    write LOCPOT, Hartree potential only
   LELF         =      F    write electronic localiz. function (ELF)
   LORBIT       =      0    0 simple, 1 ext, 2 COOP (PROOUT), +10 PAW based schemes


 Dipole corrections
   LMONO  =      F    monopole corrections only (constant potential shift)
   LDIPOL =      F    correct potential (dipole corrections)
   IDIPOL =      0    1-x, 2-y, 3-z, 4-all directions 
   EPSILON=  1.0000000 bulk dielectric constant

 Exchange correlation treatment:
   GGA     =    --    GGA type
   LEXCH   =     8    internal setting for exchange type
   VOSKOWN=      0    Vosko Wilk Nusair interpolation
   LHFCALC =     F    Hartree Fock is set to
   LHFONE  =     F    Hartree Fock one center treatment
   AEXX    =    0.0000 exact exchange contribution

 Linear response parameters
   LEPSILON=     F    determine dielectric tensor
   LRPA    =     F    only Hartree local field effects (RPA)
   LNABLA  =     F    use nabla operator in PAW spheres
   LVEL    =     F    velocity operator in full k-point grid
   LINTERFAST=   F  fast interpolation
   KINTER  =     0    interpolate to denser k-point grid
   CSHIFT  =0.1000    complex shift for real part using Kramers Kronig
   OMEGAMAX=  -1.0    maximum frequency
   DEG_THRESHOLD= 0.2000000E-02 threshold for treating states as degnerate
   RTIME   =   -0.100 relaxation time in fs
  (WPLASMAI=    0.000 imaginary part of plasma frequency in eV, 0.658/RTIME)
   DFIELD  = 0.0000000 0.0000000 0.0000000 field for delta impulse in time
 
 Orbital magnetization related:
   ORBITALMAG=     F  switch on orbital magnetization
   LCHIMAG   =     F  perturbation theory with respect to B field
   DQ        =  0.001000  dq finite difference perturbation B field
   LLRAUG    =     F  two centre corrections for induced B field



--------------------------------------------------------------------------------------------------------


 Static calculation
 charge density and potential will be updated during run
 non-spin polarized calculation
 Variant of blocked Davidson
 Davidson routine will perform the subspace rotation
 perform sub-space diagonalisation
    after iterative eigenvector-optimisation
 modified Broyden-mixing scheme, WC =      100.0
 initial mixing is a Kerker type mixing with AMIX =  0.4000 and BMIX =      1.0000
 Hartree-type preconditioning will be used
 using additional bands            4
 reciprocal scheme for non local part
 use partial core corrections
 calculate Harris-corrections to forces 
   (improved forces if not selfconsistent)
 use gradient corrections 
 use of overlap-Matrix (Vanderbilt PP)
 Gauss-broadening in eV      SIGMA  =   0.01


--------------------------------------------------------------------------------------------------------


  energy-cutoff  :      800.00
  volume of cell :      104.78
      direct lattice vectors                 reciprocal lattice vectors
     2.130000000 -1.229756000  0.000000000     0.234741784 -0.406584721  0.000000000
     2.130000000  1.229756000  0.000000000     0.234741784  0.406584721  0.000000000
     0.000000000  0.000000000 20.000000000     0.000000000  0.000000000  0.050000000

  length of vectors
     2.459512110  2.459512110 20.000000000     0.469483589  0.469483589  0.050000000


 
 k-points in units of 2pi/SCALE and weight: k grid                                  
   0.00000000  0.00000000  0.00000000       0.002
   0.01117818 -0.01936118  0.00000000       0.014
   0.02235636 -0.03872235  0.00000000       0.014
   0.03353454 -0.05808353  0.00000000       0.014
   0.04471272 -0.07744471  0.00000000       0.014
   0.05589090 -0.09680589  0.00000000       0.014
   0.06706908 -0.11616706  0.00000000       0.014
   0.07824726 -0.13552824  0.00000000       0.014
   0.08942544 -0.15488942  0.00000000       0.014
   0.10060362 -0.17425059  0.00000000       0.014
   0.11178180 -0.19361177  0.00000000       0.014
   0.03353454 -0.01936118  0.00000000       0.014
   0.04471272 -0.03872235  0.00000000       0.027
   0.05589090 -0.05808353  0.00000000       0.027
   0.06706908 -0.07744471  0.00000000       0.027
   0.07824726 -0.09680589  0.00000000       0.027
   0.08942544 -0.11616706  0.00000000       0.027
   0.10060362 -0.13552824  0.00000000       0.027
   0.11178180 -0.15488942  0.00000000       0.027
   0.12295998 -0.17425059  0.00000000       0.027
  -0.10060362  0.21297295  0.00000000       0.014
   0.06706908 -0.03872235  0.00000000       0.014
   0.07824726 -0.05808353  0.00000000       0.027
   0.08942544 -0.07744471  0.00000000       0.027
   0.10060362 -0.09680589  0.00000000       0.027
   0.11178180 -0.11616706  0.00000000       0.027
   0.12295998 -0.13552824  0.00000000       0.027
   0.13413816 -0.15488942  0.00000000       0.027
  -0.08942544  0.23233413  0.00000000       0.027
   0.10060362 -0.05808353  0.00000000       0.014
   0.11178180 -0.07744471  0.00000000       0.027
   0.12295998 -0.09680589  0.00000000       0.027
   0.13413816 -0.11616706  0.00000000       0.027
   0.14531634 -0.13552824  0.00000000       0.027
  -0.07824726  0.25169530  0.00000000       0.027
  -0.06706908  0.23233413  0.00000000       0.014
   0.13413816 -0.07744471  0.00000000       0.014
   0.14531634 -0.09680589  0.00000000       0.027
   0.15649452 -0.11616706  0.00000000       0.027
  -0.06706908  0.27105648  0.00000000       0.027
  -0.05589090  0.25169530  0.00000000       0.027
   0.16767270 -0.09680589  0.00000000       0.014
  -0.05589090  0.29041766  0.00000000       0.027
  -0.04471272  0.27105648  0.00000000       0.027
  -0.03353454  0.25169530  0.00000000       0.014
  -0.03353454  0.29041766  0.00000000       0.014
  -0.02235636  0.27105648  0.00000000       0.027
   0.00000000  0.27105648  0.00000000       0.005
 
 k-points in reciprocal lattice and weights: k grid                                  
   0.00000000  0.00000000  0.00000000       0.002
   0.04761905  0.00000000  0.00000000       0.014
   0.09523810  0.00000000  0.00000000       0.014
   0.14285714  0.00000000  0.00000000       0.014
   0.19047619  0.00000000  0.00000000       0.014
   0.23809524  0.00000000  0.00000000       0.014
   0.28571429  0.00000000  0.00000000       0.014
   0.33333333  0.00000000  0.00000000       0.014
   0.38095238  0.00000000  0.00000000       0.014
   0.42857143  0.00000000  0.00000000       0.014
   0.47619048  0.00000000  0.00000000       0.014
   0.09523810  0.04761905  0.00000000       0.014
   0.14285714  0.04761905  0.00000000       0.027
   0.19047619  0.04761905  0.00000000       0.027
   0.23809524  0.04761905  0.00000000       0.027
   0.28571429  0.04761905  0.00000000       0.027
   0.33333333  0.04761905  0.00000000       0.027
   0.38095238  0.04761905  0.00000000       0.027
   0.42857143  0.04761905  0.00000000       0.027
   0.47619048  0.04761905  0.00000000       0.027
  -0.47619048  0.04761905  0.00000000       0.014
   0.19047619  0.09523810  0.00000000       0.014
   0.23809524  0.09523810  0.00000000       0.027
   0.28571429  0.09523810  0.00000000       0.027
   0.33333333  0.09523810  0.00000000       0.027
   0.38095238  0.09523810  0.00000000       0.027
   0.42857143  0.09523810  0.00000000       0.027
   0.47619048  0.09523810  0.00000000       0.027
  -0.47619048  0.09523810  0.00000000       0.027
   0.28571429  0.14285714  0.00000000       0.014
   0.33333333  0.14285714  0.00000000       0.027
   0.38095238  0.14285714  0.00000000       0.027
   0.42857143  0.14285714  0.00000000       0.027
   0.47619048  0.14285714  0.00000000       0.027
  -0.47619048  0.14285714  0.00000000       0.027
  -0.42857143  0.14285714  0.00000000       0.014
   0.38095238  0.19047619  0.00000000       0.014
   0.42857143  0.19047619  0.00000000       0.027
   0.47619048  0.19047619  0.00000000       0.027
  -0.47619048  0.19047619  0.00000000       0.027
  -0.42857143  0.19047619  0.00000000       0.027
   0.47619048  0.23809524  0.00000000       0.014
  -0.47619048  0.23809524  0.00000000       0.027
  -0.42857143  0.23809524  0.00000000       0.027
  -0.38095238  0.23809524  0.00000000       0.014
  -0.42857143  0.28571429  0.00000000       0.014
  -0.38095238  0.28571429  0.00000000       0.027
  -0.33333333  0.33333333  0.00000000       0.005
 
 position of ions in fractional coordinates (direct lattice) 
   0.00000000  0.00000000  0.00000000
   0.33333300  0.33333300  0.00000000
   0.00000000  0.00000000  0.21000000
   0.33333300  0.33333300  0.21000000
 
 position of ions in cartesian coordinates  (Angst):
   0.00000000  0.00000000  0.00000000
   1.41999858  0.00000000  0.00000000
   0.00000000  0.00000000  4.20000000
   1.41999858  0.00000000  4.20000000
 


--------------------------------------------------------------------------------------------------------


 k-point  1 :   0.0000 0.0000 0.0000  plane waves:    5409
 k-point  2 :   0.0476 0.0000 0.0000  plane waves:    5413
 k-point  3 :   0.0952 0.0000 0.0000  plane waves:    5402
 k-point  4 :   0.1429 0.0000 0.0000  plane waves:    5398
 k-point  5 :   0.1905 0.0000 0.0000  plane waves:    5404
 k-point  6 :   0.2381 0.0000 0.0000  plane waves:    5408
 k-point  7 :   0.2857 0.0000 0.0000  plane waves:    5404
 k-point  8 :   0.3333 0.0000 0.0000  plane waves:    5394
 k-point  9 :   0.3810 0.0000 0.0000  plane waves:    5382
 k-point 10 :   0.4286 0.0000 0.0000  plane waves:    5396
 k-point 11 :   0.4762 0.0000 0.0000  plane waves:    5380
 k-point 12 :   0.0952 0.0476 0.0000  plane waves:    5411
 k-point 13 :   0.1429 0.0476 0.0000  plane waves:    5415
 k-point 14 :   0.1905 0.0476 0.0000  plane waves:    5413
 k-point 15 :   0.2381 0.0476 0.0000  plane waves:    5399
 k-point 16 :   0.2857 0.0476 0.0000  plane waves:    5396
 k-point 17 :   0.3333 0.0476 0.0000  plane waves:    5389
 k-point 18 :   0.3810 0.0476 0.0000  plane waves:    5378
 k-point 19 :   0.4286 0.0476 0.0000  plane waves:    5381
 k-point 20 :   0.4762 0.0476 0.0000  plane waves:    5391
 k-point 21 :  -0.4762 0.0476 0.0000  plane waves:    5394
 k-point 22 :   0.1905 0.0952 0.0000  plane waves:    5403
 k-point 23 :   0.2381 0.0952 0.0000  plane waves:    5409
 k-point 24 :   0.2857 0.0952 0.0000  plane waves:    5419
 k-point 25 :   0.3333 0.0952 0.0000  plane waves:    5384
 k-point 26 :   0.3810 0.0952 0.0000  plane waves:    5369
 k-point 27 :   0.4286 0.0952 0.0000  plane waves:    5364
 k-point 28 :   0.4762 0.0952 0.0000  plane waves:    5382
 k-point 29 :  -0.4762 0.0952 0.0000  plane waves:    5404
 k-point 30 :   0.2857 0.1429 0.0000  plane waves:    5405
 k-point 31 :   0.3333 0.1429 0.0000  plane waves:    5404
 k-point 32 :   0.3810 0.1429 0.0000  plane waves:    5382
 k-point 33 :   0.4286 0.1429 0.0000  plane waves:    5347
 k-point 34 :   0.4762 0.1429 0.0000  plane waves:    5367
 k-point 35 :  -0.4762 0.1429 0.0000  plane waves:    5376
 k-point 36 :  -0.4286 0.1429 0.0000  plane waves:    5400
 k-point 37 :   0.3810 0.1905 0.0000  plane waves:    5390
 k-point 38 :   0.4286 0.1905 0.0000  plane waves:    5358
 k-point 39 :   0.4762 0.1905 0.0000  plane waves:    5365
 k-point 40 :  -0.4762 0.1905 0.0000  plane waves:    5363
 k-point 41 :  -0.4286 0.1905 0.0000  plane waves:    5377
 k-point 42 :   0.4762 0.2381 0.0000  plane waves:    5364
 k-point 43 :  -0.4762 0.2381 0.0000  plane waves:    5368
 k-point 44 :  -0.4286 0.2381 0.0000  plane waves:    5360
 k-point 45 :  -0.3810 0.2381 0.0000  plane waves:    5366
 k-point 46 :  -0.4286 0.2857 0.0000  plane waves:    5362
 k-point 47 :  -0.3810 0.2857 0.0000  plane waves:    5326
 k-point 48 :  -0.3333 0.3333 0.0000  plane waves:    5334

 maximum and minimum number of plane-waves per node :      5419     5326

 maximum number of plane-waves:      5419
 maximum index in each direction: 
   IXMAX=    6   IYMAX=    5   IZMAX=   46
   IXMIN=   -6   IYMIN=   -5   IZMIN=  -46


 serial   3D FFT for wavefunctions
 parallel 3D FFT for charge:
    minimum data exchange during FFTs selected (reduces bandwidth)


 total amount of memory used by VASP MPI-rank0   107376. kBytes
=======================================================================

   base      :      30000. kBytes
   nonl-proj :      16997. kBytes
   fftplans  :      32720. kBytes
   grid      :      15086. kBytes
   one-center:         12. kBytes
   wavefun   :      12561. kBytes
 
     INWAV:  cpu time    0.0000: real time    0.0001
 Broyden mixing: mesh for mixing (old mesh)
   NGX = 11   NGY = 11   NGZ = 93
  (NGX  = 48   NGY  = 48   NGZ  =384)
  gives a total of  11253 points

 initial charge density was supplied:
 charge density of overlapping atoms calculated
 number of electron      16.0000000 magnetization 
 keeping initial charge density in first step


--------------------------------------------------------------------------------------------------------


 Maximum index for augmentation-charges        24186 (set IRDMAX)


--------------------------------------------------------------------------------------------------------


 First call to EWALD:  gamma=   0.376
 Maximum number of real-space cells 5x 5x 1
 Maximum number of reciprocal cells 2x 2x10

    FEWALD:  cpu time    0.0011: real time    0.0011


--------------------------------------- Iteration      1(   1)  ---------------------------------------


    POTLOK:  cpu time    0.0855: real time    0.1025
    SETDIJ:  cpu time    0.0405: real time    0.0406
     EDDAV:  cpu time    1.4444: real time    1.4490
       DOS:  cpu time    0.0003: real time    0.0003
    --------------------------------------------
      LOOP:  cpu time    1.5706: real time    1.5924

 eigenvalue-minimisations  :  1152
 total energy-change (2. order) : 0.1261299E+03  (-0.8016629E+03)
 number of electron      16.0000000 magnetization 
 augmentation part       16.0000000 magnetization 

 Free energy of the ion-electron system (eV)
  ---------------------------------------------------
  alpha Z        PSCENC =        12.54445055
  Ewald energy   TEWEN  =      2623.01688741
  -Hartree energ DENC   =     -3084.74724792
  -exchange      EXHF   =         0.00000000
  -V(xc)+E(xc)   XCENC  =        52.81704329
  PAW double counting   =       434.08818552     -436.36580876
  entropy T*S    EENTRO =        -0.00000000
  eigenvalues    EBANDS =       -63.84129595
  atomic energy  EATOM  =       588.61769381
  Solvation  Ediel_sol  =         0.00000000
  ---------------------------------------------------
  free energy    TOTEN  =       126.12990796 eV

  energy without entropy =      126.12990796  energy(sigma->0) =      126.12990796


--------------------------------------------------------------------------------------------------------




--------------------------------------- Iteration      1(   2)  ---------------------------------------


     EDDAV:  cpu time    2.0380: real time    2.0465
       DOS:  cpu time    0.0004: real time    0.0004
    --------------------------------------------
      LOOP:  cpu time    2.0383: real time    2.0469

 eigenvalue-minimisations  :  1880
 total energy-change (2. order) :-0.1515343E+03  (-0.1378036E+03)
 number of electron      16.0000000 magnetization 
 augmentation part       16.0000000 magnetization 

 Free energy of the ion-electron system (eV)
  ---------------------------------------------------
  alpha Z        PSCENC =        12.54445055
  Ewald energy   TEWEN  =      2623.01688741
  -Hartree energ DENC   =     -3084.74724792
  -exchange      EXHF   =         0.00000000
  -V(xc)+E(xc)   XCENC  =        52.81704329
  PAW double counting   =       434.08818552     -436.36580876
  entropy T*S    EENTRO =        -0.00013992
  eigenvalues    EBANDS =      -215.37545079
  atomic energy  EATOM  =       588.61769381
  Solvation  Ediel_sol  =         0.00000000
  ---------------------------------------------------
  free energy    TOTEN  =       -25.40438680 eV

  energy without entropy =      -25.40424688  energy(sigma->0) =      -25.40431684


--------------------------------------------------------------------------------------------------------




--------------------------------------- Iteration      1(   3)  ---------------------------------------


     EDDAV:  cpu time    1.6423: real time    1.6475
       DOS:  cpu time    0.0003: real time    0.0003
    --------------------------------------------
      LOOP:  cpu time    1.6426: real time    1.6478

 eigenvalue-minimisations  :  1416
 total energy-change (2. order) :-0.1380025E+02  (-0.1356625E+02)
 number of electron      16.0000000 magnetization 
 augmentation part       16.0000000 magnetization 

 Free energy of the ion-electron system (eV)
  ---------------------------------------------------
  alpha Z        PSCENC =        12.54445055
  Ewald energy   TEWEN  =      2623.01688741
  -Hartree energ DENC   =     -3084.74724792
  -exchange      EXHF   =         0.00000000
  -V(xc)+E(xc)   XCENC  =        52.81704329
  PAW double counting   =       434.08818552     -436.36580876
  entropy T*S    EENTRO =        -0.00000001
  eigenvalues    EBANDS =      -229.17583925
  atomic energy  EATOM  =       588.61769381
  Solvation  Ediel_sol  =         0.00000000
  ---------------------------------------------------
  free energy    TOTEN  =       -39.20463536 eV

  energy without entropy =      -39.20463534  energy(sigma->0) =      -39.20463535


--------------------------------------------------------------------------------------------------------




--------------------------------------- Iteration      1(   4)  ---------------------------------------


     EDDAV:  cpu time    1.7306: real time    1.7360
       DOS:  cpu time    0.0002: real time    0.0002
    --------------------------------------------
      LOOP:  cpu time    1.7307: real time    1.7362

 eigenvalue-minimisations  :  1500
 total energy-change (2. order) :-0.2995816E+00  (-0.2986543E+00)
 number of electron      16.0000000 magnetization 
 augmentation part       16.0000000 magnetization 

 Free energy of the ion-electron system (eV)
  ---------------------------------------------------
  alpha Z        PSCENC =        12.54445055
  Ewald energy   TEWEN  =      2623.01688741
  -Hartree energ DENC   =     -3084.74724792
  -exchange      EXHF   =         0.00000000
  -V(xc)+E(xc)   XCENC  =        52.81704329
  PAW double counting   =       434.08818552     -436.36580876
  entropy T*S    EENTRO =        -0.00000000
  eigenvalues    EBANDS =      -229.47542084
  atomic energy  EATOM  =       588.61769381
  Solvation  Ediel_sol  =         0.00000000
  ---------------------------------------------------
  free energy    TOTEN  =       -39.50421693 eV

  energy without entropy =      -39.50421693  energy(sigma->0) =      -39.50421693


--------------------------------------------------------------------------------------------------------




--------------------------------------- Iteration      1(   5)  ---------------------------------------


     EDDAV:  cpu time    1.7028: real time    1.7084
       DOS:  cpu time    0.0002: real time    0.0002
    CHARGE:  cpu time    0.1858: real time    0.1863
    MIXING:  cpu time    0.0025: real time    0.0025
    --------------------------------------------
      LOOP:  cpu time    1.8913: real time    1.8973

 eigenvalue-minimisations  :  1480
 total energy-change (2. order) :-0.8251460E-02  (-0.8237594E-02)
 number of electron      16.0000000 magnetization 
 augmentation part        0.4281669 magnetization 

 Broyden mixing:
  rms(total) = 0.90186E+00    rms(broyden)= 0.90185E+00
  rms(prec ) = 0.96424E+00
  weight for this iteration     100.00

 Free energy of the ion-electron system (eV)
  ---------------------------------------------------
  alpha Z        PSCENC =        12.54445055
  Ewald energy   TEWEN  =      2623.01688741
  -Hartree energ DENC   =     -3084.74724792
  -exchange      EXHF   =         0.00000000
  -V(xc)+E(xc)   XCENC  =        52.81704329
  PAW double counting   =       434.08818552     -436.36580876
  entropy T*S    EENTRO =        -0.00000000
  eigenvalues    EBANDS =      -229.48367230
  atomic energy  EATOM  =       588.61769381
  Solvation  Ediel_sol  =         0.00000000
  ---------------------------------------------------
  free energy    TOTEN  =       -39.51246839 eV

  energy without entropy =      -39.51246839  energy(sigma->0) =      -39.51246839


--------------------------------------------------------------------------------------------------------




--------------------------------------- Iteration      1(   6)  ---------------------------------------


    POTLOK:  cpu time    0.0735: real time    0.0738
    SETDIJ:  cpu time    0.0364: real time    0.0365
     EDDAV:  cpu time    1.6278: real time    1.6332
       DOS:  cpu time    0.0002: real time    0.0002
    CHARGE:  cpu time    0.1845: real time    0.1850
    MIXING:  cpu time    0.0027: real time    0.0027
    --------------------------------------------
      LOOP:  cpu time    1.9251: real time    1.9313

 eigenvalue-minimisations  :  1380
 total energy-change (2. order) : 0.1881338E+01  (-0.1746125E+00)
 number of electron      16.0000000 magnetization 
 augmentation part        0.4092256 magnetization 

 Broyden mixing:
  rms(total) = 0.52928E+00    rms(broyden)= 0.52928E+00
  rms(prec ) = 0.55987E+00
  weight for this iteration     100.00

 eigenvalues of (default mixing * dielectric matrix)
  average eigenvalue GAMMA=   2.2036
  2.2036

 Free energy of the ion-electron system (eV)
  ---------------------------------------------------
  alpha Z        PSCENC =        12.54445055
  Ewald energy   TEWEN  =      2623.01688741
  -Hartree energ DENC   =     -3105.06374192
  -exchange      EXHF   =         0.00000000
  -V(xc)+E(xc)   XCENC  =        53.81000500
  PAW double counting   =       803.36311762     -805.93972919
  entropy T*S    EENTRO =        -0.00000000
  eigenvalues    EBANDS =      -207.97981404
  atomic energy  EATOM  =       588.61769381
  Solvation  Ediel_sol  =         0.00000000
  ---------------------------------------------------
  free energy    TOTEN  =       -37.63113076 eV

  energy without entropy =      -37.63113076  energy(sigma->0) =      -37.63113076


--------------------------------------------------------------------------------------------------------




--------------------------------------- Iteration      1(   7)  ---------------------------------------


    POTLOK:  cpu time    0.0727: real time    0.0730
    SETDIJ:  cpu time    0.0359: real time    0.0360
     EDDAV:  cpu time    1.6606: real time    1.6657
       DOS:  cpu time    0.0002: real time    0.0002
    CHARGE:  cpu time    0.1778: real time    0.1782
    MIXING:  cpu time    0.0027: real time    0.0027
    --------------------------------------------
      LOOP:  cpu time    1.9498: real time    1.9557

 eigenvalue-minimisations  :  1420
 total energy-change (2. order) : 0.6884834E+00  (-0.2306249E+00)
 number of electron      16.0000000 magnetization 
 augmentation part        0.3869649 magnetization 

 Broyden mixing:
  rms(total) = 0.13764E+00    rms(broyden)= 0.13764E+00
  rms(prec ) = 0.14276E+00
  weight for this iteration     100.00

 eigenvalues of (default mixing * dielectric matrix)
  average eigenvalue GAMMA=   2.2738
  2.1699  2.3776

 Free energy of the ion-electron system (eV)
  ---------------------------------------------------
  alpha Z        PSCENC =        12.54445055
  Ewald energy   TEWEN  =      2623.01688741
  -Hartree energ DENC   =     -3131.33437758
  -exchange      EXHF   =         0.00000000
  -V(xc)+E(xc)   XCENC  =        55.10946960
  PAW double counting   =      1521.11558872    -1523.95640149
  entropy T*S    EENTRO =        -0.00000000
  eigenvalues    EBANDS =      -182.05595840
  atomic energy  EATOM  =       588.61769381
  Solvation  Ediel_sol  =         0.00000000
  ---------------------------------------------------
  free energy    TOTEN  =       -36.94264738 eV

  energy without entropy =      -36.94264738  energy(sigma->0) =      -36.94264738


--------------------------------------------------------------------------------------------------------




--------------------------------------- Iteration      1(   8)  ---------------------------------------


    POTLOK:  cpu time    0.0714: real time    0.0716
    SETDIJ:  cpu time    0.0358: real time    0.0359
     EDDAV:  cpu time    1.6488: real time    1.6537
       DOS:  cpu time    0.0001: real time    0.0001
    CHARGE:  cpu time    0.1811: real time    0.1815
    MIXING:  cpu time    0.0028: real time    0.0028
    --------------------------------------------
      LOOP:  cpu time    1.9400: real time    1.9456

 eigenvalue-minimisations  :  1404
 total energy-change (2. order) : 0.1017993E-02  (-0.7721583E-02)
 number of electron      16.0000000 magnetization 
 augmentation part        0.3859361 magnetization 

 Broyden mixing:
  rms(total) = 0.12682E-01    rms(broyden)= 0.12682E-01
  rms(prec ) = 0.27265E-01
  weight for this iteration     100.00

 eigenvalues of (default mixing * dielectric matrix)
  average eigenvalue GAMMA=   1.7884
  0.9115  2.2995  2.1542

 Free energy of the ion-electron system (eV)
  ---------------------------------------------------
  alpha Z        PSCENC =        12.54445055
  Ewald energy   TEWEN  =      2623.01688741
  -Hartree energ DENC   =     -3133.08230119
  -exchange      EXHF   =         0.00000000
  -V(xc)+E(xc)   XCENC  =        55.09454320
  PAW double counting   =      1708.81565601    -1711.54125750
  entropy T*S    EENTRO =        -0.00000000
  eigenvalues    EBANDS =      -180.40730166
  atomic energy  EATOM  =       588.61769381
  Solvation  Ediel_sol  =         0.00000000
  ---------------------------------------------------
  free energy    TOTEN  =       -36.94162938 eV

  energy without entropy =      -36.94162938  energy(sigma->0) =      -36.94162938


--------------------------------------------------------------------------------------------------------




--------------------------------------- Iteration      1(   9)  ---------------------------------------


    POTLOK:  cpu time    0.0722: real time    0.0724
    SETDIJ:  cpu time    0.0380: real time    0.0381
     EDDAV:  cpu time    1.7016: real time    1.7069
       DOS:  cpu time    0.0002: real time    0.0002
    CHARGE:  cpu time    0.1761: real time    0.1766
    MIXING:  cpu time    0.0028: real time    0.0028
    --------------------------------------------
      LOOP:  cpu time    1.9908: real time    1.9970

 eigenvalue-minimisations  :  1480
 total energy-change (2. order) : 0.1635062E-02  (-0.2382335E-03)
 number of electron      16.0000000 magnetization 
 augmentation part        0.3855154 magnetization 

 Broyden mixing:
  rms(total) = 0.91298E-02    rms(broyden)= 0.91297E-02
  rms(prec ) = 0.24283E-01
  weight for this iteration     100.00

 eigenvalues of (default mixing * dielectric matrix)
  average eigenvalue GAMMA=   2.1246
  1.0240  1.9566  2.7589  2.7589

 Free energy of the ion-electron system (eV)
  ---------------------------------------------------
  alpha Z        PSCENC =        12.54445055
  Ewald energy   TEWEN  =      2623.01688741
  -Hartree energ DENC   =     -3134.11632441
  -exchange      EXHF   =         0.00000000
  -V(xc)+E(xc)   XCENC  =        55.11765740
  PAW double counting   =      1703.38977243    -1706.11932672
  entropy T*S    EENTRO =        -0.00000000
  eigenvalues    EBANDS =      -179.39080478
  atomic energy  EATOM  =       588.61769381
  Solvation  Ediel_sol  =         0.00000000
  ---------------------------------------------------
  free energy    TOTEN  =       -36.93999432 eV

  energy without entropy =      -36.93999432  energy(sigma->0) =      -36.93999432


--------------------------------------------------------------------------------------------------------




--------------------------------------- Iteration      1(  10)  ---------------------------------------


    POTLOK:  cpu time    0.0714: real time    0.0717
    SETDIJ:  cpu time    0.0356: real time    0.0357
     EDDAV:  cpu time    1.6069: real time    1.6122
       DOS:  cpu time    0.0002: real time    0.0002
    CHARGE:  cpu time    0.1773: real time    0.1778
    MIXING:  cpu time    0.0029: real time    0.0029
    --------------------------------------------
      LOOP:  cpu time    1.8943: real time    1.9003

 eigenvalue-minimisations  :  1364
 total energy-change (2. order) : 0.6826238E-02  (-0.4034498E-03)
 number of electron      16.0000000 magnetization 
 augmentation part        0.3850107 magnetization 

 Broyden mixing:
  rms(total) = 0.99749E-02    rms(broyden)= 0.99748E-02
  rms(prec ) = 0.18437E-01
  weight for this iteration     100.00

 eigenvalues of (default mixing * dielectric matrix)
  average eigenvalue GAMMA=   1.8930
  3.1764  2.5042  1.9927  0.9981  0.7933

 Free energy of the ion-electron system (eV)
  ---------------------------------------------------
  alpha Z        PSCENC =        12.54445055
  Ewald energy   TEWEN  =      2623.01688741
  -Hartree energ DENC   =     -3138.60119044
  -exchange      EXHF   =         0.00000000
  -V(xc)+E(xc)   XCENC  =        55.17798348
  PAW double counting   =      1684.25022890    -1686.97275076
  entropy T*S    EENTRO =        -0.00000000
  eigenvalues    EBANDS =      -174.96647102
  atomic energy  EATOM  =       588.61769381
  Solvation  Ediel_sol  =         0.00000000
  ---------------------------------------------------
  free energy    TOTEN  =       -36.93316808 eV

  energy without entropy =      -36.93316808  energy(sigma->0) =      -36.93316808


--------------------------------------------------------------------------------------------------------




--------------------------------------- Iteration      1(  11)  ---------------------------------------


    POTLOK:  cpu time    0.0723: real time    0.0726
    SETDIJ:  cpu time    0.0384: real time    0.0385
     EDDAV:  cpu time    1.6463: real time    1.6513
       DOS:  cpu time    0.0002: real time    0.0002
    CHARGE:  cpu time    0.1798: real time    0.1802
    MIXING:  cpu time    0.0033: real time    0.0033
    --------------------------------------------
      LOOP:  cpu time    1.9402: real time    1.9459

 eigenvalue-minimisations  :  1364
 total energy-change (2. order) : 0.1209943E-02  (-0.4218082E-04)
 number of electron      16.0000000 magnetization 
 augmentation part        0.3848411 magnetization 

 Broyden mixing:
  rms(total) = 0.52390E-02    rms(broyden)= 0.52390E-02
  rms(prec ) = 0.14585E-01
  weight for this iteration     100.00

 eigenvalues of (default mixing * dielectric matrix)
  average eigenvalue GAMMA=   2.2239
  4.4510  2.6042  2.2139  2.0095  1.0031  1.0618

 Free energy of the ion-electron system (eV)
  ---------------------------------------------------
  alpha Z        PSCENC =        12.54445055
  Ewald energy   TEWEN  =      2623.01688741
  -Hartree energ DENC   =     -3139.80709029
  -exchange      EXHF   =         0.00000000
  -V(xc)+E(xc)   XCENC  =        55.18930804
  PAW double counting   =      1701.22976709    -1703.95021903
  entropy T*S    EENTRO =        -0.00000000
  eigenvalues    EBANDS =      -173.77275571
  atomic energy  EATOM  =       588.61769381
  Solvation  Ediel_sol  =         0.00000000
  ---------------------------------------------------
  free energy    TOTEN  =       -36.93195814 eV

  energy without entropy =      -36.93195814  energy(sigma->0) =      -36.93195814


--------------------------------------------------------------------------------------------------------




--------------------------------------- Iteration      1(  12)  ---------------------------------------


    POTLOK:  cpu time    0.0701: real time    0.0705
    SETDIJ:  cpu time    0.0383: real time    0.0384
     EDDAV:  cpu time    1.5303: real time    1.5350
       DOS:  cpu time    0.0002: real time    0.0002
    CHARGE:  cpu time    0.1848: real time    0.1852
    MIXING:  cpu time    0.0032: real time    0.0032
    --------------------------------------------
      LOOP:  cpu time    1.8268: real time    1.8325

 eigenvalue-minimisations  :  1208
 total energy-change (2. order) : 0.3704729E-02  (-0.1875038E-03)
 number of electron      16.0000000 magnetization 
 augmentation part        0.3848100 magnetization 

 Broyden mixing:
  rms(total) = 0.35206E-02    rms(broyden)= 0.35206E-02
  rms(prec ) = 0.92487E-02
  weight for this iteration     100.00

 eigenvalues of (default mixing * dielectric matrix)
  average eigenvalue GAMMA=   2.3841
  5.9436  2.8038  2.2746  2.1107  1.5157  1.0201  1.0201

 Free energy of the ion-electron system (eV)
  ---------------------------------------------------
  alpha Z        PSCENC =        12.54445055
  Ewald energy   TEWEN  =      2623.01688741
  -Hartree energ DENC   =     -3143.10274080
  -exchange      EXHF   =         0.00000000
  -V(xc)+E(xc)   XCENC  =        55.18662426
  PAW double counting   =      1697.04004431    -1699.76454761
  entropy T*S    EENTRO =        -0.00000000
  eigenvalues    EBANDS =      -170.46666534
  atomic energy  EATOM  =       588.61769381
  Solvation  Ediel_sol  =         0.00000000
  ---------------------------------------------------
  free energy    TOTEN  =       -36.92825341 eV

  energy without entropy =      -36.92825341  energy(sigma->0) =      -36.92825341


--------------------------------------------------------------------------------------------------------




--------------------------------------- Iteration      1(  13)  ---------------------------------------


    POTLOK:  cpu time    0.0682: real time    0.0684
    SETDIJ:  cpu time    0.0377: real time    0.0379
     EDDAV:  cpu time    1.5874: real time    1.5922
       DOS:  cpu time    0.0002: real time    0.0002
    CHARGE:  cpu time    0.1754: real time    0.1759
    MIXING:  cpu time    0.0031: real time    0.0031
    --------------------------------------------
      LOOP:  cpu time    1.8720: real time    1.8776

 eigenvalue-minimisations  :  1288
 total energy-change (2. order) : 0.2849089E-03  (-0.2007082E-04)
 number of electron      16.0000000 magnetization 
 augmentation part        0.3847830 magnetization 

 Broyden mixing:
  rms(total) = 0.34870E-02    rms(broyden)= 0.34870E-02
  rms(prec ) = 0.73040E-02
  weight for this iteration     100.00

 eigenvalues of (default mixing * dielectric matrix)
  average eigenvalue GAMMA=   2.6169
  7.9857  3.3005  2.4688  2.0232  2.0232  1.1705  0.9818  0.9818

 Free energy of the ion-electron system (eV)
  ---------------------------------------------------
  alpha Z        PSCENC =        12.54445055
  Ewald energy   TEWEN  =      2623.01688741
  -Hartree energ DENC   =     -3144.74404742
  -exchange      EXHF   =         0.00000000
  -V(xc)+E(xc)   XCENC  =        55.18718921
  PAW double counting   =      1698.05841363    -1700.78178354
  entropy T*S    EENTRO =        -0.00000000
  eigenvalues    EBANDS =      -168.82677216
  atomic energy  EATOM  =       588.61769381
  Solvation  Ediel_sol  =         0.00000000
  ---------------------------------------------------
  free energy    TOTEN  =       -36.92796850 eV

  energy without entropy =      -36.92796850  energy(sigma->0) =      -36.92796850


--------------------------------------------------------------------------------------------------------




--------------------------------------- Iteration      1(  14)  ---------------------------------------


    POTLOK:  cpu time    0.0650: real time    0.0652
    SETDIJ:  cpu time    0.0346: real time    0.0347
     EDDAV:  cpu time    1.5103: real time    1.5148
       DOS:  cpu time    0.0002: real time    0.0002
    CHARGE:  cpu time    0.1737: real time    0.1742
    MIXING:  cpu time    0.0033: real time    0.0033
    --------------------------------------------
      LOOP:  cpu time    1.7870: real time    1.7922

 eigenvalue-minimisations  :  1260
 total energy-change (2. order) :-0.1286789E-02  (-0.4187711E-04)
 number of electron      16.0000000 magnetization 
 augmentation part        0.3847332 magnetization 

 Broyden mixing:
  rms(total) = 0.21422E-02    rms(broyden)= 0.21422E-02
  rms(prec ) = 0.38144E-02
  weight for this iteration     100.00

 eigenvalues of (default mixing * dielectric matrix)
  average eigenvalue GAMMA=   2.9602
 10.1398  4.4522  2.6913  2.6913  1.9513  1.5925  1.1413  0.9584  1.0238

 Free energy of the ion-electron system (eV)
  ---------------------------------------------------
  alpha Z        PSCENC =        12.54445055
  Ewald energy   TEWEN  =      2623.01688741
  -Hartree energ DENC   =     -3146.24339964
  -exchange      EXHF   =         0.00000000
  -V(xc)+E(xc)   XCENC  =        55.18557796
  PAW double counting   =      1697.32734032    -1700.05092772
  entropy T*S    EENTRO =        -0.00000000
  eigenvalues    EBANDS =      -167.32687797
  atomic energy  EATOM  =       588.61769381
  Solvation  Ediel_sol  =         0.00000000
  ---------------------------------------------------
  free energy    TOTEN  =       -36.92925529 eV

  energy without entropy =      -36.92925529  energy(sigma->0) =      -36.92925529


--------------------------------------------------------------------------------------------------------




--------------------------------------- Iteration      1(  15)  ---------------------------------------


    POTLOK:  cpu time    0.0649: real time    0.0651
    SETDIJ:  cpu time    0.0348: real time    0.0349
     EDDAV:  cpu time    1.5855: real time    1.5903
       DOS:  cpu time    0.0001: real time    0.0001
    CHARGE:  cpu time    0.1745: real time    0.1749
    MIXING:  cpu time    0.0033: real time    0.0033
    --------------------------------------------
      LOOP:  cpu time    1.8632: real time    1.8687

 eigenvalue-minimisations  :  1352
 total energy-change (2. order) :-0.8219040E-03  (-0.1254475E-04)
 number of electron      16.0000000 magnetization 
 augmentation part        0.3847200 magnetization 

 Broyden mixing:
  rms(total) = 0.23848E-02    rms(broyden)= 0.23848E-02
  rms(prec ) = 0.25707E-02
  weight for this iteration     100.00

 eigenvalues of (default mixing * dielectric matrix)
  average eigenvalue GAMMA=   3.5990
 16.0398  5.9784  2.9903  2.4129  2.0930  2.0930  0.9492  1.0176  1.0176  1.3980

 Free energy of the ion-electron system (eV)
  ---------------------------------------------------
  alpha Z        PSCENC =        12.54445055
  Ewald energy   TEWEN  =      2623.01688741
  -Hartree energ DENC   =     -3147.24169983
  -exchange      EXHF   =         0.00000000
  -V(xc)+E(xc)   XCENC  =        55.18828554
  PAW double counting   =      1692.92688408    -1695.64844145
  entropy T*S    EENTRO =        -0.00000000
  eigenvalues    EBANDS =      -166.33413729
  atomic energy  EATOM  =       588.61769381
  Solvation  Ediel_sol  =         0.00000000
  ---------------------------------------------------
  free energy    TOTEN  =       -36.93007719 eV

  energy without entropy =      -36.93007719  energy(sigma->0) =      -36.93007719


--------------------------------------------------------------------------------------------------------




--------------------------------------- Iteration      1(  16)  ---------------------------------------


    POTLOK:  cpu time    0.0652: real time    0.0654
    SETDIJ:  cpu time    0.0357: real time    0.0358
     EDDAV:  cpu time    1.5912: real time    1.5962
       DOS:  cpu time    0.0002: real time    0.0002
    CHARGE:  cpu time    0.1756: real time    0.1760
    MIXING:  cpu time    0.0036: real time    0.0036
    --------------------------------------------
      LOOP:  cpu time    1.8714: real time    1.8771

 eigenvalue-minimisations  :  1352
 total energy-change (2. order) :-0.2159357E-03  (-0.1283838E-05)
 number of electron      16.0000000 magnetization 
 augmentation part        0.3846975 magnetization 

 Broyden mixing:
  rms(total) = 0.45438E-03    rms(broyden)= 0.45438E-03
  rms(prec ) = 0.60382E-03
  weight for this iteration     100.00

 eigenvalues of (default mixing * dielectric matrix)
  average eigenvalue GAMMA=   4.1767
 22.6778  6.9205  3.4183  2.6828  2.4109  1.9823  1.7100  1.1471  0.9879  0.9879
  1.0184

 Free energy of the ion-electron system (eV)
  ---------------------------------------------------
  alpha Z        PSCENC =        12.54445055
  Ewald energy   TEWEN  =      2623.01688741
  -Hartree energ DENC   =     -3147.36423254
  -exchange      EXHF   =         0.00000000
  -V(xc)+E(xc)   XCENC  =        55.18936744
  PAW double counting   =      1696.08152392    -1698.80384773
  entropy T*S    EENTRO =        -0.00000000
  eigenvalues    EBANDS =      -166.21213598
  atomic energy  EATOM  =       588.61769381
  Solvation  Ediel_sol  =         0.00000000
  ---------------------------------------------------
  free energy    TOTEN  =       -36.93029313 eV

  energy without entropy =      -36.93029313  energy(sigma->0) =      -36.93029313


--------------------------------------------------------------------------------------------------------




--------------------------------------- Iteration      1(  17)  ---------------------------------------


    POTLOK:  cpu time    0.0652: real time    0.0654
    SETDIJ:  cpu time    0.0349: real time    0.0350
     EDDAV:  cpu time    1.5539: real time    1.5588
       DOS:  cpu time    0.0002: real time    0.0002
    CHARGE:  cpu time    0.1741: real time    0.1746
    MIXING:  cpu time    0.0036: real time    0.0036
    --------------------------------------------
      LOOP:  cpu time    1.8319: real time    1.8376

 eigenvalue-minimisations  :  1296
 total energy-change (2. order) :-0.1009066E-03  (-0.3277137E-06)
 number of electron      16.0000000 magnetization 
 augmentation part        0.3846889 magnetization 

 Broyden mixing:
  rms(total) = 0.26387E-03    rms(broyden)= 0.26387E-03
  rms(prec ) = 0.30157E-03
  weight for this iteration     100.00

 eigenvalues of (default mixing * dielectric matrix)
  average eigenvalue GAMMA=   4.1277
 23.6184  6.9816  3.3845  2.9402  2.4835  2.4835  1.9756  1.6287  1.0393  1.0393
  0.9791  0.9791

 Free energy of the ion-electron system (eV)
  ---------------------------------------------------
  alpha Z        PSCENC =        12.54445055
  Ewald energy   TEWEN  =      2623.01688741
  -Hartree energ DENC   =     -3147.38728745
  -exchange      EXHF   =         0.00000000
  -V(xc)+E(xc)   XCENC  =        55.18929798
  PAW double counting   =      1695.77746862    -1698.50033383
  entropy T*S    EENTRO =        -0.00000000
  eigenvalues    EBANDS =      -166.18857114
  atomic energy  EATOM  =       588.61769381
  Solvation  Ediel_sol  =         0.00000000
  ---------------------------------------------------
  free energy    TOTEN  =       -36.93039404 eV

  energy without entropy =      -36.93039404  energy(sigma->0) =      -36.93039404


--------------------------------------------------------------------------------------------------------




--------------------------------------- Iteration      1(  18)  ---------------------------------------


    POTLOK:  cpu time    0.0661: real time    0.0732
    SETDIJ:  cpu time    0.0354: real time    0.0355
     EDDAV:  cpu time    1.5756: real time    1.5809
       DOS:  cpu time    0.0002: real time    0.0002
    CHARGE:  cpu time    0.1749: real time    0.1754
    MIXING:  cpu time    0.0037: real time    0.0037
    --------------------------------------------
      LOOP:  cpu time    1.8560: real time    1.8688

 eigenvalue-minimisations  :  1328
 total energy-change (2. order) :-0.2196415E-04  (-0.1074736E-06)
 number of electron      16.0000000 magnetization 
 augmentation part        0.3846941 magnetization 

 Broyden mixing:
  rms(total) = 0.75247E-04    rms(broyden)= 0.75245E-04
  rms(prec ) = 0.85458E-04
  weight for this iteration     100.00

 eigenvalues of (default mixing * dielectric matrix)
  average eigenvalue GAMMA=   4.0196
 23.9170  7.0809  4.0953  3.1266  2.4493  2.4493  2.0454  1.6347  1.4498  1.0201
  1.0201  0.9833  0.9833

 Free energy of the ion-electron system (eV)
  ---------------------------------------------------
  alpha Z        PSCENC =        12.54445055
  Ewald energy   TEWEN  =      2623.01688741
  -Hartree energ DENC   =     -3147.38880236
  -exchange      EXHF   =         0.00000000
  -V(xc)+E(xc)   XCENC  =        55.18885529
  PAW double counting   =      1695.70052898    -1698.42314029
  entropy T*S    EENTRO =        -0.00000000
  eigenvalues    EBANDS =      -166.18688939
  atomic energy  EATOM  =       588.61769381
  Solvation  Ediel_sol  =         0.00000000
  ---------------------------------------------------
  free energy    TOTEN  =       -36.93041600 eV

  energy without entropy =      -36.93041600  energy(sigma->0) =      -36.93041600


--------------------------------------------------------------------------------------------------------




--------------------------------------- Iteration      1(  19)  ---------------------------------------


    POTLOK:  cpu time    0.0667: real time    0.0669
    SETDIJ:  cpu time    0.0351: real time    0.0352
     EDDAV:  cpu time    1.5492: real time    1.5543
       DOS:  cpu time    0.0002: real time    0.0002
    CHARGE:  cpu time    0.1737: real time    0.1741
    MIXING:  cpu time    0.0038: real time    0.0039
    --------------------------------------------
      LOOP:  cpu time    1.8286: real time    1.8344

 eigenvalue-minimisations  :  1296
 total energy-change (2. order) :-0.4158738E-05  (-0.1328780E-07)
 number of electron      16.0000000 magnetization 
 augmentation part        0.3846918 magnetization 

 Broyden mixing:
  rms(total) = 0.52689E-04    rms(broyden)= 0.52687E-04
  rms(prec ) = 0.53666E-04
  weight for this iteration     100.00

 eigenvalues of (default mixing * dielectric matrix)
  average eigenvalue GAMMA=   3.8991
 23.9822  7.0927  4.2261  3.1366  2.7267  2.3585  2.3585  1.9956  1.6639  1.0641
  1.0161  1.0161  0.9750  0.9750

 Free energy of the ion-electron system (eV)
  ---------------------------------------------------
  alpha Z        PSCENC =        12.54445055
  Ewald energy   TEWEN  =      2623.01688741
  -Hartree energ DENC   =     -3147.39205955
  -exchange      EXHF   =         0.00000000
  -V(xc)+E(xc)   XCENC  =        55.18897259
  PAW double counting   =      1695.63273480    -1698.35542457
  entropy T*S    EENTRO =        -0.00000000
  eigenvalues    EBANDS =      -166.18367519
  atomic energy  EATOM  =       588.61769381
  Solvation  Ediel_sol  =         0.00000000
  ---------------------------------------------------
  free energy    TOTEN  =       -36.93042016 eV

  energy without entropy =      -36.93042016  energy(sigma->0) =      -36.93042016


--------------------------------------------------------------------------------------------------------




--------------------------------------- Iteration      1(  20)  ---------------------------------------


    POTLOK:  cpu time    0.0679: real time    0.0681
    SETDIJ:  cpu time    0.0352: real time    0.0353
     EDDAV:  cpu time    1.4844: real time    1.4890
       DOS:  cpu time    0.0002: real time    0.0002
    CHARGE:  cpu time    0.1751: real time    0.1755
    MIXING:  cpu time    0.0040: real time    0.0040
    --------------------------------------------
      LOOP:  cpu time    1.7667: real time    1.7721

 eigenvalue-minimisations  :  1212
 total energy-change (2. order) :-0.2304846E-06  (-0.1317349E-08)
 number of electron      16.0000000 magnetization 
 augmentation part        0.3846915 magnetization 

 Broyden mixing:
  rms(total) = 0.63170E-05    rms(broyden)= 0.62979E-05
  rms(prec ) = 0.69090E-05
  weight for this iteration     100.00

 eigenvalues of (default mixing * dielectric matrix)
  average eigenvalue GAMMA=   3.7434
 23.9825  7.0928  4.2945  3.0903  2.9619  2.4450  2.3287  2.0390  1.6554  1.2990
  1.0144  1.0144  1.0153  0.9591  0.9591

 Free energy of the ion-electron system (eV)
  ---------------------------------------------------
  alpha Z        PSCENC =        12.54445055
  Ewald energy   TEWEN  =      2623.01688741
  -Hartree energ DENC   =     -3147.39042462
  -exchange      EXHF   =         0.00000000
  -V(xc)+E(xc)   XCENC  =        55.18897794
  PAW double counting   =      1695.67918283    -1698.40185373
  entropy T*S    EENTRO =        -0.00000000
  eigenvalues    EBANDS =      -166.18533458
  atomic energy  EATOM  =       588.61769381
  Solvation  Ediel_sol  =         0.00000000
  ---------------------------------------------------
  free energy    TOTEN  =       -36.93042039 eV

  energy without entropy =      -36.93042039  energy(sigma->0) =      -36.93042039


--------------------------------------------------------------------------------------------------------




--------------------------------------- Iteration      1(  21)  ---------------------------------------


    POTLOK:  cpu time    0.0687: real time    0.0689
    SETDIJ:  cpu time    0.0360: real time    0.0361
     EDDAV:  cpu time    1.2740: real time    1.2781
       DOS:  cpu time    0.0002: real time    0.0002
    --------------------------------------------
      LOOP:  cpu time    1.3789: real time    1.3832

 eigenvalue-minimisations  :   940
 total energy-change (2. order) :-0.2526122E-09  (-0.8850489E-10)
 number of electron      16.0000000 magnetization 
 augmentation part        0.3846915 magnetization 

 Free energy of the ion-electron system (eV)
  ---------------------------------------------------
  alpha Z        PSCENC =        12.54445055
  Ewald energy   TEWEN  =      2623.01688741
  -Hartree energ DENC   =     -3147.39054758
  -exchange      EXHF   =         0.00000000
  -V(xc)+E(xc)   XCENC  =        55.18896675
  PAW double counting   =      1695.68351480    -1698.40617709
  entropy T*S    EENTRO =        -0.00000000
  eigenvalues    EBANDS =      -166.18520904
  atomic energy  EATOM  =       588.61769381
  Solvation  Ediel_sol  =         0.00000000
  ---------------------------------------------------
  free energy    TOTEN  =       -36.93042039 eV

  energy without entropy =      -36.93042039  energy(sigma->0) =      -36.93042039


--------------------------------------------------------------------------------------------------------




 average (electrostatic) potential at core
  the test charge radii are     0.6991
  (the norm of the test charge is              1.0000)
       1 -56.6476       2 -56.6477       3 -56.6476       4 -56.6477
 
 
 
 E-fermi :  -1.2109     XC(G=0):  -4.0072     alpha+bet : -3.8262


 k-point     1 :       0.0000    0.0000    0.0000
  band No.  band energies     occupation 
      1     -20.8052      2.00000
      2     -20.7845      2.00000
      3      -9.0214      2.00000
      4      -8.7566      2.00000
      5      -4.2486      2.00000
      6      -4.2485      2.00000
      7      -4.2473      2.00000
      8      -4.2473      2.00000
      9       1.9813      0.00000
     10       2.4989      0.00000
     11       3.1765      0.00000
     12       4.1014      0.00000

 k-point     2 :       0.0476    0.0000    0.0000
  band No.  band energies     occupation 
      1     -20.7513      2.00000
      2     -20.7307      2.00000
      3      -8.9566      2.00000
      4      -8.6926      2.00000
      5      -4.4696      2.00000
      6      -4.4681      2.00000
      7      -4.3655      2.00000
      8      -4.3641      2.00000
      9       2.0534      0.00000
     10       2.5721      0.00000
     11       3.2500      0.00000
     12       4.1729      0.00000

 k-point     3 :       0.0952    0.0000    0.0000
  band No.  band energies     occupation 
      1     -20.5898      2.00000
      2     -20.5695      2.00000
      3      -8.7628      2.00000
      4      -8.5009      2.00000
      5      -5.0897      2.00000
      6      -5.0876      2.00000
      7      -4.6853      2.00000
      8      -4.6839      2.00000
      9       2.2697      0.00000
     10       2.7918      0.00000
     11       3.4704      0.00000
     12       4.3873      0.00000

 k-point     4 :       0.1429    0.0000    0.0000
  band No.  band energies     occupation 
      1     -20.3214      2.00000
      2     -20.3014      2.00000
      3      -8.4417      2.00000
      4      -8.1834      2.00000
      5      -6.0095      2.00000
      6      -6.0065      2.00000
      7      -5.1370      2.00000
      8      -5.1354      2.00000
      9       2.6302      0.00000
     10       3.1576      0.00000
     11       3.8374      0.00000
     12       4.7436      0.00000

 k-point     5 :       0.1905    0.0000    0.0000
  band No.  band energies     occupation 
      1     -19.9469      2.00000
      2     -19.9276      2.00000
      3      -7.9962      2.00000
      4      -7.7433      2.00000
      5      -7.1227      2.00000
      6      -7.1186      2.00000
      7      -5.6458      2.00000
      8      -5.6440      2.00000
      9       3.1344      0.00000
     10       3.6686      0.00000
     11       4.3500      0.00000
     12       5.2380      0.00000

 k-point     6 :       0.2381    0.0000    0.0000
  band No.  band energies     occupation 
      1     -19.4679      2.00000
      2     -19.4493      2.00000
      3      -8.3428      2.00000
      4      -8.3377      2.00000
      5      -7.4317      2.00000
      6      -7.1860      2.00000
      7      -6.1529      2.00000
      8      -6.1509      2.00000
      9       3.7812      0.00000
     10       4.3213      0.00000
     11       5.0019      0.00000
     12       5.8211      0.00000

 k-point     7 :       0.2857    0.0000    0.0000
  band No.  band energies     occupation 
      1     -18.8868      2.00000
      2     -18.8690      2.00000
      3      -9.6074      2.00000
      4      -9.6009      2.00000
      5      -6.7571      2.00000
      6      -6.6173      2.00000
      7      -6.6152      2.00000
      8      -6.5208      2.00000
      9       4.5671      0.00000
     10       4.9609      0.00000
     11       4.9807      0.00000
     12       5.2864      0.00000

 k-point     8 :       0.3333    0.0000    0.0000
  band No.  band energies     occupation 
      1     -18.2068      2.00000
      2     -18.1901      2.00000
      3     -10.8716      2.00000
      4     -10.8639      2.00000
      5      -7.0123      2.00000
      6      -7.0100      2.00000
      7      -5.9887      2.00000
      8      -5.7647      2.00000
      9       3.6339      0.00000
     10       3.7973      0.00000
     11       5.4879      0.00000
     12       6.0774      0.00000

 k-point     9 :       0.3810    0.0000    0.0000
  band No.  band energies     occupation 
      1     -17.4343      2.00000
      2     -17.4186      2.00000
      3     -12.1020      2.00000
      4     -12.0931      2.00000
      5      -7.3204      2.00000
      6      -7.3182      2.00000
      7      -5.1598      2.00000
      8      -4.9520      2.00000
      9       2.3385      0.00000
     10       2.5289      0.00000
     11       6.3119      0.00000
     12       6.4071      0.00000

 k-point    10 :       0.4286    0.0000    0.0000
  band No.  band energies     occupation 
      1     -16.5843      2.00000
      2     -16.5697      2.00000
      3     -13.2660      2.00000
      4     -13.2558      2.00000
      5      -7.5311      2.00000
      6      -7.5288      2.00000
      7      -4.3501      2.00000
      8      -4.1632      2.00000
      9       1.2001      0.00000
     10       1.4189      0.00000
     11       6.2749      0.00000
     12       6.3091      0.00000

 k-point    11 :       0.4762    0.0000    0.0000
  band No.  band energies     occupation 
      1     -15.7391      2.00000
      2     -15.7254      2.00000
      3     -14.2706      2.00000
      4     -14.2594      2.00000
      5      -7.6378      2.00000
      6      -7.6355      2.00000
      7      -3.7667      2.00000
      8      -3.6014      2.00000
      9       0.4476      0.00000
     10       0.6916      0.00000
     11       6.2252      0.00000
     12       6.2559      0.00000

 k-point    12 :       0.0952    0.0476    0.0000
  band No.  band energies     occupation 
      1     -20.6436      2.00000
      2     -20.6232      2.00000
      3      -8.8273      2.00000
      4      -8.5647      2.00000
      5      -4.8747      2.00000
      6      -4.8729      2.00000
      7      -4.5994      2.00000
      8      -4.5979      2.00000
      9       2.1976      0.00000
     10       2.7186      0.00000
     11       3.3969      0.00000
     12       4.3159      0.00000

 k-point    13 :       0.1429    0.0476    0.0000
  band No.  band energies     occupation 
      1     -20.4287      2.00000
      2     -20.4086      2.00000
      3      -8.5698      2.00000
      4      -8.3101      2.00000
      5      -5.6119      2.00000
      6      -5.6093      2.00000
      7      -5.0185      2.00000
      8      -5.0168      2.00000
      9       2.4861      0.00000
     10       3.0114      0.00000
     11       3.6907      0.00000
     12       4.6014      0.00000

 k-point    14 :       0.1905    0.0476    0.0000
  band No.  band energies     occupation 
      1     -20.1072      2.00000
      2     -20.0876      2.00000
      3      -8.1864      2.00000
      4      -7.9311      2.00000
      5      -6.5984      2.00000
      6      -6.5949      2.00000
      7      -5.5295      2.00000
      8      -5.5276      2.00000
      9       2.9187      0.00000
     10       3.4500      0.00000
     11       4.1308      0.00000
     12       5.0278      0.00000

 k-point    15 :       0.2381    0.0476    0.0000
  band No.  band energies     occupation 
      1     -19.6805      2.00000
      2     -19.6616      2.00000
      3      -7.7438      2.00000
      4      -7.7392      2.00000
      5      -7.6810      2.00000
      6      -7.4321      2.00000
      7      -6.0595      2.00000
      8      -6.0573      2.00000
      9       3.4945      0.00000
     10       4.0328      0.00000
     11       4.7150      0.00000
     12       5.5854      0.00000

 k-point    16 :       0.2857    0.0476    0.0000
  band No.  band energies     occupation 
      1     -19.1504      2.00000
      2     -19.1323      2.00000
      3      -8.9723      2.00000
      4      -8.9665      2.00000
      5      -7.0607      2.00000
      6      -6.8199      2.00000
      7      -6.5594      2.00000
      8      -6.5571      2.00000
      9       4.2119      0.00000
     10       4.7491      0.00000
     11       5.3829      0.00000
     12       5.6442      0.00000

 k-point    17 :       0.3333    0.0476    0.0000
  band No.  band energies     occupation 
      1     -18.5198      2.00000
      2     -18.5026      2.00000
      3     -10.2281      2.00000
      4     -10.2211      2.00000
      5      -6.9978      2.00000
      6      -6.9953      2.00000
      7      -6.3370      2.00000
      8      -6.1071      2.00000
      9       4.2674      0.00000
     10       4.4104      0.00000
     11       5.0687      0.00000
     12       5.6564      0.00000

 k-point    18 :       0.3810    0.0476    0.0000
  band No.  band energies     occupation 
      1     -17.7932      2.00000
      2     -17.7770      2.00000
      3     -11.4705      2.00000
      4     -11.4622      2.00000
      5      -7.3545      2.00000
      6      -7.3519      2.00000
      7      -5.5328      2.00000
      8      -5.3169      2.00000
      9       2.9530      0.00000
     10       3.1248      0.00000
     11       6.0464      0.00000
     12       6.6057      0.00000

 k-point    19 :       0.4286    0.0476    0.0000
  band No.  band energies     occupation 
      1     -16.9797      2.00000
      2     -16.9646      2.00000
      3     -12.6668      2.00000
      4     -12.6573      2.00000
      5      -7.6168      2.00000
      6      -7.6142      2.00000
      7      -4.6981      2.00000
      8      -4.5007      2.00000
      9       1.7263      0.00000
     10       1.9258      0.00000
     11       6.5480      0.00000
     12       6.5971      0.00000

 k-point    20 :       0.4762    0.0476    0.0000
  band No.  band energies     occupation 
      1     -16.1101      2.00000
      2     -16.0960      2.00000
      3     -13.7715      2.00000
      4     -13.7608      2.00000
      5      -7.7769      2.00000
      6      -7.7743      2.00000
      7      -3.9611      2.00000
      8      -3.7862      2.00000
      9       0.7440      0.00000
     10       0.9719      0.00000
     11       6.4865      0.00000
     12       6.5199      0.00000

 k-point    21 :      -0.4762    0.0476    0.0000
  band No.  band energies     occupation 
      1     -15.4909      2.00000
      2     -15.4774      2.00000
      3     -14.4699      2.00000
      4     -14.4586      2.00000
      5      -7.8308      2.00000
      6      -7.8281      2.00000
      7      -3.6281      2.00000
      8      -3.4670      2.00000
      9       0.3276      0.00000
     10       0.5714      0.00000
     11       6.4609      0.00000
[...]
      7      -6.1680      2.00000
      8      -6.1655      2.00000
      9       3.3515      0.00000
     10       3.8882      0.00000
     11       4.5705      0.00000
     12       5.4530      0.00000

 k-point    24 :       0.2857    0.0952    0.0000
  band No.  band energies     occupation 
      1     -19.3092      2.00000
      2     -19.2908      2.00000
      3      -8.3979      2.00000
      4      -8.3928      2.00000
      5      -7.2442      2.00000
      6      -7.0008      2.00000
      7      -6.7452      2.00000
      8      -6.7423      2.00000
      9       3.9986      0.00000
     10       4.5417      0.00000
     11       5.2234      0.00000
     12       5.9667      0.00000

 k-point    25 :       0.3333    0.0952    0.0000
  band No.  band energies     occupation 
      1     -18.7296      2.00000
      2     -18.7121      2.00000
      3      -9.5862      2.00000
      4      -9.5800      2.00000
      5      -7.2511      2.00000
      6      -7.2480      2.00000
      7      -6.5721      2.00000
      8      -6.3382      2.00000
      9       4.7724      0.00000
     10       4.8045      0.00000
     11       4.8970      0.00000
     12       5.3718      0.00000

 k-point    26 :       0.3810    0.0952    0.0000
  band No.  band energies     occupation 
      1     -18.0519      2.00000
      2     -18.0354      2.00000
      3     -10.8026      2.00000
      4     -10.7951      2.00000
      5      -7.6693      2.00000
      6      -7.6660      2.00000
      7      -5.8060      2.00000
      8      -5.5844      2.00000
      9       3.5110      0.00000
     10       3.6559      0.00000
     11       5.7112      0.00000
     12       6.2919      0.00000

 k-point    27 :       0.4286    0.0952    0.0000
  band No.  band energies     occupation 
      1     -17.2825      2.00000
      2     -17.2670      2.00000
      3     -12.0025      2.00000
      4     -11.9938      2.00000
      5      -7.9902      2.00000
      6      -7.9868      2.00000
      7      -4.9779      2.00000
      8      -4.7722      2.00000
      9       2.2612      0.00000
     10       2.4330      0.00000
     11       6.7532      0.00000
     12       7.2810      0.00000

 k-point    28 :       0.4762    0.0952    0.0000
  band No.  band energies     occupation 
      1     -16.4370      2.00000
      2     -16.4226      2.00000
      3     -13.1464      2.00000
      4     -13.1364      2.00000
      5      -8.2073      2.00000
      6      -8.2038      2.00000
      7      -4.1645      2.00000
      8      -3.9792      2.00000
      9       1.1499      0.00000
     10       1.3500      0.00000
     11       7.1938      0.00000
     12       7.2420      0.00000

 k-point    29 :      -0.4762    0.0952    0.0000
  band No.  band energies     occupation 
      1     -15.5982      2.00000
      2     -15.5848      2.00000
      3     -14.1376      2.00000
      4     -14.1266      2.00000
      5      -8.3168      2.00000
      6      -8.3133      2.00000
      7      -3.5718      2.00000
      8      -3.4076      2.00000
      9       0.4033      0.00000
     10       0.6286      0.00000
     11       7.1511      0.00000
     12       7.1897      0.00000

 k-point    30 :       0.2857    0.1429    0.0000
  band No.  band energies     occupation 
      1     -19.3622      2.00000
      2     -19.3437      2.00000
      3      -8.1130      2.00000
      4      -8.1084      2.00000
      5      -7.3055      2.00000
      6      -7.0613      2.00000
      7      -6.9073      2.00000
      8      -6.9040      2.00000
      9       3.9275      0.00000
     10       4.4712      0.00000
     11       5.1551      0.00000
     12       6.0170      0.00000

 k-point    31 :       0.3333    0.1429    0.0000
  band No.  band energies     occupation 
      1     -18.8348      2.00000
      2     -18.8172      2.00000
      3      -9.0799      2.00000
      4      -9.0743      2.00000
      5      -7.5843      2.00000
      6      -7.5804      2.00000
      7      -6.6905      2.00000
      8      -6.4547      2.00000
      9       4.6450      0.00000
     10       5.1060      0.00000
     11       5.1609      0.00000
     12       5.2416      0.00000

 k-point    32 :       0.3810    0.1429    0.0000
  band No.  band energies     occupation 
      1     -18.2080      2.00000
      2     -18.1913      2.00000
      3     -10.1721      2.00000
      4     -10.1654      2.00000
      5      -8.1273      2.00000
      6      -8.1232      2.00000
      7      -5.9725      2.00000
      8      -5.7474      2.00000
      9       3.9216      0.00000
     10       4.0384      0.00000
     11       5.5018      0.00000
     12       6.0668      0.00000

 k-point    33 :       0.4286    0.1429    0.0000
  band No.  band energies     occupation 
      1     -17.4868      2.00000
      2     -17.4711      2.00000
      3     -11.3181      2.00000
      4     -11.3102      2.00000
      5      -8.5385      2.00000
      6      -8.5342      2.00000
      7      -5.1724      2.00000
      8      -4.9611      2.00000
      9       2.7195      0.00000
     10       2.8598      0.00000
     11       6.4924      0.00000
     12       7.0690      0.00000

 k-point    34 :       0.4762    0.1429    0.0000
  band No.  band energies     occupation 
      1     -16.6810      2.00000
      2     -16.6663      2.00000
      3     -12.4561      2.00000
      4     -12.4469      2.00000
      5      -8.8284      2.00000
      6      -8.8239      2.00000
      7      -4.3360      2.00000
      8      -4.1423      2.00000
      9       1.5729      0.00000
     10       1.7390      0.00000
     11       7.6009      0.00000
     12       8.1723      0.00000

 k-point    35 :      -0.4762    0.1429    0.0000
  band No.  band energies     occupation 
      1     -15.8223      2.00000
      2     -15.8086      2.00000
      3     -13.5241      2.00000
      4     -13.5137      2.00000
      5      -9.0013      2.00000
      6      -8.9968      2.00000
      7      -3.5839      2.00000
      8      -3.4115      2.00000
      9       0.6249      0.00000
     10       0.8179      0.00000
     11       8.1819      0.00000
     12       8.2440      0.00000

 k-point    36 :      -0.4286    0.1429    0.0000
  band No.  band energies     occupation 
      1     -15.2144      2.00000
      2     -15.2014      2.00000
      3     -14.2033      2.00000
      4     -14.1923      2.00000
      5      -9.0590      2.00000
      6      -9.0544      2.00000
      7      -3.2341      2.00000
      8      -3.0753      2.00000
      9       0.2082      0.00000
     10       0.4168      0.00000
     11       8.1641      0.00000
     12       8.2178      0.00000

 k-point    37 :       0.3810    0.1905    0.0000
  band No.  band energies     occupation 
      1     -18.2602      2.00000
      2     -18.2434      2.00000
      3      -9.8424      2.00000
      4      -9.8363      2.00000
      5      -8.4069      2.00000
      6      -8.4022      2.00000
      7      -6.0284      2.00000
      8      -5.8022      2.00000
      9       4.0769      0.00000
     10       4.1808      0.00000
     11       5.4313      0.00000
     12       5.9890      0.00000

 k-point    38 :       0.4286    0.1905    0.0000
  band No.  band energies     occupation 
      1     -17.5896      2.00000
      2     -17.5737      2.00000
      3     -10.7527      2.00000
      4     -10.7455      2.00000
      5      -9.0551      2.00000
      6      -9.0499      2.00000
      7      -5.2719      2.00000
      8      -5.0578      2.00000
      9       2.9931      0.00000
     10       3.1103      0.00000
     11       6.3531      0.00000
     12       6.9161      0.00000

 k-point    39 :       0.4762    0.1905    0.0000
  band No.  band energies     occupation 
      1     -16.8302      2.00000
      2     -16.8154      2.00000
      3     -11.7790      2.00000
      4     -11.7707      2.00000
      5      -9.4951      2.00000
      6      -9.4895      2.00000
      7      -4.4485      2.00000
      8      -4.2495      2.00000
      9       1.9019      0.00000
     10       2.0374      0.00000
     11       7.4027      0.00000
     12       7.9661      0.00000

 k-point    40 :      -0.4762    0.1905    0.0000
  band No.  band energies     occupation 
      1     -15.9989      2.00000
      2     -15.9852      2.00000
      3     -12.8279      2.00000
      4     -12.8184      2.00000
      5      -9.7664      2.00000
      6      -9.7607      2.00000
      7      -3.6235      2.00000
      8      -3.4432      2.00000
      9       0.8857      0.00000
     10       1.0434      0.00000
     11       8.5584      0.00000
     12       9.1048      0.00000

 k-point    41 :      -0.4286    0.1905    0.0000
  band No.  band energies     occupation 
      1     -15.1785      2.00000
      2     -15.1657      2.00000
      3     -13.7672      2.00000
      4     -13.7566      2.00000
      5      -9.8970      2.00000
      6      -9.8912      2.00000
      7      -2.9934      2.00000
      8      -2.8326      2.00000
      9       0.1557      0.00000
     10       0.3351      0.00000
     11       9.3778      0.00000
     12       9.4803      0.00000

 k-point    42 :       0.4762    0.2381    0.0000
  band No.  band energies     occupation 
      1     -16.8804      2.00000
      2     -16.8655      2.00000
      3     -11.4080      2.00000
      4     -11.4001      2.00000
      5      -9.8680      2.00000
      6      -9.8619      2.00000
      7      -4.4875      2.00000
      8      -4.2868      2.00000
      9       2.0281      0.00000
     10       2.1506      0.00000
     11       7.3331      0.00000
     12       7.8863      0.00000

 k-point    43 :      -0.4762    0.2381    0.0000
  band No.  band energies     occupation 
      1     -16.0918      2.00000
      2     -16.0779      2.00000
      3     -12.2226      2.00000
      4     -12.2139      2.00000
      5     -10.4161      2.00000
      6     -10.4094      2.00000
      7      -3.6533      2.00000
      8      -3.4684      2.00000
      9       1.0609      0.00000
     10       1.1945      0.00000
     11       8.4207      0.00000
     12       8.9342      0.00000

 k-point    44 :      -0.4286    0.2381    0.0000
  band No.  band energies     occupation 
      1     -15.2563      2.00000
      2     -15.2435      2.00000
      3     -13.1291      2.00000
      4     -13.1192      2.00000
      5     -10.7013      2.00000
      6     -10.6944      2.00000
      7      -2.8619      2.00000
      8      -2.6952      2.00000
      9       0.1870      0.00000
     10       0.3365      0.00000
     11       9.2810      0.00000
     12       9.6862      0.00000

 k-point    45 :      -0.3810    0.2381    0.0000
  band No.  band energies     occupation 
      1     -14.6628      2.00000
      2     -14.6506      2.00000
      3     -13.7560      2.00000
      4     -13.7454      2.00000
      5     -10.7886      2.00000
      6     -10.7816      2.00000
      7      -2.4521      2.00000
      8      -2.2979      2.00000
      9      -0.2510      0.00000
     10      -0.0895      0.00000
     11       9.3413      0.00000
     12      10.2548      0.00000

 k-point    46 :      -0.4286    0.2857    0.0000
  band No.  band energies     occupation 
      1     -15.2909      2.00000
      2     -15.2781      2.00000
      3     -12.7495      2.00000
      4     -12.7401      2.00000
      5     -11.1315      2.00000
      6     -11.1241      2.00000
      7      -2.8222      2.00000
      8      -2.6525      2.00000
      9       0.2123      0.00000
     10       0.3489      0.00000
     11       9.1187      0.00000
     12       9.6127      0.00000

 k-point    47 :      -0.3810    0.2857    0.0000
  band No.  band energies     occupation 
      1     -14.4989      2.00000
      2     -14.4871      2.00000
      3     -13.4138      2.00000
      4     -13.4036      2.00000
      5     -11.4866      2.00000
      6     -11.4788      2.00000
      7      -2.0769      2.00000
      8      -1.9221      2.00000
      9      -0.5379      0.00000
     10      -0.3927      0.00000
     11       9.0435      0.00000
     12      10.0136      0.00000

 k-point    48 :      -0.3333    0.3333    0.0000
  band No.  band energies     occupation 
      1     -13.8389      2.00000
      2     -13.8389      2.00000
      3     -13.8280      2.00000
      4     -13.8280      2.00000
      5     -11.8285      2.00000
      6     -11.8203      2.00000
      7      -1.2953      2.00000
      8      -1.2953      2.00000
      9      -1.1483      0.00000
     10      -1.1483      0.00000
     11       8.9224      0.00000
     12       9.9386      0.00000


--------------------------------------------------------------------------------------------------------


 soft charge-density along one line, spin component           1
         0         1         2         3         4         5         6         7         8         9
 total charge-density along one line
 
 pseudopotential strength for first ion, spin component:           1
 10.124  13.461  -0.000  -0.000   0.000   0.000   0.000  -0.000
 13.461  17.898  -0.000  -0.000   0.000   0.000   0.000  -0.000
 -0.000  -0.000  -4.266  -0.000  -0.000   8.344   0.000   0.000
 -0.000  -0.000  -0.000  -4.258  -0.000   0.000   8.334   0.000
  0.000   0.000  -0.000  -0.000  -4.266   0.000   0.000   8.344
  0.000   0.000   8.344   0.000   0.000 -18.452  -0.000  -0.000
  0.000   0.000   0.000   8.334   0.000  -0.000 -18.443  -0.000
 -0.000  -0.000   0.000   0.000   8.344  -0.000  -0.000 -18.452
 total augmentation occupancy for first ion, spin component:           1
  8.117  -3.602   0.000   0.000   0.000   0.000   0.000   0.000
 -3.602   1.656  -0.000   0.000   0.000  -0.000  -0.000   0.000
 -0.000   0.000   1.837   0.000   0.000   0.173   0.000   0.000
  0.000   0.000  -0.000   1.199  -0.000   0.000   0.073   0.000
 -0.000   0.000   0.000  -0.000   1.837   0.000  -0.000   0.173
 -0.000   0.000   0.173   0.000   0.000   0.018   0.000   0.000
  0.000  -0.000  -0.000   0.073   0.000  -0.000   0.005   0.000
  0.000   0.000   0.000   0.000   0.173   0.000   0.000   0.018


------------------------ aborting loop because EDIFF is reached ----------------------------------------


    CHARGE:  cpu time    0.1778: real time    0.1782
    FORLOC:  cpu time    0.0049: real time    0.0049
    FORNL :  cpu time    0.3396: real time    0.3405
    STRESS:  cpu time    1.3554: real time    1.3587
    FORCOR:  cpu time    0.0722: real time    0.0725
    FORHAR:  cpu time    0.0191: real time    0.0191
    MIXING:  cpu time    0.0042: real time    0.0043
    OFIELD:  cpu time    0.0000: real time    0.0000

  FORCE on cell =-STRESS in cart. coord.  units (eV):
  Direction    XX          YY          ZZ          XY          YZ          ZX
  --------------------------------------------------------------------------------------
  Alpha Z    12.54445    12.54445    12.54445
  Ewald    3162.16561  3162.16438 -3701.31356     0.00000     0.00000     0.00000
  Hartree  3124.85136  3124.85135 -3102.31224     0.00000    -0.00000    -0.00000
  E(xc)     -59.52311   -59.52311   -61.74890    -0.00000     0.00000     0.00000
  Local   -6464.32523 -6464.32462  6591.91827    -0.00000    -0.00000     0.00000
  n-local   -14.82491   -13.75010   -13.00806     0.71041    -0.00000    -0.00000
  augment    -1.57109    -1.57109    -1.44412     0.00000    -0.00000    -0.00000
  Kinetic   245.07412   236.87245   275.34393    -6.59883     0.00000     0.00000
  Fock        0.00000     0.00000     0.00000     0.00000     0.00000     0.00000
  -------------------------------------------------------------------------------------
  Total       0.82745     0.82745    -0.02023     0.00000    -0.00000     0.00000
  in kB      12.65308    12.65308    -0.30929     0.00000    -0.00000     0.00000
  external pressure =        8.33 kB  Pullay stress =        0.00 kB


 VOLUME and BASIS-vectors are now :
 -----------------------------------------------------------------------------
  energy-cutoff  :      800.00
  volume of cell :      104.78
      direct lattice vectors                 reciprocal lattice vectors
     2.130000000 -1.229756000  0.000000000     0.234741784 -0.406584721  0.000000000
     2.130000000  1.229756000  0.000000000     0.234741784  0.406584721  0.000000000
     0.000000000  0.000000000 20.000000000     0.000000000  0.000000000  0.050000000

  length of vectors
     2.459512110  2.459512110 20.000000000     0.469483589  0.469483589  0.050000000


 FORCES acting on ions
    electron-ion (+dipol)            ewald-force                    non-local-force                 convergence-correction
 -----------------------------------------------------------------------------------------------
   -.879E-05 -.207E-12 0.321E+03   -.241E-03 0.682E-14 -.321E+03   0.897E-16 -.942E-17 -.321E-02   -.142E-09 -.454E-15 -.465E-04
   0.262E-03 0.110E-13 0.321E+03   0.241E-03 -.471E-14 -.321E+03   0.229E-16 -.121E-16 -.321E-02   0.245E-09 -.882E-15 -.465E-04
   -.880E-05 0.109E-11 -.321E+03   -.241E-03 0.699E-14 0.321E+03   -.485E-16 0.156E-16 0.321E-02   -.143E-09 0.667E-16 0.465E-04
   0.262E-03 -.601E-12 -.321E+03   0.241E-03 -.454E-14 0.321E+03   0.360E-16 0.485E-18 0.321E-02   0.243E-09 0.581E-15 0.465E-04
 -----------------------------------------------------------------------------------------------
   0.506E-03 0.297E-12 -.130E-03   0.858E-14 0.456E-14 0.000E+00   0.100E-15 -.540E-17 0.000E+00   0.203E-09 -.688E-15 -.383E-09
 
 
 POSITION                                       TOTAL-FORCE (eV/Angst)
 -----------------------------------------------------------------------------------
      0.00000      0.00000      0.00000         0.000000      0.000000     -0.002882
      1.42000      0.00000      0.00000        -0.000000      0.000000     -0.002882
      0.00000      0.00000      4.20000         0.000000     -0.000000      0.002882
      1.42000      0.00000      4.20000        -0.000000      0.000000      0.002882
 -----------------------------------------------------------------------------------
    total drift:                                0.000506      0.000000     -0.000130


--------------------------------------------------------------------------------------------------------



  FREE ENERGIE OF THE ION-ELECTRON SYSTEM (eV)
  ---------------------------------------------------
  free  energy   TOTEN  =       -36.93042039 eV

  energy  without entropy=      -36.93042039  energy(sigma->0) =      -36.93042039
 


--------------------------------------------------------------------------------------------------------


    POTLOK:  cpu time    0.1040: real time    0.1044


--------------------------------------------------------------------------------------------------------


     LOOP+:  cpu time   41.0634: real time   41.3630
    4ORBIT:  cpu time    0.0000: real time    0.0000

 total amount of memory used by VASP MPI-rank0   107376. kBytes
=======================================================================

   base      :      30000. kBytes
   nonl-proj :      16997. kBytes
   fftplans  :      32720. kBytes
   grid      :      15086. kBytes
   one-center:         12. kBytes
   wavefun   :      12561. kBytes
 
  
  
 General timing and accounting informations for this job:
 ========================================================
  
                  Total CPU time used (sec):       43.055
                            User time (sec):       42.277
                          System time (sec):        0.778
                         Elapsed time (sec):       43.749
  
                   Maximum memory used (kb):      175748.
                   Average memory used (kb):           0.
  
                          Minor page faults:       178282
                          Major page faults:            0
                 Voluntary context switches:         3619
