 vasp.5.4.4.18Apr17-6-g9f103f2a35 (build May 31 2018 21:15:54) complex          
  
 executed on          c7_intel_O1 date 2020.07.23  19:25:25
 running on    4 total cores
 distrk:  each k-point on    4 cores,    1 groups
 distr:  one band on NCORES_PER_BAND=   1 cores,    4 groups


--------------------------------------------------------------------------------------------------------


 INCAR:
 POTCAR:    PAW_PBE C 08Apr2002                   
 POTCAR:    PAW_PBE C 08Apr2002                   
   VRHFIN =C: s2p2                                                              
   LEXCH  = PE                                                                  
   EATOM  =   147.1560 eV,   10.8157 Ry                                         
                                                                                
   TITEL  = PAW_PBE C 08Apr2002                                                 
   LULTRA =        F    use ultrasoft PP ?                                      
   IUNSCR =        1    unscreen: 0-lin 1-nonlin 2-no                           
   RPACOR =    1.200    partial core radius                                     
   POMASS =   12.011; ZVAL   =    4.000    mass and valenz                      
   RCORE  =    1.500    outmost cutoff radius                                   
   RWIGS  =    1.630; RWIGS  =    0.863    wigner-seitz radius (au A)           
   ENMAX  =  400.000; ENMIN  =  300.000 eV                                      
   ICORE  =        2    local potential                                         
   LCOR   =        T    correct aug charges                                     
   LPAW   =        T    paw PP                                                  
   EAUG   =  644.873                                                            
   DEXC   =    0.000                                                            
   RMAX   =    1.529    core radius for proj-oper                               
   RAUG   =    1.300    factor for augmentation sphere                          
   RDEP   =    1.501    radius for radial grids                                 
   RDEPT  =    1.300    core radius for aug-charge                              
                                                                                
   Atomic configuration                                                         
    4 entries                                                                   
     n  l   j            E        occ.                                          
     1  0  0.50      -273.3789   2.0000                                         
     2  0  0.50       -13.7508   2.0000                                         
     2  1  0.50        -5.2854   2.0000                                         
     3  2  1.50        -5.4423   0.0000                                         
   Description                                                                  
     l       E           TYP  RCUT    TYP  RCUT                                 
     0    -13.7508458     23  1.200                                             
     0     -8.2022199     23  1.200                                             
     1     -5.2854383     23  1.500                                             
     1     34.0145650     23  1.500                                             
     2     -5.4423304      7  1.500                                             
  local pseudopotential read in
  partial core-charges read in
  partial kinetic energy density read in
  atomic valenz-charges read in
  non local Contribution for L=           0  read in
    real space projection operators read in
  non local Contribution for L=           0  read in
    real space projection operators read in
  non local Contribution for L=           1  read in
    real space projection operators read in
  non local Contribution for L=           1  read in
    real space projection operators read in
    PAW grid and wavefunctions read in
 
   number of l-projection  operators is LMAX  =           4
   number of lm-projection operators is LMMAX =           8
 
  PAW_PBE C 08Apr2002                   :
 energy of atom  1       EATOM= -147.1560
 kinetic energy error for atom=    0.0016 (will be added to EATOM!!)
 
 
 POSCAR: C2_bilayer                              
  positions in direct lattice
  No initial velocities read in
 exchange correlation table for  LEXCH =        8
   RHO(1)=    0.500       N(1)  =     2000
   RHO(2)=  100.500       N(2)  =     4000
 


--------------------------------------------------------------------------------------------------------


 ion  position               nearest neighbor table
   1  0.000  0.000  0.000-   2 1.42   2 1.42   2 1.42
   2  0.333  0.333  0.000-   1 1.42   1 1.42   1 1.42
   3  0.000  0.000  0.245-   4 1.42   4 1.42   4 1.42
   4  0.333  0.333  0.245-   3 1.42   3 1.42   3 1.42
 
  LATTYP: Found a hexagonal cell.
 ALAT       =     2.4595120000
 C/A-ratio  =     8.1316944174
  
  Lattice vectors:
  
 A1 = (   0.0000000000,  -2.4595120000,   0.0000000000)
 A2 = (  -2.1300000000,   1.2297560000,   0.0000000000)
 A3 = (   0.0000000000,   0.0000000000, -20.0000000000)


Analysis of symmetry for initial positions (statically):
=====================================================================
 Subroutine PRICEL returns:
 Original cell was already a primitive cell.
 

 Routine SETGRP: Setting up the symmetry group for a 
 hexagonal supercell.


 Subroutine GETGRP returns: Found 24 space group operations
 (whereof  6 operations were pure point group operations)
 out of a pool of 24 trial point group operations.


The static configuration has the point symmetry C_3v.
 The point group associated with its full space group is D_6h.


Analysis of symmetry for dynamics (positions and initial velocities):
=====================================================================
 Subroutine PRICEL returns:
 Original cell was already a primitive cell.
 

 Routine SETGRP: Setting up the symmetry group for a 
 hexagonal supercell.


 Subroutine GETGRP returns: Found 24 space group operations
 (whereof  6 operations were pure point group operations)
 out of a pool of 24 trial point group operations.


The dynamic configuration has the point symmetry C_3v.
 The point group associated with its full space group is D_6h.


 Subroutine INISYM returns: Found 24 space group operations
 (whereof  6 operations are pure point group operations),
 and found     1 'primitive' translations

 
 
 KPOINTS: k grid                                  

Automatic generation of k-mesh.
Space group operators:
 irot       det(A)        alpha          n_x          n_y          n_z        tau_x        tau_y        tau_z
    1     1.000000     0.000000     1.000000     0.000000     0.000000     0.000000     0.000000     0.000000
    2     1.000000   120.000000     0.000000     0.000000     1.000000     0.000000     0.000000     0.000000
    3     1.000000   120.000000     0.000000     0.000000    -1.000000     0.000000     0.000000     0.000000
    4    -1.000000   180.000000    -0.000000     1.000000     0.000000     0.000000     0.000000     0.000000
    5    -1.000000   180.000000     0.866025    -0.500000     0.000000     0.000000     0.000000     0.000000
    6    -1.000000   180.000000     0.866025     0.500000     0.000000     0.000000     0.000000     0.000000
    7    -1.000000     0.000000     1.000000     0.000000     0.000000     0.333333    -0.666667    -0.755000
    8     1.000000    60.000000     0.000000     0.000000     1.000000     0.333333    -0.666667     0.000000
    9    -1.000000    60.000000     0.000000     0.000000     1.000000    -0.000001    -0.000000    -0.755000
   10    -1.000000   120.000000     0.000000     0.000000     1.000000     0.333333    -0.666667    -0.755000
   11     1.000000   180.000000     0.000000     0.000000     1.000000     0.333333    -0.666667     0.000000
   12    -1.000000   180.000000     0.000000     0.000000     1.000000     0.000000     0.000000    -0.755000
   13    -1.000000   120.000000     0.000000     0.000000    -1.000000     0.333333    -0.666667    -0.755000
   14     1.000000    60.000000     0.000000     0.000000    -1.000000     0.333333    -0.666667     0.000000
   15    -1.000000    60.000000     0.000000     0.000000    -1.000000    -0.000000    -0.000001    -0.755000
   16     1.000000   180.000000    -0.000000     1.000000     0.000000     0.333333    -0.666667    -0.755000
   17     1.000000   180.000000     0.500000    -0.866025     0.000000    -0.000000    -0.000001    -0.755000
   18    -1.000000   180.000000     0.500000    -0.866025     0.000000     0.333333    -0.666667     0.000000
   19     1.000000   180.000000     0.866025    -0.500000     0.000000     0.333333    -0.666667    -0.755000
   20     1.000000   180.000000     1.000000     0.000000     0.000000     0.000000     0.000000    -0.755000
   21    -1.000000   180.000000     1.000000     0.000000     0.000000     0.333333    -0.666667     0.000000
   22     1.000000   180.000000     0.866025     0.500000     0.000000     0.333333    -0.666667    -0.755000
   23     1.000000   180.000000    -0.500000    -0.866025     0.000000    -0.000001    -0.000000    -0.755000
   24    -1.000000   180.000000    -0.500000    -0.866025     0.000000     0.333333    -0.666667     0.000000
 
 Subroutine IBZKPT returns following result:
 ===========================================
 
 Found     48 irreducible k-points:
 
 Following reciprocal coordinates:
            Coordinates               Weight
  0.000000  0.000000  0.000000      1.000000
  0.047619  0.000000  0.000000      6.000000
  0.095238  0.000000  0.000000      6.000000
  0.142857  0.000000  0.000000      6.000000
  0.190476  0.000000  0.000000      6.000000
  0.238095  0.000000  0.000000      6.000000
  0.285714  0.000000  0.000000      6.000000
  0.333333  0.000000  0.000000      6.000000
  0.380952  0.000000  0.000000      6.000000
  0.428571  0.000000  0.000000      6.000000
  0.476190  0.000000  0.000000      6.000000
  0.095238  0.047619  0.000000      6.000000
  0.142857  0.047619  0.000000     12.000000
  0.190476  0.047619  0.000000     12.000000
  0.238095  0.047619  0.000000     12.000000
  0.285714  0.047619  0.000000     12.000000
  0.333333  0.047619  0.000000     12.000000
  0.380952  0.047619  0.000000     12.000000
  0.428571  0.047619  0.000000     12.000000
  0.476190  0.047619  0.000000     12.000000
 -0.476190  0.047619  0.000000      6.000000
  0.190476  0.095238  0.000000      6.000000
  0.238095  0.095238  0.000000     12.000000
  0.285714  0.095238  0.000000     12.000000
  0.333333  0.095238  0.000000     12.000000
  0.380952  0.095238  0.000000     12.000000
  0.428571  0.095238  0.000000     12.000000
  0.476190  0.095238  0.000000     12.000000
 -0.476190  0.095238  0.000000     12.000000
  0.285714  0.142857  0.000000      6.000000
  0.333333  0.142857  0.000000     12.000000
  0.380952  0.142857  0.000000     12.000000
  0.428571  0.142857  0.000000     12.000000
  0.476190  0.142857  0.000000     12.000000
 -0.476190  0.142857  0.000000     12.000000
 -0.428571  0.142857  0.000000      6.000000
  0.380952  0.190476  0.000000      6.000000
  0.428571  0.190476  0.000000     12.000000
  0.476190  0.190476  0.000000     12.000000
 -0.476190  0.190476  0.000000     12.000000
 -0.428571  0.190476  0.000000     12.000000
  0.476190  0.238095  0.000000      6.000000
 -0.476190  0.238095  0.000000     12.000000
 -0.428571  0.238095  0.000000     12.000000
 -0.380952  0.238095  0.000000      6.000000
 -0.428571  0.285714  0.000000      6.000000
 -0.380952  0.285714  0.000000     12.000000
 -0.333333  0.333333  0.000000      2.000000
 
 Following cartesian coordinates:
            Coordinates               Weight
  0.000000  0.000000  0.000000      1.000000
  0.011178 -0.019361  0.000000      6.000000
  0.022356 -0.038722  0.000000      6.000000
  0.033535 -0.058084  0.000000      6.000000
  0.044713 -0.077445  0.000000      6.000000
  0.055891 -0.096806  0.000000      6.000000
  0.067069 -0.116167  0.000000      6.000000
  0.078247 -0.135528  0.000000      6.000000
  0.089425 -0.154889  0.000000      6.000000
  0.100604 -0.174251  0.000000      6.000000
  0.111782 -0.193612  0.000000      6.000000
  0.033535 -0.019361  0.000000      6.000000
  0.044713 -0.038722  0.000000     12.000000
  0.055891 -0.058084  0.000000     12.000000
  0.067069 -0.077445  0.000000     12.000000
  0.078247 -0.096806  0.000000     12.000000
  0.089425 -0.116167  0.000000     12.000000
  0.100604 -0.135528  0.000000     12.000000
  0.111782 -0.154889  0.000000     12.000000
  0.122960 -0.174251  0.000000     12.000000
 -0.100604  0.212973  0.000000      6.000000
  0.067069 -0.038722  0.000000      6.000000
  0.078247 -0.058084  0.000000     12.000000
  0.089425 -0.077445  0.000000     12.000000
  0.100604 -0.096806  0.000000     12.000000
  0.111782 -0.116167  0.000000     12.000000
  0.122960 -0.135528  0.000000     12.000000
  0.134138 -0.154889  0.000000     12.000000
 -0.089425  0.232334  0.000000     12.000000
  0.100604 -0.058084  0.000000      6.000000
  0.111782 -0.077445  0.000000     12.000000
  0.122960 -0.096806  0.000000     12.000000
  0.134138 -0.116167  0.000000     12.000000
  0.145316 -0.135528  0.000000     12.000000
 -0.078247  0.251695  0.000000     12.000000
 -0.067069  0.232334  0.000000      6.000000
  0.134138 -0.077445  0.000000      6.000000
  0.145316 -0.096806  0.000000     12.000000
  0.156495 -0.116167  0.000000     12.000000
 -0.067069  0.271056  0.000000     12.000000
 -0.055891  0.251695  0.000000     12.000000
  0.167673 -0.096806  0.000000      6.000000
 -0.055891  0.290418  0.000000     12.000000
 -0.044713  0.271056  0.000000     12.000000
 -0.033535  0.251695  0.000000      6.000000
 -0.033535  0.290418  0.000000      6.000000
 -0.022356  0.271056  0.000000     12.000000
  0.000000  0.271056  0.000000      2.000000
 


--------------------------------------------------------------------------------------------------------




 Dimension of arrays:
   k-points           NKPTS =     48   k-points in BZ     NKDIM =     48   number of bands    NBANDS=     12
   number of dos      NEDOS =    301   number of ions     NIONS =      4
   non local maximal  LDIM  =      4   non local SUM 2l+1 LMDIM =      8
   total plane-waves  NPLWV = 110592
   max r-space proj   IRMAX =      1   max aug-charges    IRDMAX=  99836
   dimension x,y,z NGX =    24 NGY =   24 NGZ =  192
   dimension x,y,z NGXF=    48 NGYF=   48 NGZF=  384
   support grid    NGXF=    96 NGYF=   96 NGZF=  768
   ions per type =               4
   NGX,Y,Z   is equivalent  to a cutoff of  16.22, 16.22, 15.96 a.u.
   NGXF,Y,Z  is equivalent  to a cutoff of  32.44, 32.44, 31.92 a.u.

 SYSTEM =  C:graphene                              
 POSCAR =  C2_bilayer                              

 Startparameter for this run:
   NWRITE =      2    write-flag & timer
   PREC   = accura    normal or accurate (medium, high low for compatibility)
   ISTART =      0    job   : 0-new  1-cont  2-samecut
   ICHARG =      2    charge: 1-file 2-atom 10-const
   ISPIN  =      1    spin polarized calculation?
   LNONCOLLINEAR =      F non collinear calculations
   LSORBIT =      F    spin-orbit coupling
   INIWAV =      1    electr: 0-lowe 1-rand  2-diag
   LASPH  =      F    aspherical Exc in radial PAW
   METAGGA=      F    non-selfconsistent MetaGGA calc.

 Electronic Relaxation 1
   ENCUT  =  800.0 eV  58.80 Ry    7.67 a.u.   5.67  5.67 46.12*2*pi/ulx,y,z
   ENINI  =  800.0     initial cutoff
   ENAUG  =  644.9 eV  augmentation charge cutoff
   NELM   =     60;   NELMIN=  5; NELMDL= -5     # of ELM steps 
   EDIFF  = 0.1E-07   stopping-criterion for ELM
   LREAL  =      F    real-space projection
   NLSPLINE    = F    spline interpolate recip. space projectors
   LCOMPAT=      F    compatible to vasp.4.4
   GGA_COMPAT  = T    GGA compatible to vasp.4.4-vasp.4.6
   LMAXPAW     = -100 max onsite density
   LMAXMIX     =    2 max onsite mixed and CHGCAR
   VOSKOWN=      0    Vosko Wilk Nusair interpolation
   ROPT   =    0.00000
 Ionic relaxation
   EDIFFG = 0.1E-06   stopping-criterion for IOM
   NSW    =      1    number of steps for IOM
   NBLOCK =      1;   KBLOCK =      1    inner block; outer block 
   IBRION =     -1    ionic relax: 0-MD 1-quasi-New 2-CG
   NFREE  =      0    steps in history (QN), initial steepest desc. (CG)
   ISIF   =      2    stress and relaxation
   IWAVPR =     10    prediction:  0-non 1-charg 2-wave 3-comb
   ISYM   =      2    0-nonsym 1-usesym 2-fastsym
   LCORR  =      T    Harris-Foulkes like correction to forces

   POTIM  = 0.5000    time-step for ionic-motion
   TEIN   =    0.0    initial temperature
   TEBEG  =    0.0;   TEEND  =   0.0 temperature during run
   SMASS  =  -3.00    Nose mass-parameter (am)
   estimated Nose-frequenzy (Omega)   =  0.10E-29 period in steps =****** mass=  -0.138E-27a.u.
   SCALEE = 1.0000    scale energy and forces
   NPACO  =    256;   APACO  = 16.0  distance and # of slots for P.C.
   PSTRESS=    0.0 pullay stress

  Mass of Ions in am
   POMASS =  12.01
  Ionic Valenz
   ZVAL   =   4.00
  Atomic Wigner-Seitz radii
   RWIGS  =  -1.00
  virtual crystal weights 
   VCA    =   1.00
   NELECT =      16.0000    total number of electrons
   NUPDOWN=      -1.0000    fix difference up-down

 DOS related values:
   EMIN   =  10.00;   EMAX   =-10.00  energy-range for DOS
   EFERMI =   0.00
   ISMEAR =     0;   SIGMA  =   0.01  broadening in eV -4-tet -1-fermi 0-gaus

 Electronic relaxation 2 (details)
   IALGO  =     38    algorithm
   LDIAG  =      T    sub-space diagonalisation (order eigenvalues)
   LSUBROT=      F    optimize rotation matrix (better conditioning)
   TURBO    =      0    0=normal 1=particle mesh
   IRESTART =      0    0=no restart 2=restart with 2 vectors
   NREBOOT  =      0    no. of reboots
   NMIN     =      0    reboot dimension
   EREF     =   0.00    reference energy to select bands
   IMIX   =      4    mixing-type and parameters
     AMIX     =   0.40;   BMIX     =  1.00
     AMIX_MAG =   1.60;   BMIX_MAG =  1.00
     AMIN     =   0.01
     WC   =   100.;   INIMIX=   1;  MIXPRE=   1;  MAXMIX= -45

 Intra band minimization:
   WEIMIN = 0.0000     energy-eigenvalue tresh-hold
   EBREAK =  0.21E-09  absolut break condition
   DEPER  =   0.30     relativ break condition  

   TIME   =   0.40     timestep for ELM

  volume/ion in A,a.u.               =      26.19       176.76
  Fermi-wavevector in a.u.,A,eV,Ry     =   0.875041  1.653589 10.417948  0.765698
  Thomas-Fermi vector in A             =   1.994657
 
 Write flags
   LWAVE        =      F    write WAVECAR
   LDOWNSAMPLE  =      F    k-point downsampling of WAVECAR
   LCHARG       =      T    write CHGCAR
   LVTOT        =      F    write LOCPOT, total local potential
   LVHAR        =      F    write LOCPOT, Hartree potential only
   LELF         =      F    write electronic localiz. function (ELF)
   LORBIT       =      0    0 simple, 1 ext, 2 COOP (PROOUT), +10 PAW based schemes


 Dipole corrections
   LMONO  =      F    monopole corrections only (constant potential shift)
   LDIPOL =      F    correct potential (dipole corrections)
   IDIPOL =      0    1-x, 2-y, 3-z, 4-all directions 
   EPSILON=  1.0000000 bulk dielectric constant

 Exchange correlation treatment:
   GGA     =    --    GGA type
   LEXCH   =     8    internal setting for exchange type
   VOSKOWN=      0    Vosko Wilk Nusair interpolation
   LHFCALC =     F    Hartree Fock is set to
   LHFONE  =     F    Hartree Fock one center treatment
   AEXX    =    0.0000 exact exchange contribution

 Linear response parameters
   LEPSILON=     F    determine dielectric tensor
   LRPA    =     F    only Hartree local field effects (RPA)
   LNABLA  =     F    use nabla operator in PAW spheres
   LVEL    =     F    velocity operator in full k-point grid
   LINTERFAST=   F  fast interpolation
   KINTER  =     0    interpolate to denser k-point grid
   CSHIFT  =0.1000    complex shift for real part using Kramers Kronig
   OMEGAMAX=  -1.0    maximum frequency
   DEG_THRESHOLD= 0.2000000E-02 threshold for treating states as degnerate
   RTIME   =   -0.100 relaxation time in fs
  (WPLASMAI=    0.000 imaginary part of plasma frequency in eV, 0.658/RTIME)
   DFIELD  = 0.0000000 0.0000000 0.0000000 field for delta impulse in time
 
 Orbital magnetization related:
   ORBITALMAG=     F  switch on orbital magnetization
   LCHIMAG   =     F  perturbation theory with respect to B field
   DQ        =  0.001000  dq finite difference perturbation B field
   LLRAUG    =     F  two centre corrections for induced B field



--------------------------------------------------------------------------------------------------------


 Static calculation
 charge density and potential will be updated during run
 non-spin polarized calculation
 Variant of blocked Davidson
 Davidson routine will perform the subspace rotation
 perform sub-space diagonalisation
    after iterative eigenvector-optimisation
 modified Broyden-mixing scheme, WC =      100.0
 initial mixing is a Kerker type mixing with AMIX =  0.4000 and BMIX =      1.0000
 Hartree-type preconditioning will be used
 using additional bands            4
 reciprocal scheme for non local part
 use partial core corrections
 calculate Harris-corrections to forces 
   (improved forces if not selfconsistent)
 use gradient corrections 
 use of overlap-Matrix (Vanderbilt PP)
 Gauss-broadening in eV      SIGMA  =   0.01


--------------------------------------------------------------------------------------------------------


  energy-cutoff  :      800.00
  volume of cell :      104.78
      direct lattice vectors                 reciprocal lattice vectors
     2.130000000 -1.229756000  0.000000000     0.234741784 -0.406584721  0.000000000
     2.130000000  1.229756000  0.000000000     0.234741784  0.406584721  0.000000000
     0.000000000  0.000000000 20.000000000     0.000000000  0.000000000  0.050000000

  length of vectors
     2.459512110  2.459512110 20.000000000     0.469483589  0.469483589  0.050000000


 
 k-points in units of 2pi/SCALE and weight: k grid                                  
   0.00000000  0.00000000  0.00000000       0.002
   0.01117818 -0.01936118  0.00000000       0.014
   0.02235636 -0.03872235  0.00000000       0.014
   0.03353454 -0.05808353  0.00000000       0.014
   0.04471272 -0.07744471  0.00000000       0.014
   0.05589090 -0.09680589  0.00000000       0.014
   0.06706908 -0.11616706  0.00000000       0.014
   0.07824726 -0.13552824  0.00000000       0.014
   0.08942544 -0.15488942  0.00000000       0.014
   0.10060362 -0.17425059  0.00000000       0.014
   0.11178180 -0.19361177  0.00000000       0.014
   0.03353454 -0.01936118  0.00000000       0.014
   0.04471272 -0.03872235  0.00000000       0.027
   0.05589090 -0.05808353  0.00000000       0.027
   0.06706908 -0.07744471  0.00000000       0.027
   0.07824726 -0.09680589  0.00000000       0.027
   0.08942544 -0.11616706  0.00000000       0.027
   0.10060362 -0.13552824  0.00000000       0.027
   0.11178180 -0.15488942  0.00000000       0.027
   0.12295998 -0.17425059  0.00000000       0.027
  -0.10060362  0.21297295  0.00000000       0.014
   0.06706908 -0.03872235  0.00000000       0.014
   0.07824726 -0.05808353  0.00000000       0.027
   0.08942544 -0.07744471  0.00000000       0.027
   0.10060362 -0.09680589  0.00000000       0.027
   0.11178180 -0.11616706  0.00000000       0.027
   0.12295998 -0.13552824  0.00000000       0.027
   0.13413816 -0.15488942  0.00000000       0.027
  -0.08942544  0.23233413  0.00000000       0.027
   0.10060362 -0.05808353  0.00000000       0.014
   0.11178180 -0.07744471  0.00000000       0.027
   0.12295998 -0.09680589  0.00000000       0.027
   0.13413816 -0.11616706  0.00000000       0.027
   0.14531634 -0.13552824  0.00000000       0.027
  -0.07824726  0.25169530  0.00000000       0.027
  -0.06706908  0.23233413  0.00000000       0.014
   0.13413816 -0.07744471  0.00000000       0.014
   0.14531634 -0.09680589  0.00000000       0.027
   0.15649452 -0.11616706  0.00000000       0.027
  -0.06706908  0.27105648  0.00000000       0.027
  -0.05589090  0.25169530  0.00000000       0.027
   0.16767270 -0.09680589  0.00000000       0.014
  -0.05589090  0.29041766  0.00000000       0.027
  -0.04471272  0.27105648  0.00000000       0.027
  -0.03353454  0.25169530  0.00000000       0.014
  -0.03353454  0.29041766  0.00000000       0.014
  -0.02235636  0.27105648  0.00000000       0.027
   0.00000000  0.27105648  0.00000000       0.005
 
 k-points in reciprocal lattice and weights: k grid                                  
   0.00000000  0.00000000  0.00000000       0.002
   0.04761905  0.00000000  0.00000000       0.014
   0.09523810  0.00000000  0.00000000       0.014
   0.14285714  0.00000000  0.00000000       0.014
   0.19047619  0.00000000  0.00000000       0.014
   0.23809524  0.00000000  0.00000000       0.014
   0.28571429  0.00000000  0.00000000       0.014
   0.33333333  0.00000000  0.00000000       0.014
   0.38095238  0.00000000  0.00000000       0.014
   0.42857143  0.00000000  0.00000000       0.014
   0.47619048  0.00000000  0.00000000       0.014
   0.09523810  0.04761905  0.00000000       0.014
   0.14285714  0.04761905  0.00000000       0.027
   0.19047619  0.04761905  0.00000000       0.027
   0.23809524  0.04761905  0.00000000       0.027
   0.28571429  0.04761905  0.00000000       0.027
   0.33333333  0.04761905  0.00000000       0.027
   0.38095238  0.04761905  0.00000000       0.027
   0.42857143  0.04761905  0.00000000       0.027
   0.47619048  0.04761905  0.00000000       0.027
  -0.47619048  0.04761905  0.00000000       0.014
   0.19047619  0.09523810  0.00000000       0.014
   0.23809524  0.09523810  0.00000000       0.027
   0.28571429  0.09523810  0.00000000       0.027
   0.33333333  0.09523810  0.00000000       0.027
   0.38095238  0.09523810  0.00000000       0.027
   0.42857143  0.09523810  0.00000000       0.027
   0.47619048  0.09523810  0.00000000       0.027
  -0.47619048  0.09523810  0.00000000       0.027
   0.28571429  0.14285714  0.00000000       0.014
   0.33333333  0.14285714  0.00000000       0.027
   0.38095238  0.14285714  0.00000000       0.027
   0.42857143  0.14285714  0.00000000       0.027
   0.47619048  0.14285714  0.00000000       0.027
  -0.47619048  0.14285714  0.00000000       0.027
  -0.42857143  0.14285714  0.00000000       0.014
   0.38095238  0.19047619  0.00000000       0.014
   0.42857143  0.19047619  0.00000000       0.027
   0.47619048  0.19047619  0.00000000       0.027
  -0.47619048  0.19047619  0.00000000       0.027
  -0.42857143  0.19047619  0.00000000       0.027
   0.47619048  0.23809524  0.00000000       0.014
  -0.47619048  0.23809524  0.00000000       0.027
  -0.42857143  0.23809524  0.00000000       0.027
  -0.38095238  0.23809524  0.00000000       0.014
  -0.42857143  0.28571429  0.00000000       0.014
  -0.38095238  0.28571429  0.00000000       0.027
  -0.33333333  0.33333333  0.00000000       0.005
 
 position of ions in fractional coordinates (direct lattice) 
   0.00000000  0.00000000  0.00000000
   0.33333300  0.33333300  0.00000000
   0.00000000  0.00000000  0.24500000
   0.33333300  0.33333300  0.24500000
 
 position of ions in cartesian coordinates  (Angst):
   0.00000000  0.00000000  0.00000000
   1.41999858  0.00000000  0.00000000
   0.00000000  0.00000000  4.90000000
   1.41999858  0.00000000  4.90000000
 


--------------------------------------------------------------------------------------------------------


 k-point  1 :   0.0000 0.0000 0.0000  plane waves:    5409
 k-point  2 :   0.0476 0.0000 0.0000  plane waves:    5413
 k-point  3 :   0.0952 0.0000 0.0000  plane waves:    5402
 k-point  4 :   0.1429 0.0000 0.0000  plane waves:    5398
 k-point  5 :   0.1905 0.0000 0.0000  plane waves:    5404
 k-point  6 :   0.2381 0.0000 0.0000  plane waves:    5408
 k-point  7 :   0.2857 0.0000 0.0000  plane waves:    5404
 k-point  8 :   0.3333 0.0000 0.0000  plane waves:    5394
 k-point  9 :   0.3810 0.0000 0.0000  plane waves:    5382
 k-point 10 :   0.4286 0.0000 0.0000  plane waves:    5396
 k-point 11 :   0.4762 0.0000 0.0000  plane waves:    5380
 k-point 12 :   0.0952 0.0476 0.0000  plane waves:    5411
 k-point 13 :   0.1429 0.0476 0.0000  plane waves:    5415
 k-point 14 :   0.1905 0.0476 0.0000  plane waves:    5413
 k-point 15 :   0.2381 0.0476 0.0000  plane waves:    5399
 k-point 16 :   0.2857 0.0476 0.0000  plane waves:    5396
 k-point 17 :   0.3333 0.0476 0.0000  plane waves:    5389
 k-point 18 :   0.3810 0.0476 0.0000  plane waves:    5378
 k-point 19 :   0.4286 0.0476 0.0000  plane waves:    5381
 k-point 20 :   0.4762 0.0476 0.0000  plane waves:    5391
 k-point 21 :  -0.4762 0.0476 0.0000  plane waves:    5394
 k-point 22 :   0.1905 0.0952 0.0000  plane waves:    5403
 k-point 23 :   0.2381 0.0952 0.0000  plane waves:    5409
 k-point 24 :   0.2857 0.0952 0.0000  plane waves:    5419
 k-point 25 :   0.3333 0.0952 0.0000  plane waves:    5384
 k-point 26 :   0.3810 0.0952 0.0000  plane waves:    5369
 k-point 27 :   0.4286 0.0952 0.0000  plane waves:    5364
 k-point 28 :   0.4762 0.0952 0.0000  plane waves:    5382
 k-point 29 :  -0.4762 0.0952 0.0000  plane waves:    5404
 k-point 30 :   0.2857 0.1429 0.0000  plane waves:    5405
 k-point 31 :   0.3333 0.1429 0.0000  plane waves:    5404
 k-point 32 :   0.3810 0.1429 0.0000  plane waves:    5382
 k-point 33 :   0.4286 0.1429 0.0000  plane waves:    5347
 k-point 34 :   0.4762 0.1429 0.0000  plane waves:    5367
 k-point 35 :  -0.4762 0.1429 0.0000  plane waves:    5376
 k-point 36 :  -0.4286 0.1429 0.0000  plane waves:    5400
 k-point 37 :   0.3810 0.1905 0.0000  plane waves:    5390
 k-point 38 :   0.4286 0.1905 0.0000  plane waves:    5358
 k-point 39 :   0.4762 0.1905 0.0000  plane waves:    5365
 k-point 40 :  -0.4762 0.1905 0.0000  plane waves:    5363
 k-point 41 :  -0.4286 0.1905 0.0000  plane waves:    5377
 k-point 42 :   0.4762 0.2381 0.0000  plane waves:    5364
 k-point 43 :  -0.4762 0.2381 0.0000  plane waves:    5368
 k-point 44 :  -0.4286 0.2381 0.0000  plane waves:    5360
 k-point 45 :  -0.3810 0.2381 0.0000  plane waves:    5366
 k-point 46 :  -0.4286 0.2857 0.0000  plane waves:    5362
 k-point 47 :  -0.3810 0.2857 0.0000  plane waves:    5326
 k-point 48 :  -0.3333 0.3333 0.0000  plane waves:    5334

 maximum and minimum number of plane-waves per node :      5419     5326

 maximum number of plane-waves:      5419
 maximum index in each direction: 
   IXMAX=    6   IYMAX=    5   IZMAX=   46
   IXMIN=   -6   IYMIN=   -5   IZMIN=  -46


 serial   3D FFT for wavefunctions
 parallel 3D FFT for charge:
    minimum data exchange during FFTs selected (reduces bandwidth)


 total amount of memory used by VASP MPI-rank0   107376. kBytes
=======================================================================

   base      :      30000. kBytes
   nonl-proj :      16997. kBytes
   fftplans  :      32720. kBytes
   grid      :      15086. kBytes
   one-center:         12. kBytes
   wavefun   :      12561. kBytes
 
     INWAV:  cpu time    0.0000: real time    0.0001
 Broyden mixing: mesh for mixing (old mesh)
   NGX = 11   NGY = 11   NGZ = 93
  (NGX  = 48   NGY  = 48   NGZ  =384)
  gives a total of  11253 points

 initial charge density was supplied:
 charge density of overlapping atoms calculated
 number of electron      16.0000000 magnetization 
 keeping initial charge density in first step


--------------------------------------------------------------------------------------------------------


 Maximum index for augmentation-charges        24140 (set IRDMAX)


--------------------------------------------------------------------------------------------------------


 First call to EWALD:  gamma=   0.376
 Maximum number of real-space cells 5x 5x 1
 Maximum number of reciprocal cells 2x 2x10

    FEWALD:  cpu time    0.0011: real time    0.0011


--------------------------------------- Iteration      1(   1)  ---------------------------------------


    POTLOK:  cpu time    0.0849: real time    0.1022
    SETDIJ:  cpu time    0.0397: real time    0.0399
     EDDAV:  cpu time    1.4553: real time    1.4604
       DOS:  cpu time    0.0004: real time    0.0004
    --------------------------------------------
      LOOP:  cpu time    1.5804: real time    1.6029

 eigenvalue-minimisations  :  1152
 total energy-change (2. order) : 0.1247727E+03  (-0.8019710E+03)
 number of electron      16.0000000 magnetization 
 augmentation part       16.0000000 magnetization 

 Free energy of the ion-electron system (eV)
  ---------------------------------------------------
  alpha Z        PSCENC =        12.54445055
  Ewald energy   TEWEN  =      2201.33591326
  -Hartree energ DENC   =     -2663.10114529
  -exchange      EXHF   =         0.00000000
  -V(xc)+E(xc)   XCENC  =        52.79604539
  PAW double counting   =       434.08818552     -436.36580876
  entropy T*S    EENTRO =        -0.00013284
  eigenvalues    EBANDS =       -65.14253761
  atomic energy  EATOM  =       588.61769381
  Solvation  Ediel_sol  =         0.00000000
  ---------------------------------------------------
  free energy    TOTEN  =       124.77266404 eV

  energy without entropy =      124.77279687  energy(sigma->0) =      124.77273046


--------------------------------------------------------------------------------------------------------




--------------------------------------- Iteration      1(   2)  ---------------------------------------


     EDDAV:  cpu time    2.0659: real time    2.0723
       DOS:  cpu time    0.0004: real time    0.0004
    --------------------------------------------
      LOOP:  cpu time    2.0663: real time    2.0727

 eigenvalue-minimisations  :  1900
 total energy-change (2. order) :-0.1504746E+03  (-0.1365015E+03)
 number of electron      16.0000000 magnetization 
 augmentation part       16.0000000 magnetization 

 Free energy of the ion-electron system (eV)
  ---------------------------------------------------
  alpha Z        PSCENC =        12.54445055
  Ewald energy   TEWEN  =      2201.33591326
  -Hartree energ DENC   =     -2663.10114529
  -exchange      EXHF   =         0.00000000
  -V(xc)+E(xc)   XCENC  =        52.79604539
  PAW double counting   =       434.08818552     -436.36580876
  entropy T*S    EENTRO =        -0.00002559
  eigenvalues    EBANDS =      -215.61729224
  atomic energy  EATOM  =       588.61769381
  Solvation  Ediel_sol  =         0.00000000
  ---------------------------------------------------
  free energy    TOTEN  =       -25.70198335 eV

  energy without entropy =      -25.70195776  energy(sigma->0) =      -25.70197055


--------------------------------------------------------------------------------------------------------




--------------------------------------- Iteration      1(   3)  ---------------------------------------


     EDDAV:  cpu time    1.6780: real time    1.6836
       DOS:  cpu time    0.0004: real time    0.0004
    --------------------------------------------
      LOOP:  cpu time    1.6784: real time    1.6839

 eigenvalue-minimisations  :  1452
 total energy-change (2. order) :-0.1352579E+02  (-0.1342199E+02)
 number of electron      16.0000000 magnetization 
 augmentation part       16.0000000 magnetization 

 Free energy of the ion-electron system (eV)
  ---------------------------------------------------
  alpha Z        PSCENC =        12.54445055
  Ewald energy   TEWEN  =      2201.33591326
  -Hartree energ DENC   =     -2663.10114529
  -exchange      EXHF   =         0.00000000
  -V(xc)+E(xc)   XCENC  =        52.79604539
  PAW double counting   =       434.08818552     -436.36580876
  entropy T*S    EENTRO =        -0.00005018
  eigenvalues    EBANDS =      -229.14306029
  atomic energy  EATOM  =       588.61769381
  Solvation  Ediel_sol  =         0.00000000
  ---------------------------------------------------
  free energy    TOTEN  =       -39.22777599 eV

  energy without entropy =      -39.22772581  energy(sigma->0) =      -39.22775090


--------------------------------------------------------------------------------------------------------




--------------------------------------- Iteration      1(   4)  ---------------------------------------


     EDDAV:  cpu time    1.7194: real time    1.7248
       DOS:  cpu time    0.0004: real time    0.0004
    --------------------------------------------
      LOOP:  cpu time    1.7198: real time    1.7252

 eigenvalue-minimisations  :  1488
 total energy-change (2. order) :-0.2947248E+00  (-0.2939803E+00)
 number of electron      16.0000000 magnetization 
 augmentation part       16.0000000 magnetization 

 Free energy of the ion-electron system (eV)
  ---------------------------------------------------
  alpha Z        PSCENC =        12.54445055
  Ewald energy   TEWEN  =      2201.33591326
  -Hartree energ DENC   =     -2663.10114529
  -exchange      EXHF   =         0.00000000
  -V(xc)+E(xc)   XCENC  =        52.79604539
  PAW double counting   =       434.08818552     -436.36580876
  entropy T*S    EENTRO =        -0.00003453
  eigenvalues    EBANDS =      -229.43780077
  atomic energy  EATOM  =       588.61769381
  Solvation  Ediel_sol  =         0.00000000
  ---------------------------------------------------
  free energy    TOTEN  =       -39.52250081 eV

  energy without entropy =      -39.52246629  energy(sigma->0) =      -39.52248355


--------------------------------------------------------------------------------------------------------




--------------------------------------- Iteration      1(   5)  ---------------------------------------


     EDDAV:  cpu time    1.6910: real time    1.6961
       DOS:  cpu time    0.0004: real time    0.0004
    CHARGE:  cpu time    0.1882: real time    0.1886
    MIXING:  cpu time    0.0025: real time    0.0025
    --------------------------------------------
      LOOP:  cpu time    1.8820: real time    1.8876

 eigenvalue-minimisations  :  1464
 total energy-change (2. order) :-0.8984245E-02  (-0.8974250E-02)
 number of electron      16.0000000 magnetization 
 augmentation part        0.4283112 magnetization 

 Broyden mixing:
  rms(total) = 0.90183E+00    rms(broyden)= 0.90182E+00
  rms(prec ) = 0.96445E+00
  weight for this iteration     100.00

 Free energy of the ion-electron system (eV)
  ---------------------------------------------------
  alpha Z        PSCENC =        12.54445055
  Ewald energy   TEWEN  =      2201.33591326
  -Hartree energ DENC   =     -2663.10114529
  -exchange      EXHF   =         0.00000000
  -V(xc)+E(xc)   XCENC  =        52.79604539
  PAW double counting   =       434.08818552     -436.36580876
  entropy T*S    EENTRO =        -0.00003406
  eigenvalues    EBANDS =      -229.44678549
  atomic energy  EATOM  =       588.61769381
  Solvation  Ediel_sol  =         0.00000000
  ---------------------------------------------------
  free energy    TOTEN  =       -39.53148506 eV

  energy without entropy =      -39.53145100  energy(sigma->0) =      -39.53146803


--------------------------------------------------------------------------------------------------------




--------------------------------------- Iteration      1(   6)  ---------------------------------------


    POTLOK:  cpu time    0.0744: real time    0.0747
    SETDIJ:  cpu time    0.0364: real time    0.0366
     EDDAV:  cpu time    1.6175: real time    1.6228
       DOS:  cpu time    0.0004: real time    0.0004
    CHARGE:  cpu time    0.1875: real time    0.1879
    MIXING:  cpu time    0.0027: real time    0.0027
    --------------------------------------------
      LOOP:  cpu time    1.9189: real time    1.9251

 eigenvalue-minimisations  :  1384
 total energy-change (2. order) : 0.1881145E+01  (-0.1719445E+00)
 number of electron      16.0000000 magnetization 
 augmentation part        0.4095610 magnetization 

 Broyden mixing:
  rms(total) = 0.52957E+00    rms(broyden)= 0.52957E+00
  rms(prec ) = 0.56067E+00
  weight for this iteration     100.00

 eigenvalues of (default mixing * dielectric matrix)
  average eigenvalue GAMMA=   2.2060
  2.2060

 Free energy of the ion-electron system (eV)
  ---------------------------------------------------
  alpha Z        PSCENC =        12.54445055
  Ewald energy   TEWEN  =      2201.33591326
  -Hartree energ DENC   =     -2683.92492957
  -exchange      EXHF   =         0.00000000
  -V(xc)+E(xc)   XCENC  =        53.78006141
  PAW double counting   =       803.44044068     -806.01730907
  entropy T*S    EENTRO =        -0.00001276
  eigenvalues    EBANDS =      -207.42664851
  atomic energy  EATOM  =       588.61769381
  Solvation  Ediel_sol  =         0.00000000
  ---------------------------------------------------
  free energy    TOTEN  =       -37.65034020 eV

  energy without entropy =      -37.65032744  energy(sigma->0) =      -37.65033382


--------------------------------------------------------------------------------------------------------




--------------------------------------- Iteration      1(   7)  ---------------------------------------


    POTLOK:  cpu time    0.0727: real time    0.0730
    SETDIJ:  cpu time    0.0358: real time    0.0360
     EDDAV:  cpu time    1.6529: real time    1.6582
       DOS:  cpu time    0.0003: real time    0.0003
    CHARGE:  cpu time    0.1814: real time    0.1819
    MIXING:  cpu time    0.0028: real time    0.0028
    --------------------------------------------
      LOOP:  cpu time    1.9460: real time    1.9523

 eigenvalue-minimisations  :  1420
 total energy-change (2. order) : 0.7111571E+00  (-0.2328053E+00)
 number of electron      16.0000000 magnetization 
 augmentation part        0.3871503 magnetization 

 Broyden mixing:
  rms(total) = 0.13804E+00    rms(broyden)= 0.13804E+00
  rms(prec ) = 0.14280E+00
  weight for this iteration     100.00

 eigenvalues of (default mixing * dielectric matrix)
  average eigenvalue GAMMA=   2.2824
  2.2678  2.2970

 Free energy of the ion-electron system (eV)
  ---------------------------------------------------
  alpha Z        PSCENC =        12.54445055
  Ewald energy   TEWEN  =      2201.33591326
  -Hartree energ DENC   =     -2711.17625568
  -exchange      EXHF   =         0.00000000
  -V(xc)+E(xc)   XCENC  =        55.08801620
  PAW double counting   =      1523.37298004    -1526.21560329
  entropy T*S    EENTRO =        -0.00000133
  eigenvalues    EBANDS =      -180.50637662
  atomic energy  EATOM  =       588.61769381
  Solvation  Ediel_sol  =         0.00000000
  ---------------------------------------------------
  free energy    TOTEN  =       -36.93918307 eV

  energy without entropy =      -36.93918174  energy(sigma->0) =      -36.93918241


--------------------------------------------------------------------------------------------------------




--------------------------------------- Iteration      1(   8)  ---------------------------------------


    POTLOK:  cpu time    0.0729: real time    0.0731
    SETDIJ:  cpu time    0.0369: real time    0.0370
     EDDAV:  cpu time    1.6706: real time    1.6756
       DOS:  cpu time    0.0003: real time    0.0003
    CHARGE:  cpu time    0.1812: real time    0.1816
    MIXING:  cpu time    0.0028: real time    0.0028
    --------------------------------------------
      LOOP:  cpu time    1.9646: real time    1.9704

 eigenvalue-minimisations  :  1408
 total energy-change (2. order) : 0.5127993E-05  (-0.6732822E-02)
 number of electron      16.0000000 magnetization 
 augmentation part        0.3859741 magnetization 

 Broyden mixing:
  rms(total) = 0.13485E-01    rms(broyden)= 0.13485E-01
  rms(prec ) = 0.26189E-01
  weight for this iteration     100.00

 eigenvalues of (default mixing * dielectric matrix)
  average eigenvalue GAMMA=   1.7909
  0.9168  2.2279  2.2279

 Free energy of the ion-electron system (eV)
  ---------------------------------------------------
  alpha Z        PSCENC =        12.54445055
  Ewald energy   TEWEN  =      2201.33591326
  -Hartree energ DENC   =     -2713.19069280
  -exchange      EXHF   =         0.00000000
  -V(xc)+E(xc)   XCENC  =        55.08736360
  PAW double counting   =      1709.42251534    -1712.14703093
  entropy T*S    EENTRO =        -0.00000165
  eigenvalues    EBANDS =      -178.60938912
  atomic energy  EATOM  =       588.61769381
  Solvation  Ediel_sol  =         0.00000000
  ---------------------------------------------------
  free energy    TOTEN  =       -36.93917794 eV

  energy without entropy =      -36.93917629  energy(sigma->0) =      -36.93917712


--------------------------------------------------------------------------------------------------------




--------------------------------------- Iteration      1(   9)  ---------------------------------------


    POTLOK:  cpu time    0.0752: real time    0.0805
    SETDIJ:  cpu time    0.0372: real time    0.0373
     EDDAV:  cpu time    1.7653: real time    1.7706
       DOS:  cpu time    0.0003: real time    0.0003
    CHARGE:  cpu time    0.1827: real time    0.1831
    MIXING:  cpu time    0.0028: real time    0.0028
    --------------------------------------------
      LOOP:  cpu time    2.0635: real time    2.0746

 eigenvalue-minimisations  :  1524
 total energy-change (2. order) : 0.1309792E-02  (-0.1986710E-03)
 number of electron      16.0000000 magnetization 
 augmentation part        0.3855186 magnetization 

 Broyden mixing:
  rms(total) = 0.93334E-02    rms(broyden)= 0.93333E-02
  rms(prec ) = 0.22828E-01
  weight for this iteration     100.00

 eigenvalues of (default mixing * dielectric matrix)
  average eigenvalue GAMMA=   2.2012
  1.0139  1.9526  3.0115  2.8268

 Free energy of the ion-electron system (eV)
  ---------------------------------------------------
  alpha Z        PSCENC =        12.54445055
  Ewald energy   TEWEN  =      2201.33591326
  -Hartree energ DENC   =     -2714.14748129
  -exchange      EXHF   =         0.00000000
  -V(xc)+E(xc)   XCENC  =        55.11205628
  PAW double counting   =      1703.99251191    -1706.72189334
  entropy T*S    EENTRO =        -0.00000159
  eigenvalues    EBANDS =      -177.67111773
  atomic energy  EATOM  =       588.61769381
  Solvation  Ediel_sol  =         0.00000000
  ---------------------------------------------------
  free energy    TOTEN  =       -36.93786815 eV

  energy without entropy =      -36.93786657  energy(sigma->0) =      -36.93786736


--------------------------------------------------------------------------------------------------------




--------------------------------------- Iteration      1(  10)  ---------------------------------------


    POTLOK:  cpu time    0.0727: real time    0.0729
    SETDIJ:  cpu time    0.0389: real time    0.0390
     EDDAV:  cpu time    1.5814: real time    1.5861
       DOS:  cpu time    0.0003: real time    0.0003
    CHARGE:  cpu time    0.1765: real time    0.1769
    MIXING:  cpu time    0.0029: real time    0.0029
    --------------------------------------------
      LOOP:  cpu time    1.8727: real time    1.8782

 eigenvalue-minimisations  :  1312
 total energy-change (2. order) : 0.4715901E-02  (-0.3657872E-03)
 number of electron      16.0000000 magnetization 
 augmentation part        0.3850036 magnetization 

 Broyden mixing:
  rms(total) = 0.83548E-02    rms(broyden)= 0.83548E-02
  rms(prec ) = 0.17176E-01
  weight for this iteration     100.00

 eigenvalues of (default mixing * dielectric matrix)
  average eigenvalue GAMMA=   1.9038
  3.2503  2.4878  1.9983  0.9791  0.8034

 Free energy of the ion-electron system (eV)
  ---------------------------------------------------
  alpha Z        PSCENC =        12.54445055
  Ewald energy   TEWEN  =      2201.33591326
  -Hartree energ DENC   =     -2718.11210797
  -exchange      EXHF   =         0.00000000
  -V(xc)+E(xc)   XCENC  =        55.17499281
  PAW double counting   =      1685.94870216    -1688.66978051
  entropy T*S    EENTRO =        -0.00000132
  eigenvalues    EBANDS =      -173.77301504
  atomic energy  EATOM  =       588.61769381
  Solvation  Ediel_sol  =         0.00000000
  ---------------------------------------------------
  free energy    TOTEN  =       -36.93315225 eV

  energy without entropy =      -36.93315093  energy(sigma->0) =      -36.93315159


--------------------------------------------------------------------------------------------------------




--------------------------------------- Iteration      1(  11)  ---------------------------------------


    POTLOK:  cpu time    0.0717: real time    0.0743
    SETDIJ:  cpu time    0.0349: real time    0.0350
     EDDAV:  cpu time    1.6242: real time    1.6290
       DOS:  cpu time    0.0003: real time    0.0003
    CHARGE:  cpu time    0.1782: real time    0.1786
    MIXING:  cpu time    0.0046: real time    0.0046
    --------------------------------------------
      LOOP:  cpu time    1.9138: real time    1.9217

 eigenvalue-minimisations  :  1388
 total energy-change (2. order) : 0.1033736E-02  (-0.5458049E-04)
 number of electron      16.0000000 magnetization 
 augmentation part        0.3846947 magnetization 

 Broyden mixing:
  rms(total) = 0.70293E-02    rms(broyden)= 0.70293E-02
  rms(prec ) = 0.14920E-01
  weight for this iteration     100.00

 eigenvalues of (default mixing * dielectric matrix)
  average eigenvalue GAMMA=   2.3130
  4.6570  2.8804  2.2324  2.0777  1.0152  1.0152

 Free energy of the ion-electron system (eV)
  ---------------------------------------------------
  alpha Z        PSCENC =        12.54445055
  Ewald energy   TEWEN  =      2201.33591326
  -Hartree energ DENC   =     -2719.26704720
  -exchange      EXHF   =         0.00000000
  -V(xc)+E(xc)   XCENC  =        55.18909898
  PAW double counting   =      1708.62554301    -1711.34834636
  entropy T*S    EENTRO =        -0.00000134
  eigenvalues    EBANDS =      -172.62942321
  atomic energy  EATOM  =       588.61769381
  Solvation  Ediel_sol  =         0.00000000
  ---------------------------------------------------
  free energy    TOTEN  =       -36.93211851 eV

  energy without entropy =      -36.93211717  energy(sigma->0) =      -36.93211784


--------------------------------------------------------------------------------------------------------




--------------------------------------- Iteration      1(  12)  ---------------------------------------


    POTLOK:  cpu time    0.0687: real time    0.0691
    SETDIJ:  cpu time    0.0354: real time    0.0355
     EDDAV:  cpu time    1.4977: real time    1.5022
       DOS:  cpu time    0.0003: real time    0.0003
    CHARGE:  cpu time    0.1824: real time    0.1828
    MIXING:  cpu time    0.0030: real time    0.0030
    --------------------------------------------
      LOOP:  cpu time    1.7875: real time    1.7931

 eigenvalue-minimisations  :  1216
 total energy-change (2. order) : 0.4250215E-02  (-0.2183359E-03)
 number of electron      16.0000000 magnetization 
 augmentation part        0.3847400 magnetization 

 Broyden mixing:
  rms(total) = 0.43947E-02    rms(broyden)= 0.43947E-02
  rms(prec ) = 0.81670E-02
  weight for this iteration     100.00

 eigenvalues of (default mixing * dielectric matrix)
  average eigenvalue GAMMA=   2.2034
  4.6448  2.9666  2.3572  2.0827  1.3400  1.0164  1.0164

 Free energy of the ion-electron system (eV)
  ---------------------------------------------------
  alpha Z        PSCENC =        12.54445055
  Ewald energy   TEWEN  =      2201.33591326
  -Hartree energ DENC   =     -2722.75416660
  -exchange      EXHF   =         0.00000000
  -V(xc)+E(xc)   XCENC  =        55.18307789
  PAW double counting   =      1696.86111962    -1699.58705909
  entropy T*S    EENTRO =        -0.00000160
  eigenvalues    EBANDS =      -169.12889613
  atomic energy  EATOM  =       588.61769381
  Solvation  Ediel_sol  =         0.00000000
  ---------------------------------------------------
  free energy    TOTEN  =       -36.92786830 eV

  energy without entropy =      -36.92786670  energy(sigma->0) =      -36.92786750


--------------------------------------------------------------------------------------------------------




--------------------------------------- Iteration      1(  13)  ---------------------------------------


    POTLOK:  cpu time    0.0679: real time    0.0682
    SETDIJ:  cpu time    0.0350: real time    0.0351
     EDDAV:  cpu time    1.5849: real time    1.5898
       DOS:  cpu time    0.0003: real time    0.0003
    CHARGE:  cpu time    0.1791: real time    0.1795
    MIXING:  cpu time    0.0032: real time    0.0032
    --------------------------------------------
      LOOP:  cpu time    1.8703: real time    1.8760

 eigenvalue-minimisations  :  1332
 total energy-change (2. order) :-0.1365583E-03  (-0.1299713E-04)
 number of electron      16.0000000 magnetization 
 augmentation part        0.3847236 magnetization 

 Broyden mixing:
  rms(total) = 0.42658E-02    rms(broyden)= 0.42658E-02
  rms(prec ) = 0.66196E-02
  weight for this iteration     100.00

 eigenvalues of (default mixing * dielectric matrix)
  average eigenvalue GAMMA=   2.7837
  8.8019  3.5345  2.6323  2.2535  2.0666  1.0406  0.9940  0.9461

 Free energy of the ion-electron system (eV)
  ---------------------------------------------------
  alpha Z        PSCENC =        12.54445055
  Ewald energy   TEWEN  =      2201.33591326
  -Hartree energ DENC   =     -2723.84461350
  -exchange      EXHF   =         0.00000000
  -V(xc)+E(xc)   XCENC  =        55.18525014
  PAW double counting   =      1700.98366272    -1703.70709137
  entropy T*S    EENTRO =        -0.00000166
  eigenvalues    EBANDS =      -168.04326880
  atomic energy  EATOM  =       588.61769381
  Solvation  Ediel_sol  =         0.00000000
  ---------------------------------------------------
  free energy    TOTEN  =       -36.92800486 eV

  energy without entropy =      -36.92800319  energy(sigma->0) =      -36.92800402


--------------------------------------------------------------------------------------------------------




--------------------------------------- Iteration      1(  14)  ---------------------------------------


    POTLOK:  cpu time    0.0661: real time    0.0663
    SETDIJ:  cpu time    0.0351: real time    0.0352
     EDDAV:  cpu time    1.5282: real time    1.5330
       DOS:  cpu time    0.0003: real time    0.0003
    CHARGE:  cpu time    0.1785: real time    0.1789
    MIXING:  cpu time    0.0033: real time    0.0033
    --------------------------------------------
      LOOP:  cpu time    1.8116: real time    1.8171

 eigenvalue-minimisations  :  1260
 total energy-change (2. order) :-0.1020580E-02  (-0.1799816E-04)
 number of electron      16.0000000 magnetization 
 augmentation part        0.3847080 magnetization 

 Broyden mixing:
  rms(total) = 0.17330E-02    rms(broyden)= 0.17330E-02
  rms(prec ) = 0.32561E-02
  weight for this iteration     100.00

 eigenvalues of (default mixing * dielectric matrix)
  average eigenvalue GAMMA=   2.9550
 10.9734  3.7862  2.6667  2.6667  1.9413  1.4513  1.1351  1.0301  0.9437

 Free energy of the ion-electron system (eV)
  ---------------------------------------------------
  alpha Z        PSCENC =        12.54445055
  Ewald energy   TEWEN  =      2201.33591326
  -Hartree energ DENC   =     -2725.01455041
  -exchange      EXHF   =         0.00000000
  -V(xc)+E(xc)   XCENC  =        55.18476778
  PAW double counting   =      1697.09364372    -1699.81607761
  entropy T*S    EENTRO =        -0.00000172
  eigenvalues    EBANDS =      -166.87486481
  atomic energy  EATOM  =       588.61769381
  Solvation  Ediel_sol  =         0.00000000
  ---------------------------------------------------
  free energy    TOTEN  =       -36.92902544 eV

  energy without entropy =      -36.92902372  energy(sigma->0) =      -36.92902458


--------------------------------------------------------------------------------------------------------




--------------------------------------- Iteration      1(  15)  ---------------------------------------


    POTLOK:  cpu time    0.0664: real time    0.0666
    SETDIJ:  cpu time    0.0355: real time    0.0356
     EDDAV:  cpu time    1.5405: real time    1.5456
       DOS:  cpu time    0.0003: real time    0.0003
    CHARGE:  cpu time    0.1777: real time    0.1782
    MIXING:  cpu time    0.0033: real time    0.0033
    --------------------------------------------
      LOOP:  cpu time    1.8239: real time    1.8297

 eigenvalue-minimisations  :  1276
 total energy-change (2. order) :-0.9217207E-03  (-0.1370981E-04)
 number of electron      16.0000000 magnetization 
 augmentation part        0.3847555 magnetization 

 Broyden mixing:
  rms(total) = 0.23019E-02    rms(broyden)= 0.23019E-02
  rms(prec ) = 0.25532E-02
  weight for this iteration     100.00

 eigenvalues of (default mixing * dielectric matrix)
  average eigenvalue GAMMA=   3.5813
 16.6229  5.1403  3.1028  2.4274  2.4274  2.0318  1.1239  1.0104  1.0104  0.9153

 Free energy of the ion-electron system (eV)
  ---------------------------------------------------
  alpha Z        PSCENC =        12.54445055
  Ewald energy   TEWEN  =      2201.33591326
  -Hartree energ DENC   =     -2725.42168189
  -exchange      EXHF   =         0.00000000
  -V(xc)+E(xc)   XCENC  =        55.18170029
  PAW double counting   =      1692.27563616    -1694.99666957
  entropy T*S    EENTRO =        -0.00000170
  eigenvalues    EBANDS =      -166.46698806
  atomic energy  EATOM  =       588.61769381
  Solvation  Ediel_sol  =         0.00000000
  ---------------------------------------------------
  free energy    TOTEN  =       -36.92994716 eV

  energy without entropy =      -36.92994545  energy(sigma->0) =      -36.92994631


--------------------------------------------------------------------------------------------------------




--------------------------------------- Iteration      1(  16)  ---------------------------------------


    POTLOK:  cpu time    0.0675: real time    0.0678
    SETDIJ:  cpu time    0.0354: real time    0.0355
     EDDAV:  cpu time    1.5510: real time    1.5561
       DOS:  cpu time    0.0003: real time    0.0003
    CHARGE:  cpu time    0.1784: real time    0.1788
    MIXING:  cpu time    0.0036: real time    0.0036
    --------------------------------------------
      LOOP:  cpu time    1.8362: real time    1.8420

 eigenvalue-minimisations  :  1300
 total energy-change (2. order) :-0.2069124E-03  (-0.4138330E-05)
 number of electron      16.0000000 magnetization 
 augmentation part        0.3847000 magnetization 

 Broyden mixing:
  rms(total) = 0.40363E-03    rms(broyden)= 0.40363E-03
  rms(prec ) = 0.52674E-03
  weight for this iteration     100.00

 eigenvalues of (default mixing * dielectric matrix)
  average eigenvalue GAMMA=   4.1052
 22.1101  6.7322  3.4478  2.6780  2.5237  1.9861  1.6165  0.9534  0.9534  1.0386
  1.1172

 Free energy of the ion-electron system (eV)
  ---------------------------------------------------
  alpha Z        PSCENC =        12.54445055
  Ewald energy   TEWEN  =      2201.33591326
  -Hartree energ DENC   =     -2725.62724475
  -exchange      EXHF   =         0.00000000
  -V(xc)+E(xc)   XCENC  =        55.18504211
  PAW double counting   =      1695.59170763    -1698.31408247
  entropy T*S    EENTRO =        -0.00000168
  eigenvalues    EBANDS =      -166.26363252
  atomic energy  EATOM  =       588.61769381
  Solvation  Ediel_sol  =         0.00000000
  ---------------------------------------------------
  free energy    TOTEN  =       -36.93015407 eV

  energy without entropy =      -36.93015239  energy(sigma->0) =      -36.93015323


--------------------------------------------------------------------------------------------------------




--------------------------------------- Iteration      1(  17)  ---------------------------------------


    POTLOK:  cpu time    0.0671: real time    0.0673
    SETDIJ:  cpu time    0.0350: real time    0.0351
     EDDAV:  cpu time    1.5865: real time    1.5915
       DOS:  cpu time    0.0003: real time    0.0003
    CHARGE:  cpu time    0.1776: real time    0.1780
    MIXING:  cpu time    0.0036: real time    0.0036
    --------------------------------------------
      LOOP:  cpu time    1.8701: real time    1.8758

 eigenvalue-minimisations  :  1340
 total energy-change (2. order) :-0.5095863E-04  (-0.3631798E-06)
 number of electron      16.0000000 magnetization 
 augmentation part        0.3846812 magnetization 

 Broyden mixing:
  rms(total) = 0.25284E-03    rms(broyden)= 0.25284E-03
  rms(prec ) = 0.26598E-03
  weight for this iteration     100.00

 eigenvalues of (default mixing * dielectric matrix)
  average eigenvalue GAMMA=   4.0110
 23.1999  6.6604  3.4216  2.4732  2.4213  2.4213  1.9605  1.5440  0.9725  0.9725
  1.0425  1.0425

 Free energy of the ion-electron system (eV)
  ---------------------------------------------------
  alpha Z        PSCENC =        12.54445055
  Ewald energy   TEWEN  =      2201.33591326
  -Hartree energ DENC   =     -2725.71661970
  -exchange      EXHF   =         0.00000000
  -V(xc)+E(xc)   XCENC  =        55.18537450
  PAW double counting   =      1695.76676629    -1698.48964791
  entropy T*S    EENTRO =        -0.00000167
  eigenvalues    EBANDS =      -166.17413415
  atomic energy  EATOM  =       588.61769381
  Solvation  Ediel_sol  =         0.00000000
  ---------------------------------------------------
  free energy    TOTEN  =       -36.93020503 eV

  energy without entropy =      -36.93020336  energy(sigma->0) =      -36.93020419


--------------------------------------------------------------------------------------------------------




--------------------------------------- Iteration      1(  18)  ---------------------------------------


    POTLOK:  cpu time    0.0673: real time    0.0675
    SETDIJ:  cpu time    0.0356: real time    0.0356
     EDDAV:  cpu time    1.5856: real time    1.5903
       DOS:  cpu time    0.0003: real time    0.0003
    CHARGE:  cpu time    0.1814: real time    0.1818
    MIXING:  cpu time    0.0037: real time    0.0037
    --------------------------------------------
      LOOP:  cpu time    1.8739: real time    1.8794

 eigenvalue-minimisations  :  1332
 total energy-change (2. order) :-0.5092645E-05  (-0.4554984E-07)
 number of electron      16.0000000 magnetization 
 augmentation part        0.3846846 magnetization 

 Broyden mixing:
  rms(total) = 0.57493E-04    rms(broyden)= 0.57492E-04
  rms(prec ) = 0.62799E-04
  weight for this iteration     100.00

 eigenvalues of (default mixing * dielectric matrix)
  average eigenvalue GAMMA=   3.8541
 23.1791  6.7819  3.4361  2.9704  2.4294  2.4294  2.0507  1.6666  1.1840  0.9502
  0.9722  1.0266  1.0266

 Free energy of the ion-electron system (eV)
  ---------------------------------------------------
  alpha Z        PSCENC =        12.54445055
  Ewald energy   TEWEN  =      2201.33591326
  -Hartree energ DENC   =     -2725.71437795
  -exchange      EXHF   =         0.00000000
  -V(xc)+E(xc)   XCENC  =        55.18506579
  PAW double counting   =      1695.62717219    -1698.34981873
  entropy T*S    EENTRO =        -0.00000167
  eigenvalues    EBANDS =      -166.17630737
  atomic energy  EATOM  =       588.61769381
  Solvation  Ediel_sol  =         0.00000000
  ---------------------------------------------------
  free energy    TOTEN  =       -36.93021012 eV

  energy without entropy =      -36.93020845  energy(sigma->0) =      -36.93020929


--------------------------------------------------------------------------------------------------------




--------------------------------------- Iteration      1(  19)  ---------------------------------------


    POTLOK:  cpu time    0.0682: real time    0.0684
    SETDIJ:  cpu time    0.0360: real time    0.0361
     EDDAV:  cpu time    1.5697: real time    1.5747
       DOS:  cpu time    0.0003: real time    0.0003
    CHARGE:  cpu time    0.1794: real time    0.1798
    MIXING:  cpu time    0.0039: real time    0.0039
    --------------------------------------------
      LOOP:  cpu time    1.8574: real time    1.8631

 eigenvalue-minimisations  :  1312
 total energy-change (2. order) :-0.2212456E-05  (-0.9656786E-08)
 number of electron      16.0000000 magnetization 
 augmentation part        0.3846852 magnetization 

 Broyden mixing:
  rms(total) = 0.22262E-04    rms(broyden)= 0.22260E-04
  rms(prec ) = 0.22997E-04
  weight for this iteration     100.00

 eigenvalues of (default mixing * dielectric matrix)
  average eigenvalue GAMMA=   3.6788
 23.1430  6.8144  3.4969  3.0342  2.5555  2.4379  2.0349  1.5972  1.4177  1.0182
  1.0182  1.0366  0.9495  0.9495

 Free energy of the ion-electron system (eV)
  ---------------------------------------------------
  alpha Z        PSCENC =        12.54445055
  Ewald energy   TEWEN  =      2201.33591326
  -Hartree energ DENC   =     -2725.71441060
  -exchange      EXHF   =         0.00000000
  -V(xc)+E(xc)   XCENC  =        55.18499066
  PAW double counting   =      1695.58086948    -1698.30351587
  entropy T*S    EENTRO =        -0.00000167
  eigenvalues    EBANDS =      -166.17620195
  atomic energy  EATOM  =       588.61769381
  Solvation  Ediel_sol  =         0.00000000
  ---------------------------------------------------
  free energy    TOTEN  =       -36.93021233 eV

  energy without entropy =      -36.93021066  energy(sigma->0) =      -36.93021150


--------------------------------------------------------------------------------------------------------




--------------------------------------- Iteration      1(  20)  ---------------------------------------


    POTLOK:  cpu time    0.0679: real time    0.0681
    SETDIJ:  cpu time    0.0350: real time    0.0350
     EDDAV:  cpu time    1.3183: real time    1.3229
       DOS:  cpu time    0.0003: real time    0.0003
    CHARGE:  cpu time    0.1792: real time    0.1796
    MIXING:  cpu time    0.0040: real time    0.0040
    --------------------------------------------
      LOOP:  cpu time    1.6046: real time    1.6100

 eigenvalue-minimisations  :   996
 total energy-change (2. order) :-0.1521323E-06  (-0.4848226E-09)
 number of electron      16.0000000 magnetization 
 augmentation part        0.3846853 magnetization 

 Broyden mixing:
  rms(total) = 0.92375E-05    rms(broyden)= 0.92330E-05
  rms(prec ) = 0.95086E-05
  weight for this iteration     100.00

 eigenvalues of (default mixing * dielectric matrix)
  average eigenvalue GAMMA=   3.6160
 23.1453  6.8126  3.5946  3.0275  3.0275  2.4746  2.1787  2.1103  1.6478  1.2766
  1.0289  1.0289  0.9807  0.9807  0.9256

 Free energy of the ion-electron system (eV)
  ---------------------------------------------------
  alpha Z        PSCENC =        12.54445055
  Ewald energy   TEWEN  =      2201.33591326
  -Hartree energ DENC   =     -2725.71611423
  -exchange      EXHF   =         0.00000000
  -V(xc)+E(xc)   XCENC  =        55.18500869
  PAW double counting   =      1695.60133015    -1698.32397078
  entropy T*S    EENTRO =        -0.00000167
  eigenvalues    EBANDS =      -166.17452227
  atomic energy  EATOM  =       588.61769381
  Solvation  Ediel_sol  =         0.00000000
  ---------------------------------------------------
  free energy    TOTEN  =       -36.93021249 eV

  energy without entropy =      -36.93021082  energy(sigma->0) =      -36.93021165


--------------------------------------------------------------------------------------------------------




--------------------------------------- Iteration      1(  21)  ---------------------------------------


    POTLOK:  cpu time    0.0685: real time    0.0688
    SETDIJ:  cpu time    0.0353: real time    0.0353
     EDDAV:  cpu time    1.2169: real time    1.2211
       DOS:  cpu time    0.0003: real time    0.0003
    CHARGE:  cpu time    0.1831: real time    0.1836
    MIXING:  cpu time    0.0042: real time    0.0043
    --------------------------------------------
      LOOP:  cpu time    1.5084: real time    1.5134

 eigenvalue-minimisations  :   852
 total energy-change (2. order) :-0.4336175E-07  (-0.2851288E-09)
 number of electron      16.0000000 magnetization 
 augmentation part        0.3846853 magnetization 

 Broyden mixing:
  rms(total) = 0.27513E-05    rms(broyden)= 0.27363E-05
  rms(prec ) = 0.28907E-05
  weight for this iteration     100.00

 eigenvalues of (default mixing * dielectric matrix)
  average eigenvalue GAMMA=   3.4822
 23.1494  6.8107  3.5739  3.1652  2.7705  2.6180  2.3962  2.0409  1.5767  1.5767
  1.0535  1.0294  1.0294  0.9940  0.9940  0.9370

 Free energy of the ion-electron system (eV)
  ---------------------------------------------------
  alpha Z        PSCENC =        12.54445055
  Ewald energy   TEWEN  =      2201.33591326
  -Hartree energ DENC   =     -2725.71655403
  -exchange      EXHF   =         0.00000000
  -V(xc)+E(xc)   XCENC  =        55.18501403
  PAW double counting   =      1695.61016863    -1698.33280318
  entropy T*S    EENTRO =        -0.00000167
  eigenvalues    EBANDS =      -166.17409393
  atomic energy  EATOM  =       588.61769381
  Solvation  Ediel_sol  =         0.00000000
  ---------------------------------------------------
  free energy    TOTEN  =       -36.93021253 eV

  energy without entropy =      -36.93021086  energy(sigma->0) =      -36.93021169


--------------------------------------------------------------------------------------------------------




--------------------------------------- Iteration      1(  22)  ---------------------------------------


    POTLOK:  cpu time    0.0716: real time    0.0718
    SETDIJ:  cpu time    0.0386: real time    0.0387
     EDDAV:  cpu time    1.3008: real time    1.3049
       DOS:  cpu time    0.0004: real time    0.0004
    --------------------------------------------
      LOOP:  cpu time    1.4113: real time    1.4158

 eigenvalue-minimisations  :   944
 total energy-change (2. order) : 0.4264393E-08  (-0.2698193E-10)
 number of electron      16.0000000 magnetization 
 augmentation part        0.3846853 magnetization 

 Free energy of the ion-electron system (eV)
  ---------------------------------------------------
  alpha Z        PSCENC =        12.54445055
  Ewald energy   TEWEN  =      2201.33591326
  -Hartree energ DENC   =     -2725.71649786
  -exchange      EXHF   =         0.00000000
  -V(xc)+E(xc)   XCENC  =        55.18501540
  PAW double counting   =      1695.61022348    -1698.33286153
  entropy T*S    EENTRO =        -0.00000167
  eigenvalues    EBANDS =      -166.17414795
  atomic energy  EATOM  =       588.61769381
  Solvation  Ediel_sol  =         0.00000000
  ---------------------------------------------------
  free energy    TOTEN  =       -36.93021253 eV

  energy without entropy =      -36.93021085  energy(sigma->0) =      -36.93021169


--------------------------------------------------------------------------------------------------------




 average (electrostatic) potential at core
  the test charge radii are     0.6991
  (the norm of the test charge is              1.0000)
       1 -56.6476       2 -56.6476       3 -56.6476       4 -56.6476
 
 
 
 E-fermi :  -1.2202     XC(G=0):  -4.0877     alpha+bet : -3.8262


 k-point     1 :       0.0000    0.0000    0.0000
  band No.  band energies     occupation 
      1     -20.7962      2.00000
      2     -20.7922      2.00000
      3      -8.9320      2.00000
      4      -8.8446      2.00000
      5      -4.2478      2.00000
      6      -4.2478      2.00000
      7      -4.2476      2.00000
      8      -4.2476      2.00000
      9       1.8201      0.00000
     10       2.4558      0.00000
     11       2.9571      0.00000
     12       3.8974      0.00000

 k-point     2 :       0.0476    0.0000    0.0000
  band No.  band energies     occupation 
      1     -20.7423      2.00000
      2     -20.7384      2.00000
      3      -8.8674      2.00000
      4      -8.7803      2.00000
      5      -4.4687      2.00000
      6      -4.4685      2.00000
      7      -4.3647      2.00000
      8      -4.3645      2.00000
      9       1.8923      0.00000
     10       2.5290      0.00000
     11       3.0305      0.00000
     12       3.9706      0.00000

 k-point     3 :       0.0952    0.0000    0.0000
  band No.  band energies     occupation 
      1     -20.5810      2.00000
      2     -20.5771      2.00000
      3      -8.6742      2.00000
      4      -8.5880      2.00000
      5      -5.0885      2.00000
      6      -5.0883      2.00000
      7      -4.6844      2.00000
      8      -4.6842      2.00000
      9       2.1089      0.00000
     10       2.7484      0.00000
     11       3.2506      0.00000
     12       4.1902      0.00000

 k-point     4 :       0.1429    0.0000    0.0000
  band No.  band energies     occupation 
      1     -20.3127      2.00000
      2     -20.3089      2.00000
      3      -8.3541      2.00000
      4      -8.2694      2.00000
      5      -6.0079      2.00000
      6      -6.0076      2.00000
      7      -5.1360      2.00000
      8      -5.1358      2.00000
      9       2.4699      0.00000
     10       3.1137      0.00000
     11       3.6170      0.00000
     12       4.5553      0.00000

 k-point     5 :       0.1905    0.0000    0.0000
  band No.  band energies     occupation 
      1     -19.9384      2.00000
      2     -19.9348      2.00000
      3      -7.9101      2.00000
      4      -7.8276      2.00000
      5      -7.1206      2.00000
      6      -7.1200      2.00000
      7      -5.6448      2.00000
      8      -5.6445      2.00000
      9       2.9748      0.00000
     10       3.6243      0.00000
     11       4.1280      0.00000
     12       5.0640      0.00000

 k-point     6 :       0.2381    0.0000    0.0000
  band No.  band energies     occupation 
      1     -19.4598      2.00000
      2     -19.4563      2.00000
      3      -8.3403      2.00000
      4      -8.3395      2.00000
      5      -7.3476      2.00000
      6      -7.2681      2.00000
      7      -6.1518      2.00000
      8      -6.1515      2.00000
      9       3.6226      0.00000
     10       4.2770      0.00000
     11       4.7759      0.00000
     12       5.6938      0.00000

 k-point     7 :       0.2857    0.0000    0.0000
  band No.  band energies     occupation 
      1     -18.8789      2.00000
      2     -18.8757      2.00000
      3      -9.6043      2.00000
      4      -9.6033      2.00000
      5      -6.6757      2.00000
      6      -6.6161      2.00000
      7      -6.6158      2.00000
      8      -6.6000      2.00000
      9       4.4075      0.00000
     10       4.9512      0.00000
     11       4.9839      0.00000
     12       5.2250      0.00000

 k-point     8 :       0.3333    0.0000    0.0000
  band No.  band energies     occupation 
      1     -18.1994      2.00000
      2     -18.1964      2.00000
      3     -10.8680      2.00000
      4     -10.8668      2.00000
      5      -7.0110      2.00000
      6      -7.0107      2.00000
      7      -5.9109      2.00000
      8      -5.8401      2.00000
      9       3.6850      0.00000
     10       3.7467      0.00000
     11       5.3409      0.00000
     12       6.0244      0.00000

 k-point     9 :       0.3810    0.0000    0.0000
  band No.  band energies     occupation 
      1     -17.4273      2.00000
      2     -17.4245      2.00000
      3     -12.0979      2.00000
      4     -12.0964      2.00000
      5      -7.3192      2.00000
      6      -7.3189      2.00000
      7      -5.0867      2.00000
      8      -5.0225      2.00000
      9       2.4017      0.00000
     10       2.4679      0.00000
     11       6.2802      0.00000
     12       6.3928      0.00000

 k-point    10 :       0.4286    0.0000    0.0000
  band No.  band energies     occupation 
      1     -16.5778      2.00000
      2     -16.5752      2.00000
      3     -13.2613      2.00000
      4     -13.2596      2.00000
      5      -7.5298      2.00000
      6      -7.5295      2.00000
      7      -4.2831      2.00000
      8      -4.2273      2.00000
      9       1.2732      0.00000
     10       1.3483      0.00000
     11       6.2877      0.00000
     12       6.2973      0.00000

 k-point    11 :       0.4762    0.0000    0.0000
  band No.  band energies     occupation 
      1     -15.7329      2.00000
      2     -15.7305      2.00000
      3     -14.2655      2.00000
      4     -14.2636      2.00000
      5      -7.6365      2.00000
      6      -7.6362      2.00000
      7      -3.7060      2.00000
      8      -3.6590      2.00000
      9       0.5287      0.00000
     10       0.6130      0.00000
     11       6.2380      0.00000
     12       6.2445      0.00000

 k-point    12 :       0.0952    0.0476    0.0000
  band No.  band energies     occupation 
      1     -20.6347      2.00000
      2     -20.6309      2.00000
      3      -8.7385      2.00000
      4      -8.6520      2.00000
      5      -4.8736      2.00000
      6      -4.8734      2.00000
      7      -4.5984      2.00000
      8      -4.5983      2.00000
      9       2.0367      0.00000
     10       2.6753      0.00000
     11       3.1773      0.00000
     12       4.1170      0.00000

 k-point    13 :       0.1429    0.0476    0.0000
  band No.  band energies     occupation 
      1     -20.4199      2.00000
      2     -20.4161      2.00000
      3      -8.4818      2.00000
      4      -8.3965      2.00000
      5      -5.6105      2.00000
      6      -5.6102      2.00000
      7      -5.0175      2.00000
      8      -5.0173      2.00000
      9       2.3256      0.00000
     10       2.9677      0.00000
     11       3.4706      0.00000
     12       4.4094      0.00000

 k-point    14 :       0.1905    0.0476    0.0000
  band No.  band energies     occupation 
      1     -20.0986      2.00000
      2     -20.0950      2.00000
      3      -8.0997      2.00000
      4      -8.0162      2.00000
      5      -6.5966      2.00000
      6      -6.5961      2.00000
      7      -5.5284      2.00000
      8      -5.5282      2.00000
      9       2.7588      0.00000
     10       3.4059      0.00000
     11       3.9096      0.00000
     12       4.8468      0.00000

 k-point    15 :       0.2381    0.0476    0.0000
  band No.  band energies     occupation 
      1     -19.6722      2.00000
      2     -19.6687      2.00000
      3      -7.7414      2.00000
      4      -7.7408      2.00000
      5      -7.5961      2.00000
      6      -7.5152      2.00000
      7      -6.0583      2.00000
      8      -6.0580      2.00000
      9       3.3354      0.00000
     10       3.9883      0.00000
     11       4.4913      0.00000
     12       5.4241      0.00000

 k-point    16 :       0.2857    0.0476    0.0000
  band No.  band energies     occupation 
      1     -19.1424      2.00000
      2     -19.1391      2.00000
      3      -8.9695      2.00000
      4      -8.9686      2.00000
      5      -6.9780      2.00000
      6      -6.9005      2.00000
      7      -6.5581      2.00000
      8      -6.5578      2.00000
      9       4.0537      0.00000
     10       4.7062      0.00000
     11       5.1734      0.00000
     12       5.7071      0.00000

 k-point    17 :       0.3333    0.0476    0.0000
  band No.  band energies     occupation 
      1     -18.5122      2.00000
      2     -18.5090      2.00000
      3     -10.2247      2.00000
      4     -10.2236      2.00000
      5      -6.9964      2.00000
      6      -6.9961      2.00000
      7      -6.2575      2.00000
      8      -6.1843      2.00000
      9       4.3076      0.00000
     10       4.3669      0.00000
     11       4.9199      0.00000
     12       5.6047      0.00000

[...]
      7      -6.1666      2.00000
      8      -6.1663      2.00000
      9       3.1921      0.00000
     10       3.8438      0.00000
     11       4.3476      0.00000
     12       5.2833      0.00000

 k-point    24 :       0.2857    0.0952    0.0000
  band No.  band energies     occupation 
      1     -19.3011      2.00000
      2     -19.2977      2.00000
      3      -8.3954      2.00000
      4      -8.3946      2.00000
      5      -7.1608      2.00000
      6      -7.0821      2.00000
      7      -6.7437      2.00000
      8      -6.7433      2.00000
      9       3.8402      0.00000
     10       4.4972      0.00000
     11       4.9967      0.00000
     12       5.8990      0.00000

 k-point    25 :       0.3333    0.0952    0.0000
  band No.  band energies     occupation 
      1     -18.7219      2.00000
      2     -18.7187      2.00000
      3      -9.5832      2.00000
      4      -9.5822      2.00000
      5      -7.2495      2.00000
      6      -7.2490      2.00000
      7      -6.4914      2.00000
      8      -6.4167      2.00000
      9       4.6221      0.00000
     10       4.8345      0.00000
     11       4.8619      0.00000
     12       5.3211      0.00000

 k-point    26 :       0.3810    0.0952    0.0000
  band No.  band energies     occupation 
      1     -18.0446      2.00000
      2     -18.0416      2.00000
      3     -10.7991      2.00000
      4     -10.7979      2.00000
      5      -7.6676      2.00000
      6      -7.6671      2.00000
      7      -5.7289      2.00000
      8      -5.6590      2.00000
      9       3.5599      0.00000
     10       3.6089      0.00000
     11       5.5602      0.00000
     12       6.2432      0.00000

 k-point    27 :       0.4286    0.0952    0.0000
  band No.  band energies     occupation 
      1     -17.2756      2.00000
      2     -17.2729      2.00000
      3     -11.9984      2.00000
      4     -11.9970      2.00000
      5      -7.9884      2.00000
      6      -7.9879      2.00000
      7      -4.9054      2.00000
      8      -4.8420      2.00000
      9       2.3201      0.00000
     10       2.3768      0.00000
     11       6.6145      0.00000
     12       7.2380      0.00000

 k-point    28 :       0.4762    0.0952    0.0000
  band No.  band energies     occupation 
      1     -16.4306      2.00000
      2     -16.4280      2.00000
      3     -13.1418      2.00000
      4     -13.1401      2.00000
      5      -8.2055      2.00000
      6      -8.2050      2.00000
      7      -4.0980      2.00000
      8      -4.0428      2.00000
      9       1.2181      0.00000
     10       1.2845      0.00000
     11       7.2075      0.00000
     12       7.2274      0.00000

 k-point    29 :      -0.4762    0.0952    0.0000
  band No.  band energies     occupation 
      1     -15.5922      2.00000
      2     -15.5898      2.00000
      3     -14.1326      2.00000
      4     -14.1307      2.00000
      5      -8.3150      2.00000
      6      -8.3145      2.00000
      7      -3.5115      2.00000
      8      -3.4648      2.00000
      9       0.4794      0.00000
     10       0.5552      0.00000
     11       7.1663      0.00000
     12       7.1760      0.00000

 k-point    30 :       0.2857    0.1429    0.0000
  band No.  band energies     occupation 
      1     -19.3541      2.00000
      2     -19.3507      2.00000
      3      -8.1107      2.00000
      4      -8.1100      2.00000
      5      -7.2219      2.00000
      6      -7.1429      2.00000
      7      -6.9056      2.00000
      8      -6.9052      2.00000
      9       3.7689      0.00000
     10       4.4264      0.00000
     11       4.9296      0.00000
     12       5.8634      0.00000

 k-point    31 :       0.3333    0.1429    0.0000
  band No.  band energies     occupation 
      1     -18.8271      2.00000
      2     -18.8238      2.00000
      3      -9.0772      2.00000
      4      -9.0763      2.00000
      5      -7.5823      2.00000
      6      -7.5818      2.00000
      7      -6.6093      2.00000
      8      -6.5337      2.00000
      9       4.4875      0.00000
     10       5.1243      0.00000
     11       5.1408      0.00000
     12       5.1990      0.00000

 k-point    32 :       0.3810    0.1429    0.0000
  band No.  band energies     occupation 
      1     -18.2006      2.00000
      2     -18.1976      2.00000
      3     -10.1689      2.00000
      4     -10.1679      2.00000
      5      -8.1252      2.00000
      6      -8.1246      2.00000
      7      -5.8944      2.00000
      8      -5.8231      2.00000
      9       3.9640      0.00000
     10       3.9984      0.00000
     11       5.3474      0.00000
     12       6.0212      0.00000

 k-point    33 :       0.4286    0.1429    0.0000
  band No.  band energies     occupation 
      1     -17.4798      2.00000
      2     -17.4770      2.00000
      3     -11.3144      2.00000
      4     -11.3131      2.00000
      5      -8.5363      2.00000
      6      -8.5357      2.00000
      7      -5.0983      2.00000
      8      -5.0326      2.00000
      9       2.7698      0.00000
     10       2.8124      0.00000
     11       6.3419      0.00000
     12       7.0233      0.00000

 k-point    34 :       0.4762    0.1429    0.0000
  band No.  band energies     occupation 
      1     -16.6744      2.00000
      2     -16.6718      2.00000
      3     -12.4518      2.00000
      4     -12.4503      2.00000
      5      -8.8261      2.00000
      6      -8.8255      2.00000
      7      -4.2670      2.00000
      8      -4.2084      2.00000
      9       1.6315      0.00000
     10       1.6834      0.00000
     11       7.4610      0.00000
     12       8.1226      0.00000

 k-point    35 :      -0.4762    0.1429    0.0000
  band No.  band energies     occupation 
      1     -15.8161      2.00000
      2     -15.8138      2.00000
      3     -13.5194      2.00000
      4     -13.5176      2.00000
      5      -8.9991      2.00000
      6      -8.9984      2.00000
      7      -3.5212      2.00000
      8      -3.4711      2.00000
      9       0.6919      0.00000
     10       0.7540      0.00000
     11       8.1999      0.00000
     12       8.2253      0.00000

 k-point    36 :      -0.4286    0.1429    0.0000
  band No.  band energies     occupation 
      1     -15.2085      2.00000
      2     -15.2063      2.00000
      3     -14.1983      2.00000
      4     -14.1963      2.00000
      5      -9.0567      2.00000
      6      -9.0560      2.00000
      7      -3.1755      2.00000
      8      -3.1309      2.00000
      9       0.2799      0.00000
     10       0.3481      0.00000
     11       8.1841      0.00000
     12       8.1999      0.00000

 k-point    37 :       0.3810    0.1905    0.0000
  band No.  band energies     occupation 
      1     -18.2528      2.00000
      2     -18.2497      2.00000
      3      -9.8394      2.00000
      4      -9.8385      2.00000
      5      -8.4045      2.00000
      6      -8.4038      2.00000
      7      -5.9499      2.00000
      8      -5.8782      2.00000
      9       4.1170      0.00000
     10       4.1437      0.00000
     11       5.2755      0.00000
     12       5.9446      0.00000

 k-point    38 :       0.4286    0.1905    0.0000
  band No.  band energies     occupation 
      1     -17.5825      2.00000
      2     -17.5797      2.00000
      3     -10.7493      2.00000
      4     -10.7482      2.00000
      5      -9.0526      2.00000
      6      -9.0518      2.00000
      7      -5.1970      2.00000
      8      -5.1302      2.00000
      9       3.0375      0.00000
     10       3.0690      0.00000
     11       6.1998      0.00000
     12       6.8729      0.00000

 k-point    39 :       0.4762    0.1905    0.0000
  band No.  band energies     occupation 
      1     -16.8236      2.00000
      2     -16.8210      2.00000
      3     -11.7751      2.00000
      4     -11.7738      2.00000
      5      -9.4924      2.00000
      6      -9.4915      2.00000
      7      -4.3780      2.00000
      8      -4.3172      2.00000
      9       1.9520      0.00000
     10       1.9904      0.00000
     11       7.2535      0.00000
     12       7.9252      0.00000

 k-point    40 :      -0.4762    0.1905    0.0000
  band No.  band energies     occupation 
      1     -15.9927      2.00000
      2     -15.9903      2.00000
      3     -12.8235      2.00000
      4     -12.8219      2.00000
      5      -9.7636      2.00000
      6      -9.7627      2.00000
      7      -3.5585      2.00000
      8      -3.5052      2.00000
      9       0.9426      0.00000
     10       0.9896      0.00000
     11       8.4172      0.00000
     12       9.0644      0.00000

 k-point    41 :      -0.4286    0.1905    0.0000
  band No.  band energies     occupation 
      1     -15.1727      2.00000
      2     -15.1705      2.00000
      3     -13.7624      2.00000
      4     -13.7606      2.00000
      5      -9.8941      2.00000
      6      -9.8933      2.00000
      7      -2.9342      2.00000
      8      -2.8887      2.00000
      9       0.2192      0.00000
     10       0.2747      0.00000
     11       9.4017      0.00000
     12       9.4522      0.00000

 k-point    42 :       0.4762    0.2381    0.0000
  band No.  band energies     occupation 
      1     -16.8737      2.00000
      2     -16.8711      2.00000
      3     -11.4043      2.00000
      4     -11.4030      2.00000
      5      -9.8651      2.00000
      6      -9.8641      2.00000
      7      -4.4165      2.00000
      8      -4.3550      2.00000
      9       2.0746      0.00000
     10       2.1071      0.00000
     11       7.1819      0.00000
     12       7.8471      0.00000

 k-point    43 :      -0.4762    0.2381    0.0000
  band No.  band energies     occupation 
      1     -16.0855      2.00000
      2     -16.0831      2.00000
      3     -12.2185      2.00000
      4     -12.2171      2.00000
      5     -10.4129      2.00000
      6     -10.4118      2.00000
      7      -3.5870      2.00000
      8      -3.5317      2.00000
      9       1.1110      0.00000
     10       1.1475      0.00000
     11       8.2714      0.00000
     12       8.9002      0.00000

 k-point    44 :      -0.4286    0.2381    0.0000
  band No.  band energies     occupation 
      1     -15.2505      2.00000
      2     -15.2483      2.00000
      3     -13.1245      2.00000
      4     -13.1229      2.00000
      5     -10.6980      2.00000
      6     -10.6969      2.00000
      7      -2.8010      2.00000
      8      -2.7530      2.00000
      9       0.2420      0.00000
     10       0.2846      0.00000
     11       9.2757      0.00000
     12       9.6980      0.00000

 k-point    45 :      -0.3810    0.2381    0.0000
  band No.  band energies     occupation 
      1     -14.6572      2.00000
      2     -14.6552      2.00000
      3     -13.7511      2.00000
      4     -13.7494      2.00000
      5     -10.7853      2.00000
      6     -10.7842      2.00000
      7      -2.3950      2.00000
      8      -2.3520      2.00000
      9      -0.1923      0.00000
     10      -0.1449      0.00000
     11       9.4873      0.00000
     12      10.1006      0.00000

 k-point    46 :      -0.4286    0.2857    0.0000
  band No.  band energies     occupation 
      1     -15.2851      2.00000
      2     -15.2829      2.00000
      3     -12.7451      2.00000
      4     -12.7436      2.00000
      5     -11.1280      2.00000
      6     -11.1268      2.00000
      7      -2.7604      2.00000
      8      -2.7111      2.00000
      9       0.2636      0.00000
     10       0.3007      0.00000
     11       9.1434      0.00000
     12       9.6055      0.00000

 k-point    47 :      -0.3810    0.2857    0.0000
  band No.  band energies     occupation 
      1     -14.4935      2.00000
      2     -14.4916      2.00000
      3     -13.4091      2.00000
      4     -13.4074      2.00000
      5     -11.4829      2.00000
      6     -11.4816      2.00000
      7      -2.0197      2.00000
      8      -1.9762      2.00000
      9      -0.4839      0.00000
     10      -0.4436      0.00000
     11       9.2227      0.00000
     12       9.8199      0.00000

 k-point    48 :      -0.3333    0.3333    0.0000
  band No.  band energies     occupation 
      1     -13.8339      2.00000
      2     -13.8338      2.00000
      3     -13.8321      2.00000
      4     -13.8321      2.00000
      5     -11.8246      2.00000
      6     -11.8232      2.00000
      7      -1.2405      1.99591
      8      -1.2405      1.99586
      9      -1.2000      0.00414
     10      -1.1999      0.00409
     11       9.1265      0.00000
     12       9.7110      0.00000


--------------------------------------------------------------------------------------------------------


 soft charge-density along one line, spin component           1
         0         1         2         3         4         5         6         7         8         9
 total charge-density along one line
 
 pseudopotential strength for first ion, spin component:           1
 10.124  13.461  -0.000  -0.000   0.000   0.000   0.000  -0.000
 13.461  17.898  -0.000  -0.000   0.000   0.000   0.000  -0.000
 -0.000  -0.000  -4.266  -0.000   0.000   8.344   0.000  -0.000
 -0.000  -0.000  -0.000  -4.258  -0.000   0.000   8.334   0.000
  0.000   0.000   0.000  -0.000  -4.266  -0.000   0.000   8.344
  0.000   0.000   8.344   0.000  -0.000 -18.452  -0.000   0.000
  0.000   0.000   0.000   8.334   0.000  -0.000 -18.443  -0.000
 -0.000  -0.000  -0.000   0.000   8.344   0.000  -0.000 -18.452
 total augmentation occupancy for first ion, spin component:           1
  8.116  -3.602  -0.000  -0.000   0.000   0.000  -0.000   0.000
 -3.602   1.656  -0.000   0.000   0.000   0.000   0.000   0.000
 -0.000   0.000   1.837   0.000   0.000   0.173   0.000   0.000
 -0.000   0.000  -0.000   1.199   0.000   0.000   0.073  -0.000
 -0.000   0.000   0.000  -0.000   1.837   0.000  -0.000   0.173
 -0.000   0.000   0.173   0.000   0.000   0.018   0.000   0.000
 -0.000   0.000   0.000   0.073  -0.000   0.000   0.005   0.000
  0.000   0.000   0.000   0.000   0.173   0.000  -0.000   0.018


------------------------ aborting loop because EDIFF is reached ----------------------------------------


    CHARGE:  cpu time    0.1860: real time    0.1865
    FORLOC:  cpu time    0.0049: real time    0.0049
    FORNL :  cpu time    0.3591: real time    0.3600
    STRESS:  cpu time    1.3930: real time    1.3964
    FORCOR:  cpu time    0.0734: real time    0.0736
    FORHAR:  cpu time    0.0195: real time    0.0195
    MIXING:  cpu time    0.0043: real time    0.0044
    OFIELD:  cpu time    0.0000: real time    0.0000

  FORCE on cell =-STRESS in cart. coord.  units (eV):
  Direction    XX          YY          ZZ          XY          YZ          ZX
  --------------------------------------------------------------------------------------
  Alpha Z    12.54445    12.54445    12.54445
  Ewald    2740.49810  2740.49686 -3279.65935     0.00000     0.00000    -0.00000
  Hartree  2703.18835  2703.18834 -2680.66015    -0.00000    -0.00000    -0.00000
  E(xc)     -59.51883   -59.51883   -61.75169    -0.00000     0.00000    -0.00000
  Local   -5620.99146 -5620.99085  5748.60869    -0.00000    -0.00000     0.00000
  n-local   -14.82543   -13.75071   -13.00600     0.71032     0.00000    -0.00000
  augment    -1.57104    -1.57104    -1.44410     0.00000    -0.00000     0.00000
  Kinetic   245.07290   236.87093   275.31187    -6.59849    -0.00000     0.00000
  Fock        0.00000     0.00000     0.00000     0.00000     0.00000     0.00000
  -------------------------------------------------------------------------------------
  Total       0.83309     0.83309    -0.05628     0.00000    -0.00000     0.00000
  in kB      12.73930    12.73930    -0.86058     0.00000    -0.00000     0.00000
  external pressure =        8.21 kB  Pullay stress =        0.00 kB


 VOLUME and BASIS-vectors are now :
 -----------------------------------------------------------------------------
  energy-cutoff  :      800.00
  volume of cell :      104.78
      direct lattice vectors                 reciprocal lattice vectors
     2.130000000 -1.229756000  0.000000000     0.234741784 -0.406584721  0.000000000
     2.130000000  1.229756000  0.000000000     0.234741784  0.406584721  0.000000000
     0.000000000  0.000000000 20.000000000     0.000000000  0.000000000  0.050000000

  length of vectors
     2.459512110  2.459512110 20.000000000     0.469483589  0.469483589  0.050000000


 FORCES acting on ions
    electron-ion (+dipol)            ewald-force                    non-local-force                 convergence-correction
 -----------------------------------------------------------------------------------------------
   -.879E-05 0.151E-13 0.282E+03   -.241E-03 0.677E-14 -.282E+03   -.149E-16 0.211E-17 -.150E-03   -.250E-11 0.650E-15 0.103E-04
   0.262E-03 0.376E-12 0.282E+03   0.241E-03 -.447E-14 -.282E+03   -.456E-16 -.158E-17 -.150E-03   0.687E-11 0.576E-16 0.103E-04
   -.880E-05 0.128E-11 -.282E+03   -.241E-03 0.674E-14 0.282E+03   -.161E-16 -.228E-16 0.150E-03   -.291E-11 0.128E-14 -.103E-04
   0.262E-03 -.968E-12 -.282E+03   0.241E-03 -.449E-14 0.282E+03   -.698E-17 -.146E-16 0.150E-03   0.634E-11 -.163E-14 -.103E-04
 -----------------------------------------------------------------------------------------------
   0.506E-03 0.704E-12 -.131E-03   0.858E-14 0.456E-14 0.000E+00   -.835E-16 -.369E-16 0.000E+00   0.781E-11 0.365E-15 0.899E-10
 
 
 POSITION                                       TOTAL-FORCE (eV/Angst)
 -----------------------------------------------------------------------------------
      0.00000      0.00000      0.00000        -0.000000     -0.000000      0.001222
      1.42000      0.00000      0.00000         0.000000     -0.000000      0.001222
      0.00000      0.00000      4.90000        -0.000000      0.000000     -0.001222
      1.42000      0.00000      4.90000         0.000000      0.000000     -0.001222
 -----------------------------------------------------------------------------------
    total drift:                                0.000506      0.000000     -0.000131


--------------------------------------------------------------------------------------------------------



  FREE ENERGIE OF THE ION-ELECTRON SYSTEM (eV)
  ---------------------------------------------------
  free  energy   TOTEN  =       -36.93021253 eV

  energy  without entropy=      -36.93021085  energy(sigma->0) =      -36.93021169
 


--------------------------------------------------------------------------------------------------------


    POTLOK:  cpu time    0.1077: real time    0.1080


--------------------------------------------------------------------------------------------------------


     LOOP+:  cpu time   42.5969: real time   42.9035
    4ORBIT:  cpu time    0.0000: real time    0.0000

 total amount of memory used by VASP MPI-rank0   107376. kBytes
=======================================================================

   base      :      30000. kBytes
   nonl-proj :      16997. kBytes
   fftplans  :      32720. kBytes
   grid      :      15086. kBytes
   one-center:         12. kBytes
   wavefun   :      12561. kBytes
 
  
  
 General timing and accounting informations for this job:
 ========================================================
  
                  Total CPU time used (sec):       44.572
                            User time (sec):       43.768
                          System time (sec):        0.804
                         Elapsed time (sec):       45.270
  
                   Maximum memory used (kb):      170436.
                   Average memory used (kb):           0.
  
                          Minor page faults:       150989
                          Major page faults:            0
                 Voluntary context switches:         4161
