 vasp.5.4.4.18Apr17-6-g9f103f2a35 (build May 31 2018 21:15:54) complex          
  
 executed on          c7_intel_O1 date 2020.07.23  19:13:44
 running on    4 total cores
 distrk:  each k-point on    4 cores,    1 groups
 distr:  one band on NCORES_PER_BAND=   1 cores,    4 groups


--------------------------------------------------------------------------------------------------------


 INCAR:
 POTCAR:    PAW_PBE C 08Apr2002                   
 POTCAR:    PAW_PBE C 08Apr2002                   
   VRHFIN =C: s2p2                                                              
   LEXCH  = PE                                                                  
   EATOM  =   147.1560 eV,   10.8157 Ry                                         
                                                                                
   TITEL  = PAW_PBE C 08Apr2002                                                 
   LULTRA =        F    use ultrasoft PP ?                                      
   IUNSCR =        1    unscreen: 0-lin 1-nonlin 2-no                           
   RPACOR =    1.200    partial core radius                                     
   POMASS =   12.011; ZVAL   =    4.000    mass and valenz                      
   RCORE  =    1.500    outmost cutoff radius                                   
   RWIGS  =    1.630; RWIGS  =    0.863    wigner-seitz radius (au A)           
   ENMAX  =  400.000; ENMIN  =  300.000 eV                                      
   ICORE  =        2    local potential                                         
   LCOR   =        T    correct aug charges                                     
   LPAW   =        T    paw PP                                                  
   EAUG   =  644.873                                                            
   DEXC   =    0.000                                                            
   RMAX   =    1.529    core radius for proj-oper                               
   RAUG   =    1.300    factor for augmentation sphere                          
   RDEP   =    1.501    radius for radial grids                                 
   RDEPT  =    1.300    core radius for aug-charge                              
                                                                                
   Atomic configuration                                                         
    4 entries                                                                   
     n  l   j            E        occ.                                          
     1  0  0.50      -273.3789   2.0000                                         
     2  0  0.50       -13.7508   2.0000                                         
     2  1  0.50        -5.2854   2.0000                                         
     3  2  1.50        -5.4423   0.0000                                         
   Description                                                                  
     l       E           TYP  RCUT    TYP  RCUT                                 
     0    -13.7508458     23  1.200                                             
     0     -8.2022199     23  1.200                                             
     1     -5.2854383     23  1.500                                             
     1     34.0145650     23  1.500                                             
     2     -5.4423304      7  1.500                                             
  local pseudopotential read in
  partial core-charges read in
  partial kinetic energy density read in
  atomic valenz-charges read in
  non local Contribution for L=           0  read in
    real space projection operators read in
  non local Contribution for L=           0  read in
    real space projection operators read in
  non local Contribution for L=           1  read in
    real space projection operators read in
  non local Contribution for L=           1  read in
    real space projection operators read in
    PAW grid and wavefunctions read in
 
   number of l-projection  operators is LMAX  =           4
   number of lm-projection operators is LMMAX =           8
 
  PAW_PBE C 08Apr2002                   :
 energy of atom  1       EATOM= -147.1560
 kinetic energy error for atom=    0.0016 (will be added to EATOM!!)
 
 
 POSCAR: C2_bilayer                              
  positions in direct lattice
  No initial velocities read in
 exchange correlation table for  LEXCH =        8
   RHO(1)=    0.500       N(1)  =     2000
   RHO(2)=  100.500       N(2)  =     4000
 


--------------------------------------------------------------------------------------------------------


 ion  position               nearest neighbor table
   1  0.000  0.000  0.000-   2 1.42   2 1.42   2 1.42
   2  0.333  0.333  0.000-   1 1.42   1 1.42   1 1.42
   3  0.000  0.000  0.170-   4 1.42   4 1.42   4 1.42
   4  0.333  0.333  0.170-   3 1.42   3 1.42   3 1.42
 
  LATTYP: Found a hexagonal cell.
 ALAT       =     2.4595120000
 C/A-ratio  =     8.1316944174
  
  Lattice vectors:
  
 A1 = (   0.0000000000,  -2.4595120000,   0.0000000000)
 A2 = (  -2.1300000000,   1.2297560000,   0.0000000000)
 A3 = (   0.0000000000,   0.0000000000, -20.0000000000)


Analysis of symmetry for initial positions (statically):
=====================================================================
 Subroutine PRICEL returns:
 Original cell was already a primitive cell.
 

 Routine SETGRP: Setting up the symmetry group for a 
 hexagonal supercell.


 Subroutine GETGRP returns: Found 24 space group operations
 (whereof  6 operations were pure point group operations)
 out of a pool of 24 trial point group operations.


The static configuration has the point symmetry C_3v.
 The point group associated with its full space group is D_6h.


Analysis of symmetry for dynamics (positions and initial velocities):
=====================================================================
 Subroutine PRICEL returns:
 Original cell was already a primitive cell.
 

 Routine SETGRP: Setting up the symmetry group for a 
 hexagonal supercell.


 Subroutine GETGRP returns: Found 24 space group operations
 (whereof  6 operations were pure point group operations)
 out of a pool of 24 trial point group operations.


The dynamic configuration has the point symmetry C_3v.
 The point group associated with its full space group is D_6h.


 Subroutine INISYM returns: Found 24 space group operations
 (whereof  6 operations are pure point group operations),
 and found     1 'primitive' translations

 
 
 KPOINTS: k grid                                  

Automatic generation of k-mesh.
Space group operators:
 irot       det(A)        alpha          n_x          n_y          n_z        tau_x        tau_y        tau_z
    1     1.000000     0.000000     1.000000     0.000000     0.000000     0.000000     0.000000     0.000000
    2     1.000000   120.000000     0.000000     0.000000     1.000000     0.000000     0.000000     0.000000
    3     1.000000   120.000000     0.000000     0.000000    -1.000000     0.000000     0.000000     0.000000
    4    -1.000000   180.000000    -0.000000     1.000000     0.000000     0.000000     0.000000     0.000000
    5    -1.000000   180.000000     0.866025    -0.500000     0.000000     0.000000     0.000000     0.000000
    6    -1.000000   180.000000     0.866025     0.500000     0.000000     0.000000     0.000000     0.000000
    7    -1.000000     0.000000     1.000000     0.000000     0.000000     0.333333    -0.666667    -0.830000
    8     1.000000    60.000000     0.000000     0.000000     1.000000     0.333333    -0.666667     0.000000
    9    -1.000000    60.000000     0.000000     0.000000     1.000000    -0.000001    -0.000000    -0.830000
   10    -1.000000   120.000000     0.000000     0.000000     1.000000     0.333333    -0.666667    -0.830000
   11     1.000000   180.000000     0.000000     0.000000     1.000000     0.333333    -0.666667     0.000000
   12    -1.000000   180.000000     0.000000     0.000000     1.000000     0.000000     0.000000    -0.830000
   13    -1.000000   120.000000     0.000000     0.000000    -1.000000     0.333333    -0.666667    -0.830000
   14     1.000000    60.000000     0.000000     0.000000    -1.000000     0.333333    -0.666667     0.000000
   15    -1.000000    60.000000     0.000000     0.000000    -1.000000    -0.000000    -0.000001    -0.830000
   16     1.000000   180.000000    -0.000000     1.000000     0.000000     0.333333    -0.666667    -0.830000
   17     1.000000   180.000000     0.500000    -0.866025     0.000000    -0.000000    -0.000001    -0.830000
   18    -1.000000   180.000000     0.500000    -0.866025     0.000000     0.333333    -0.666667     0.000000
   19     1.000000   180.000000     0.866025    -0.500000     0.000000     0.333333    -0.666667    -0.830000
   20     1.000000   180.000000     1.000000     0.000000     0.000000     0.000000     0.000000    -0.830000
   21    -1.000000   180.000000     1.000000     0.000000     0.000000     0.333333    -0.666667     0.000000
   22     1.000000   180.000000     0.866025     0.500000     0.000000     0.333333    -0.666667    -0.830000
   23     1.000000   180.000000    -0.500000    -0.866025     0.000000    -0.000001    -0.000000    -0.830000
   24    -1.000000   180.000000    -0.500000    -0.866025     0.000000     0.333333    -0.666667     0.000000
 
 Subroutine IBZKPT returns following result:
 ===========================================
 
 Found     48 irreducible k-points:
 
 Following reciprocal coordinates:
            Coordinates               Weight
  0.000000  0.000000  0.000000      1.000000
  0.047619  0.000000  0.000000      6.000000
  0.095238  0.000000  0.000000      6.000000
  0.142857  0.000000  0.000000      6.000000
  0.190476  0.000000  0.000000      6.000000
  0.238095  0.000000  0.000000      6.000000
  0.285714  0.000000  0.000000      6.000000
  0.333333  0.000000  0.000000      6.000000
  0.380952  0.000000  0.000000      6.000000
  0.428571  0.000000  0.000000      6.000000
  0.476190  0.000000  0.000000      6.000000
  0.095238  0.047619  0.000000      6.000000
  0.142857  0.047619  0.000000     12.000000
  0.190476  0.047619  0.000000     12.000000
  0.238095  0.047619  0.000000     12.000000
  0.285714  0.047619  0.000000     12.000000
  0.333333  0.047619  0.000000     12.000000
  0.380952  0.047619  0.000000     12.000000
  0.428571  0.047619  0.000000     12.000000
  0.476190  0.047619  0.000000     12.000000
 -0.476190  0.047619  0.000000      6.000000
  0.190476  0.095238  0.000000      6.000000
  0.238095  0.095238  0.000000     12.000000
  0.285714  0.095238  0.000000     12.000000
  0.333333  0.095238  0.000000     12.000000
  0.380952  0.095238  0.000000     12.000000
  0.428571  0.095238  0.000000     12.000000
  0.476190  0.095238  0.000000     12.000000
 -0.476190  0.095238  0.000000     12.000000
  0.285714  0.142857  0.000000      6.000000
  0.333333  0.142857  0.000000     12.000000
  0.380952  0.142857  0.000000     12.000000
  0.428571  0.142857  0.000000     12.000000
  0.476190  0.142857  0.000000     12.000000
 -0.476190  0.142857  0.000000     12.000000
 -0.428571  0.142857  0.000000      6.000000
  0.380952  0.190476  0.000000      6.000000
  0.428571  0.190476  0.000000     12.000000
  0.476190  0.190476  0.000000     12.000000
 -0.476190  0.190476  0.000000     12.000000
 -0.428571  0.190476  0.000000     12.000000
  0.476190  0.238095  0.000000      6.000000
 -0.476190  0.238095  0.000000     12.000000
 -0.428571  0.238095  0.000000     12.000000
 -0.380952  0.238095  0.000000      6.000000
 -0.428571  0.285714  0.000000      6.000000
 -0.380952  0.285714  0.000000     12.000000
 -0.333333  0.333333  0.000000      2.000000
 
 Following cartesian coordinates:
            Coordinates               Weight
  0.000000  0.000000  0.000000      1.000000
  0.011178 -0.019361  0.000000      6.000000
  0.022356 -0.038722  0.000000      6.000000
  0.033535 -0.058084  0.000000      6.000000
  0.044713 -0.077445  0.000000      6.000000
  0.055891 -0.096806  0.000000      6.000000
  0.067069 -0.116167  0.000000      6.000000
  0.078247 -0.135528  0.000000      6.000000
  0.089425 -0.154889  0.000000      6.000000
  0.100604 -0.174251  0.000000      6.000000
  0.111782 -0.193612  0.000000      6.000000
  0.033535 -0.019361  0.000000      6.000000
  0.044713 -0.038722  0.000000     12.000000
  0.055891 -0.058084  0.000000     12.000000
  0.067069 -0.077445  0.000000     12.000000
  0.078247 -0.096806  0.000000     12.000000
  0.089425 -0.116167  0.000000     12.000000
  0.100604 -0.135528  0.000000     12.000000
  0.111782 -0.154889  0.000000     12.000000
  0.122960 -0.174251  0.000000     12.000000
 -0.100604  0.212973  0.000000      6.000000
  0.067069 -0.038722  0.000000      6.000000
  0.078247 -0.058084  0.000000     12.000000
  0.089425 -0.077445  0.000000     12.000000
  0.100604 -0.096806  0.000000     12.000000
  0.111782 -0.116167  0.000000     12.000000
  0.122960 -0.135528  0.000000     12.000000
  0.134138 -0.154889  0.000000     12.000000
 -0.089425  0.232334  0.000000     12.000000
  0.100604 -0.058084  0.000000      6.000000
  0.111782 -0.077445  0.000000     12.000000
  0.122960 -0.096806  0.000000     12.000000
  0.134138 -0.116167  0.000000     12.000000
  0.145316 -0.135528  0.000000     12.000000
 -0.078247  0.251695  0.000000     12.000000
 -0.067069  0.232334  0.000000      6.000000
  0.134138 -0.077445  0.000000      6.000000
  0.145316 -0.096806  0.000000     12.000000
  0.156495 -0.116167  0.000000     12.000000
 -0.067069  0.271056  0.000000     12.000000
 -0.055891  0.251695  0.000000     12.000000
  0.167673 -0.096806  0.000000      6.000000
 -0.055891  0.290418  0.000000     12.000000
 -0.044713  0.271056  0.000000     12.000000
 -0.033535  0.251695  0.000000      6.000000
 -0.033535  0.290418  0.000000      6.000000
 -0.022356  0.271056  0.000000     12.000000
  0.000000  0.271056  0.000000      2.000000
 


--------------------------------------------------------------------------------------------------------




 Dimension of arrays:
   k-points           NKPTS =     48   k-points in BZ     NKDIM =     48   number of bands    NBANDS=     12
   number of dos      NEDOS =    301   number of ions     NIONS =      4
   non local maximal  LDIM  =      4   non local SUM 2l+1 LMDIM =      8
   total plane-waves  NPLWV = 110592
   max r-space proj   IRMAX =      1   max aug-charges    IRDMAX=  99836
   dimension x,y,z NGX =    24 NGY =   24 NGZ =  192
   dimension x,y,z NGXF=    48 NGYF=   48 NGZF=  384
   support grid    NGXF=    96 NGYF=   96 NGZF=  768
   ions per type =               4
   NGX,Y,Z   is equivalent  to a cutoff of  16.22, 16.22, 15.96 a.u.
   NGXF,Y,Z  is equivalent  to a cutoff of  32.44, 32.44, 31.92 a.u.

 SYSTEM =  C:graphene                              
 POSCAR =  C2_bilayer                              

 Startparameter for this run:
   NWRITE =      2    write-flag & timer
   PREC   = accura    normal or accurate (medium, high low for compatibility)
   ISTART =      0    job   : 0-new  1-cont  2-samecut
   ICHARG =      2    charge: 1-file 2-atom 10-const
   ISPIN  =      1    spin polarized calculation?
   LNONCOLLINEAR =      F non collinear calculations
   LSORBIT =      F    spin-orbit coupling
   INIWAV =      1    electr: 0-lowe 1-rand  2-diag
   LASPH  =      F    aspherical Exc in radial PAW
   METAGGA=      F    non-selfconsistent MetaGGA calc.

 Electronic Relaxation 1
   ENCUT  =  800.0 eV  58.80 Ry    7.67 a.u.   5.67  5.67 46.12*2*pi/ulx,y,z
   ENINI  =  800.0     initial cutoff
   ENAUG  =  644.9 eV  augmentation charge cutoff
   NELM   =     60;   NELMIN=  5; NELMDL= -5     # of ELM steps 
   EDIFF  = 0.1E-07   stopping-criterion for ELM
   LREAL  =      F    real-space projection
   NLSPLINE    = F    spline interpolate recip. space projectors
   LCOMPAT=      F    compatible to vasp.4.4
   GGA_COMPAT  = T    GGA compatible to vasp.4.4-vasp.4.6
   LMAXPAW     = -100 max onsite density
   LMAXMIX     =    2 max onsite mixed and CHGCAR
   VOSKOWN=      0    Vosko Wilk Nusair interpolation
   ROPT   =    0.00000
 Ionic relaxation
   EDIFFG = 0.1E-06   stopping-criterion for IOM
   NSW    =      1    number of steps for IOM
   NBLOCK =      1;   KBLOCK =      1    inner block; outer block 
   IBRION =     -1    ionic relax: 0-MD 1-quasi-New 2-CG
   NFREE  =      0    steps in history (QN), initial steepest desc. (CG)
   ISIF   =      2    stress and relaxation
   IWAVPR =     10    prediction:  0-non 1-charg 2-wave 3-comb
   ISYM   =      2    0-nonsym 1-usesym 2-fastsym
   LCORR  =      T    Harris-Foulkes like correction to forces

   POTIM  = 0.5000    time-step for ionic-motion
   TEIN   =    0.0    initial temperature
   TEBEG  =    0.0;   TEEND  =   0.0 temperature during run
   SMASS  =  -3.00    Nose mass-parameter (am)
   estimated Nose-frequenzy (Omega)   =  0.10E-29 period in steps =****** mass=  -0.138E-27a.u.
   SCALEE = 1.0000    scale energy and forces
   NPACO  =    256;   APACO  = 16.0  distance and # of slots for P.C.
   PSTRESS=    0.0 pullay stress

  Mass of Ions in am
   POMASS =  12.01
  Ionic Valenz
   ZVAL   =   4.00
  Atomic Wigner-Seitz radii
   RWIGS  =  -1.00
  virtual crystal weights 
   VCA    =   1.00
   NELECT =      16.0000    total number of electrons
   NUPDOWN=      -1.0000    fix difference up-down

 DOS related values:
   EMIN   =  10.00;   EMAX   =-10.00  energy-range for DOS
   EFERMI =   0.00
   ISMEAR =     0;   SIGMA  =   0.01  broadening in eV -4-tet -1-fermi 0-gaus

 Electronic relaxation 2 (details)
   IALGO  =     38    algorithm
   LDIAG  =      T    sub-space diagonalisation (order eigenvalues)
   LSUBROT=      F    optimize rotation matrix (better conditioning)
   TURBO    =      0    0=normal 1=particle mesh
   IRESTART =      0    0=no restart 2=restart with 2 vectors
   NREBOOT  =      0    no. of reboots
   NMIN     =      0    reboot dimension
   EREF     =   0.00    reference energy to select bands
   IMIX   =      4    mixing-type and parameters
     AMIX     =   0.40;   BMIX     =  1.00
     AMIX_MAG =   1.60;   BMIX_MAG =  1.00
     AMIN     =   0.01
     WC   =   100.;   INIMIX=   1;  MIXPRE=   1;  MAXMIX= -45

 Intra band minimization:
   WEIMIN = 0.0000     energy-eigenvalue tresh-hold
   EBREAK =  0.21E-09  absolut break condition
   DEPER  =   0.30     relativ break condition  

   TIME   =   0.40     timestep for ELM

  volume/ion in A,a.u.               =      26.19       176.76
  Fermi-wavevector in a.u.,A,eV,Ry     =   0.875041  1.653589 10.417948  0.765698
  Thomas-Fermi vector in A             =   1.994657
 
 Write flags
   LWAVE        =      F    write WAVECAR
   LDOWNSAMPLE  =      F    k-point downsampling of WAVECAR
   LCHARG       =      T    write CHGCAR
   LVTOT        =      F    write LOCPOT, total local potential
   LVHAR        =      F    write LOCPOT, Hartree potential only
   LELF         =      F    write electronic localiz. function (ELF)
   LORBIT       =      0    0 simple, 1 ext, 2 COOP (PROOUT), +10 PAW based schemes


 Dipole corrections
   LMONO  =      F    monopole corrections only (constant potential shift)
   LDIPOL =      F    correct potential (dipole corrections)
   IDIPOL =      0    1-x, 2-y, 3-z, 4-all directions 
   EPSILON=  1.0000000 bulk dielectric constant

 Exchange correlation treatment:
   GGA     =    --    GGA type
   LEXCH   =     8    internal setting for exchange type
   VOSKOWN=      0    Vosko Wilk Nusair interpolation
   LHFCALC =     F    Hartree Fock is set to
   LHFONE  =     F    Hartree Fock one center treatment
   AEXX    =    0.0000 exact exchange contribution

 Linear response parameters
   LEPSILON=     F    determine dielectric tensor
   LRPA    =     F    only Hartree local field effects (RPA)
   LNABLA  =     F    use nabla operator in PAW spheres
   LVEL    =     F    velocity operator in full k-point grid
   LINTERFAST=   F  fast interpolation
   KINTER  =     0    interpolate to denser k-point grid
   CSHIFT  =0.1000    complex shift for real part using Kramers Kronig
   OMEGAMAX=  -1.0    maximum frequency
   DEG_THRESHOLD= 0.2000000E-02 threshold for treating states as degnerate
   RTIME   =   -0.100 relaxation time in fs
  (WPLASMAI=    0.000 imaginary part of plasma frequency in eV, 0.658/RTIME)
   DFIELD  = 0.0000000 0.0000000 0.0000000 field for delta impulse in time
 
 Orbital magnetization related:
   ORBITALMAG=     F  switch on orbital magnetization
   LCHIMAG   =     F  perturbation theory with respect to B field
   DQ        =  0.001000  dq finite difference perturbation B field
   LLRAUG    =     F  two centre corrections for induced B field



--------------------------------------------------------------------------------------------------------


 Static calculation
 charge density and potential will be updated during run
 non-spin polarized calculation
 Variant of blocked Davidson
 Davidson routine will perform the subspace rotation
 perform sub-space diagonalisation
    after iterative eigenvector-optimisation
 modified Broyden-mixing scheme, WC =      100.0
 initial mixing is a Kerker type mixing with AMIX =  0.4000 and BMIX =      1.0000
 Hartree-type preconditioning will be used
 using additional bands            4
 reciprocal scheme for non local part
 use partial core corrections
 calculate Harris-corrections to forces 
   (improved forces if not selfconsistent)
 use gradient corrections 
 use of overlap-Matrix (Vanderbilt PP)
 Gauss-broadening in eV      SIGMA  =   0.01


--------------------------------------------------------------------------------------------------------


  energy-cutoff  :      800.00
  volume of cell :      104.78
      direct lattice vectors                 reciprocal lattice vectors
     2.130000000 -1.229756000  0.000000000     0.234741784 -0.406584721  0.000000000
     2.130000000  1.229756000  0.000000000     0.234741784  0.406584721  0.000000000
     0.000000000  0.000000000 20.000000000     0.000000000  0.000000000  0.050000000

  length of vectors
     2.459512110  2.459512110 20.000000000     0.469483589  0.469483589  0.050000000


 
 k-points in units of 2pi/SCALE and weight: k grid                                  
   0.00000000  0.00000000  0.00000000       0.002
   0.01117818 -0.01936118  0.00000000       0.014
   0.02235636 -0.03872235  0.00000000       0.014
   0.03353454 -0.05808353  0.00000000       0.014
   0.04471272 -0.07744471  0.00000000       0.014
   0.05589090 -0.09680589  0.00000000       0.014
   0.06706908 -0.11616706  0.00000000       0.014
   0.07824726 -0.13552824  0.00000000       0.014
   0.08942544 -0.15488942  0.00000000       0.014
   0.10060362 -0.17425059  0.00000000       0.014
   0.11178180 -0.19361177  0.00000000       0.014
   0.03353454 -0.01936118  0.00000000       0.014
   0.04471272 -0.03872235  0.00000000       0.027
   0.05589090 -0.05808353  0.00000000       0.027
   0.06706908 -0.07744471  0.00000000       0.027
   0.07824726 -0.09680589  0.00000000       0.027
   0.08942544 -0.11616706  0.00000000       0.027
   0.10060362 -0.13552824  0.00000000       0.027
   0.11178180 -0.15488942  0.00000000       0.027
   0.12295998 -0.17425059  0.00000000       0.027
  -0.10060362  0.21297295  0.00000000       0.014
   0.06706908 -0.03872235  0.00000000       0.014
   0.07824726 -0.05808353  0.00000000       0.027
   0.08942544 -0.07744471  0.00000000       0.027
   0.10060362 -0.09680589  0.00000000       0.027
   0.11178180 -0.11616706  0.00000000       0.027
   0.12295998 -0.13552824  0.00000000       0.027
   0.13413816 -0.15488942  0.00000000       0.027
  -0.08942544  0.23233413  0.00000000       0.027
   0.10060362 -0.05808353  0.00000000       0.014
   0.11178180 -0.07744471  0.00000000       0.027
   0.12295998 -0.09680589  0.00000000       0.027
   0.13413816 -0.11616706  0.00000000       0.027
   0.14531634 -0.13552824  0.00000000       0.027
  -0.07824726  0.25169530  0.00000000       0.027
  -0.06706908  0.23233413  0.00000000       0.014
   0.13413816 -0.07744471  0.00000000       0.014
   0.14531634 -0.09680589  0.00000000       0.027
   0.15649452 -0.11616706  0.00000000       0.027
  -0.06706908  0.27105648  0.00000000       0.027
  -0.05589090  0.25169530  0.00000000       0.027
   0.16767270 -0.09680589  0.00000000       0.014
  -0.05589090  0.29041766  0.00000000       0.027
  -0.04471272  0.27105648  0.00000000       0.027
  -0.03353454  0.25169530  0.00000000       0.014
  -0.03353454  0.29041766  0.00000000       0.014
  -0.02235636  0.27105648  0.00000000       0.027
   0.00000000  0.27105648  0.00000000       0.005
 
 k-points in reciprocal lattice and weights: k grid                                  
   0.00000000  0.00000000  0.00000000       0.002
   0.04761905  0.00000000  0.00000000       0.014
   0.09523810  0.00000000  0.00000000       0.014
   0.14285714  0.00000000  0.00000000       0.014
   0.19047619  0.00000000  0.00000000       0.014
   0.23809524  0.00000000  0.00000000       0.014
   0.28571429  0.00000000  0.00000000       0.014
   0.33333333  0.00000000  0.00000000       0.014
   0.38095238  0.00000000  0.00000000       0.014
   0.42857143  0.00000000  0.00000000       0.014
   0.47619048  0.00000000  0.00000000       0.014
   0.09523810  0.04761905  0.00000000       0.014
   0.14285714  0.04761905  0.00000000       0.027
   0.19047619  0.04761905  0.00000000       0.027
   0.23809524  0.04761905  0.00000000       0.027
   0.28571429  0.04761905  0.00000000       0.027
   0.33333333  0.04761905  0.00000000       0.027
   0.38095238  0.04761905  0.00000000       0.027
   0.42857143  0.04761905  0.00000000       0.027
   0.47619048  0.04761905  0.00000000       0.027
  -0.47619048  0.04761905  0.00000000       0.014
   0.19047619  0.09523810  0.00000000       0.014
   0.23809524  0.09523810  0.00000000       0.027
   0.28571429  0.09523810  0.00000000       0.027
   0.33333333  0.09523810  0.00000000       0.027
   0.38095238  0.09523810  0.00000000       0.027
   0.42857143  0.09523810  0.00000000       0.027
   0.47619048  0.09523810  0.00000000       0.027
  -0.47619048  0.09523810  0.00000000       0.027
   0.28571429  0.14285714  0.00000000       0.014
   0.33333333  0.14285714  0.00000000       0.027
   0.38095238  0.14285714  0.00000000       0.027
   0.42857143  0.14285714  0.00000000       0.027
   0.47619048  0.14285714  0.00000000       0.027
  -0.47619048  0.14285714  0.00000000       0.027
  -0.42857143  0.14285714  0.00000000       0.014
   0.38095238  0.19047619  0.00000000       0.014
   0.42857143  0.19047619  0.00000000       0.027
   0.47619048  0.19047619  0.00000000       0.027
  -0.47619048  0.19047619  0.00000000       0.027
  -0.42857143  0.19047619  0.00000000       0.027
   0.47619048  0.23809524  0.00000000       0.014
  -0.47619048  0.23809524  0.00000000       0.027
  -0.42857143  0.23809524  0.00000000       0.027
  -0.38095238  0.23809524  0.00000000       0.014
  -0.42857143  0.28571429  0.00000000       0.014
  -0.38095238  0.28571429  0.00000000       0.027
  -0.33333333  0.33333333  0.00000000       0.005
 
 position of ions in fractional coordinates (direct lattice) 
   0.00000000  0.00000000  0.00000000
   0.33333300  0.33333300  0.00000000
   0.00000000  0.00000000  0.17000000
   0.33333300  0.33333300  0.17000000
 
 position of ions in cartesian coordinates  (Angst):
   0.00000000  0.00000000  0.00000000
   1.41999858  0.00000000  0.00000000
   0.00000000  0.00000000  3.40000000
   1.41999858  0.00000000  3.40000000
 


--------------------------------------------------------------------------------------------------------


 k-point  1 :   0.0000 0.0000 0.0000  plane waves:    5409
 k-point  2 :   0.0476 0.0000 0.0000  plane waves:    5413
 k-point  3 :   0.0952 0.0000 0.0000  plane waves:    5402
 k-point  4 :   0.1429 0.0000 0.0000  plane waves:    5398
 k-point  5 :   0.1905 0.0000 0.0000  plane waves:    5404
 k-point  6 :   0.2381 0.0000 0.0000  plane waves:    5408
 k-point  7 :   0.2857 0.0000 0.0000  plane waves:    5404
 k-point  8 :   0.3333 0.0000 0.0000  plane waves:    5394
 k-point  9 :   0.3810 0.0000 0.0000  plane waves:    5382
 k-point 10 :   0.4286 0.0000 0.0000  plane waves:    5396
 k-point 11 :   0.4762 0.0000 0.0000  plane waves:    5380
 k-point 12 :   0.0952 0.0476 0.0000  plane waves:    5411
 k-point 13 :   0.1429 0.0476 0.0000  plane waves:    5415
 k-point 14 :   0.1905 0.0476 0.0000  plane waves:    5413
 k-point 15 :   0.2381 0.0476 0.0000  plane waves:    5399
 k-point 16 :   0.2857 0.0476 0.0000  plane waves:    5396
 k-point 17 :   0.3333 0.0476 0.0000  plane waves:    5389
 k-point 18 :   0.3810 0.0476 0.0000  plane waves:    5378
 k-point 19 :   0.4286 0.0476 0.0000  plane waves:    5381
 k-point 20 :   0.4762 0.0476 0.0000  plane waves:    5391
 k-point 21 :  -0.4762 0.0476 0.0000  plane waves:    5394
 k-point 22 :   0.1905 0.0952 0.0000  plane waves:    5403
 k-point 23 :   0.2381 0.0952 0.0000  plane waves:    5409
 k-point 24 :   0.2857 0.0952 0.0000  plane waves:    5419
 k-point 25 :   0.3333 0.0952 0.0000  plane waves:    5384
 k-point 26 :   0.3810 0.0952 0.0000  plane waves:    5369
 k-point 27 :   0.4286 0.0952 0.0000  plane waves:    5364
 k-point 28 :   0.4762 0.0952 0.0000  plane waves:    5382
 k-point 29 :  -0.4762 0.0952 0.0000  plane waves:    5404
 k-point 30 :   0.2857 0.1429 0.0000  plane waves:    5405
 k-point 31 :   0.3333 0.1429 0.0000  plane waves:    5404
 k-point 32 :   0.3810 0.1429 0.0000  plane waves:    5382
 k-point 33 :   0.4286 0.1429 0.0000  plane waves:    5347
 k-point 34 :   0.4762 0.1429 0.0000  plane waves:    5367
 k-point 35 :  -0.4762 0.1429 0.0000  plane waves:    5376
 k-point 36 :  -0.4286 0.1429 0.0000  plane waves:    5400
 k-point 37 :   0.3810 0.1905 0.0000  plane waves:    5390
 k-point 38 :   0.4286 0.1905 0.0000  plane waves:    5358
 k-point 39 :   0.4762 0.1905 0.0000  plane waves:    5365
 k-point 40 :  -0.4762 0.1905 0.0000  plane waves:    5363
 k-point 41 :  -0.4286 0.1905 0.0000  plane waves:    5377
 k-point 42 :   0.4762 0.2381 0.0000  plane waves:    5364
 k-point 43 :  -0.4762 0.2381 0.0000  plane waves:    5368
 k-point 44 :  -0.4286 0.2381 0.0000  plane waves:    5360
 k-point 45 :  -0.3810 0.2381 0.0000  plane waves:    5366
 k-point 46 :  -0.4286 0.2857 0.0000  plane waves:    5362
 k-point 47 :  -0.3810 0.2857 0.0000  plane waves:    5326
 k-point 48 :  -0.3333 0.3333 0.0000  plane waves:    5334

 maximum and minimum number of plane-waves per node :      5419     5326

 maximum number of plane-waves:      5419
 maximum index in each direction: 
   IXMAX=    6   IYMAX=    5   IZMAX=   46
   IXMIN=   -6   IYMIN=   -5   IZMIN=  -46


 serial   3D FFT for wavefunctions
 parallel 3D FFT for charge:
    minimum data exchange during FFTs selected (reduces bandwidth)


 total amount of memory used by VASP MPI-rank0   107376. kBytes
=======================================================================

   base      :      30000. kBytes
   nonl-proj :      16997. kBytes
   fftplans  :      32720. kBytes
   grid      :      15086. kBytes
   one-center:         12. kBytes
   wavefun   :      12561. kBytes
 
     INWAV:  cpu time    0.0000: real time    0.0001
 Broyden mixing: mesh for mixing (old mesh)
   NGX = 11   NGY = 11   NGZ = 93
  (NGX  = 48   NGY  = 48   NGZ  =384)
  gives a total of  11253 points

 initial charge density was supplied:
 charge density of overlapping atoms calculated
 number of electron      16.0000000 magnetization 
 keeping initial charge density in first step


--------------------------------------------------------------------------------------------------------


 Maximum index for augmentation-charges        24154 (set IRDMAX)


--------------------------------------------------------------------------------------------------------


 First call to EWALD:  gamma=   0.376
 Maximum number of real-space cells 5x 5x 1
 Maximum number of reciprocal cells 2x 2x10

    FEWALD:  cpu time    0.0011: real time    0.0011


--------------------------------------- Iteration      1(   1)  ---------------------------------------


    POTLOK:  cpu time    0.0861: real time    0.1028
    SETDIJ:  cpu time    0.0413: real time    0.0414
     EDDAV:  cpu time    1.4560: real time    1.4609
       DOS:  cpu time    0.0004: real time    0.0004
    --------------------------------------------
      LOOP:  cpu time    1.5838: real time    1.6055

 eigenvalue-minimisations  :  1152
 total energy-change (2. order) : 0.1289479E+03  (-0.8014393E+03)
 number of electron      16.0000000 magnetization 
 augmentation part       16.0000000 magnetization 

 Free energy of the ion-electron system (eV)
  ---------------------------------------------------
  alpha Z        PSCENC =        12.54445055
  Ewald energy   TEWEN  =      3171.27724855
  -Hartree energ DENC   =     -3632.75461606
  -exchange      EXHF   =         0.00000000
  -V(xc)+E(xc)   XCENC  =        52.91909786
  PAW double counting   =       434.08818552     -436.36580876
  entropy T*S    EENTRO =        -0.00013249
  eigenvalues    EBANDS =       -61.37819400
  atomic energy  EATOM  =       588.61769381
  Solvation  Ediel_sol  =         0.00000000
  ---------------------------------------------------
  free energy    TOTEN  =       128.94792498 eV

  energy without entropy =      128.94805747  energy(sigma->0) =      128.94799123


--------------------------------------------------------------------------------------------------------




--------------------------------------- Iteration      1(   2)  ---------------------------------------


     EDDAV:  cpu time    2.0267: real time    2.0332
       DOS:  cpu time    0.0004: real time    0.0004
    --------------------------------------------
      LOOP:  cpu time    2.0271: real time    2.0336

 eigenvalue-minimisations  :  1844
 total energy-change (2. order) :-0.1533625E+03  (-0.1394857E+03)
 number of electron      16.0000000 magnetization 
 augmentation part       16.0000000 magnetization 

 Free energy of the ion-electron system (eV)
  ---------------------------------------------------
  alpha Z        PSCENC =        12.54445055
  Ewald energy   TEWEN  =      3171.27724855
  -Hartree energ DENC   =     -3632.75461606
  -exchange      EXHF   =         0.00000000
  -V(xc)+E(xc)   XCENC  =        52.91909786
  PAW double counting   =       434.08818552     -436.36580876
  entropy T*S    EENTRO =        -0.00012229
  eigenvalues    EBANDS =      -214.74068699
  atomic energy  EATOM  =       588.61769381
  Solvation  Ediel_sol  =         0.00000000
  ---------------------------------------------------
  free energy    TOTEN  =       -24.41455781 eV

  energy without entropy =      -24.41443552  energy(sigma->0) =      -24.41449666


--------------------------------------------------------------------------------------------------------




--------------------------------------- Iteration      1(   3)  ---------------------------------------


     EDDAV:  cpu time    1.6748: real time    1.6804
       DOS:  cpu time    0.0002: real time    0.0002
    --------------------------------------------
      LOOP:  cpu time    1.6749: real time    1.6805

 eigenvalue-minimisations  :  1444
 total energy-change (2. order) :-0.1465561E+02  (-0.1429871E+02)
 number of electron      16.0000000 magnetization 
 augmentation part       16.0000000 magnetization 

 Free energy of the ion-electron system (eV)
  ---------------------------------------------------
  alpha Z        PSCENC =        12.54445055
  Ewald energy   TEWEN  =      3171.27724855
  -Hartree energ DENC   =     -3632.75461606
  -exchange      EXHF   =         0.00000000
  -V(xc)+E(xc)   XCENC  =        52.91909786
  PAW double counting   =       434.08818552     -436.36580876
  entropy T*S    EENTRO =        -0.00000000
  eigenvalues    EBANDS =      -229.39641931
  atomic energy  EATOM  =       588.61769381
  Solvation  Ediel_sol  =         0.00000000
  ---------------------------------------------------
  free energy    TOTEN  =       -39.07016784 eV

  energy without entropy =      -39.07016784  energy(sigma->0) =      -39.07016784


--------------------------------------------------------------------------------------------------------




--------------------------------------- Iteration      1(   4)  ---------------------------------------


     EDDAV:  cpu time    1.6847: real time    1.6902
       DOS:  cpu time    0.0002: real time    0.0002
    --------------------------------------------
      LOOP:  cpu time    1.6849: real time    1.6903

 eigenvalue-minimisations  :  1444
 total energy-change (2. order) :-0.3316403E+00  (-0.3306972E+00)
 number of electron      16.0000000 magnetization 
 augmentation part       16.0000000 magnetization 

 Free energy of the ion-electron system (eV)
  ---------------------------------------------------
  alpha Z        PSCENC =        12.54445055
  Ewald energy   TEWEN  =      3171.27724855
  -Hartree energ DENC   =     -3632.75461606
  -exchange      EXHF   =         0.00000000
  -V(xc)+E(xc)   XCENC  =        52.91909786
  PAW double counting   =       434.08818552     -436.36580876
  entropy T*S    EENTRO =        -0.00000000
  eigenvalues    EBANDS =      -229.72805960
  atomic energy  EATOM  =       588.61769381
  Solvation  Ediel_sol  =         0.00000000
  ---------------------------------------------------
  free energy    TOTEN  =       -39.40180813 eV

  energy without entropy =      -39.40180813  energy(sigma->0) =      -39.40180813


--------------------------------------------------------------------------------------------------------




--------------------------------------- Iteration      1(   5)  ---------------------------------------


     EDDAV:  cpu time    1.7185: real time    1.7261
       DOS:  cpu time    0.0002: real time    0.0002
    CHARGE:  cpu time    0.1877: real time    0.1882
    MIXING:  cpu time    0.0024: real time    0.0025
    --------------------------------------------
      LOOP:  cpu time    1.9089: real time    1.9169

 eigenvalue-minimisations  :  1488
 total energy-change (2. order) :-0.9722676E-02  (-0.9705242E-02)
 number of electron      16.0000000 magnetization 
 augmentation part        0.4275499 magnetization 

 Broyden mixing:
  rms(total) = 0.90212E+00    rms(broyden)= 0.90211E+00
  rms(prec ) = 0.96345E+00
  weight for this iteration     100.00

 Free energy of the ion-electron system (eV)
  ---------------------------------------------------
  alpha Z        PSCENC =        12.54445055
  Ewald energy   TEWEN  =      3171.27724855
  -Hartree energ DENC   =     -3632.75461606
  -exchange      EXHF   =         0.00000000
  -V(xc)+E(xc)   XCENC  =        52.91909786
  PAW double counting   =       434.08818552     -436.36580876
  entropy T*S    EENTRO =        -0.00000000
  eigenvalues    EBANDS =      -229.73778227
  atomic energy  EATOM  =       588.61769381
  Solvation  Ediel_sol  =         0.00000000
  ---------------------------------------------------
  free energy    TOTEN  =       -39.41153080 eV

  energy without entropy =      -39.41153080  energy(sigma->0) =      -39.41153080


--------------------------------------------------------------------------------------------------------




--------------------------------------- Iteration      1(   6)  ---------------------------------------


    POTLOK:  cpu time    0.0740: real time    0.0743
    SETDIJ:  cpu time    0.0368: real time    0.0369
     EDDAV:  cpu time    1.6262: real time    1.6313
       DOS:  cpu time    0.0002: real time    0.0002
    CHARGE:  cpu time    0.1819: real time    0.1824
    MIXING:  cpu time    0.0027: real time    0.0027
    --------------------------------------------
      LOOP:  cpu time    1.9218: real time    1.9278

 eigenvalue-minimisations  :  1380
 total energy-change (2. order) : 0.1850053E+01  (-0.1737956E+00)
 number of electron      16.0000000 magnetization 
 augmentation part        0.4086284 magnetization 

 Broyden mixing:
  rms(total) = 0.52893E+00    rms(broyden)= 0.52893E+00
  rms(prec ) = 0.55879E+00
  weight for this iteration     100.00

 eigenvalues of (default mixing * dielectric matrix)
  average eigenvalue GAMMA=   2.2054
  2.2054

 Free energy of the ion-electron system (eV)
  ---------------------------------------------------
  alpha Z        PSCENC =        12.54445055
  Ewald energy   TEWEN  =      3171.27724855
  -Hartree energ DENC   =     -3651.93537989
  -exchange      EXHF   =         0.00000000
  -V(xc)+E(xc)   XCENC  =        53.90584244
  PAW double counting   =       803.34436559     -805.91985934
  entropy T*S    EENTRO =        -0.00000000
  eigenvalues    EBANDS =      -209.39583980
  atomic energy  EATOM  =       588.61769381
  Solvation  Ediel_sol  =         0.00000000
  ---------------------------------------------------
  free energy    TOTEN  =       -37.56147809 eV

  energy without entropy =      -37.56147809  energy(sigma->0) =      -37.56147809


--------------------------------------------------------------------------------------------------------




--------------------------------------- Iteration      1(   7)  ---------------------------------------


    POTLOK:  cpu time    0.0733: real time    0.0760
    SETDIJ:  cpu time    0.0360: real time    0.0360
     EDDAV:  cpu time    1.6596: real time    1.6649
       DOS:  cpu time    0.0002: real time    0.0002
    CHARGE:  cpu time    0.1748: real time    0.1752
    MIXING:  cpu time    0.0027: real time    0.0027
    --------------------------------------------
      LOOP:  cpu time    1.9464: real time    1.9550

 eigenvalue-minimisations  :  1428
 total energy-change (2. order) : 0.6536713E+00  (-0.2218585E+00)
 number of electron      16.0000000 magnetization 
 augmentation part        0.3866834 magnetization 

 Broyden mixing:
  rms(total) = 0.13595E+00    rms(broyden)= 0.13595E+00
  rms(prec ) = 0.14210E+00
  weight for this iteration     100.00

 eigenvalues of (default mixing * dielectric matrix)
  average eigenvalue GAMMA=   2.2627
  2.1361  2.3894

 Free energy of the ion-electron system (eV)
  ---------------------------------------------------
  alpha Z        PSCENC =        12.54445055
  Ewald energy   TEWEN  =      3171.27724855
  -Hartree energ DENC   =     -3676.74336307
  -exchange      EXHF   =         0.00000000
  -V(xc)+E(xc)   XCENC  =        55.17507926
  PAW double counting   =      1519.36473435    -1522.20311006
  entropy T*S    EENTRO =        -0.00000000
  eigenvalues    EBANDS =      -184.94054016
  atomic energy  EATOM  =       588.61769381
  Solvation  Ediel_sol  =         0.00000000
  ---------------------------------------------------
  free energy    TOTEN  =       -36.90780676 eV

  energy without entropy =      -36.90780676  energy(sigma->0) =      -36.90780676


--------------------------------------------------------------------------------------------------------




--------------------------------------- Iteration      1(   8)  ---------------------------------------


    POTLOK:  cpu time    0.0719: real time    0.0746
    SETDIJ:  cpu time    0.0352: real time    0.0353
     EDDAV:  cpu time    1.6685: real time    1.6736
       DOS:  cpu time    0.0002: real time    0.0002
    CHARGE:  cpu time    0.1815: real time    0.1819
    MIXING:  cpu time    0.0028: real time    0.0028
    --------------------------------------------
      LOOP:  cpu time    1.9601: real time    1.9683

 eigenvalue-minimisations  :  1396
 total energy-change (2. order) : 0.7475270E-02  (-0.8320432E-02)
 number of electron      16.0000000 magnetization 
 augmentation part        0.3863221 magnetization 

 Broyden mixing:
  rms(total) = 0.12532E-01    rms(broyden)= 0.12531E-01
  rms(prec ) = 0.28708E-01
  weight for this iteration     100.00

 eigenvalues of (default mixing * dielectric matrix)
  average eigenvalue GAMMA=   1.8439
  1.0864  2.3521  2.0933

 Free energy of the ion-electron system (eV)
  ---------------------------------------------------
  alpha Z        PSCENC =        12.54445055
  Ewald energy   TEWEN  =      3171.27724855
  -Hartree energ DENC   =     -3678.73020380
  -exchange      EXHF   =         0.00000000
  -V(xc)+E(xc)   XCENC  =        55.13943185
  PAW double counting   =      1708.16555589    -1710.89219161
  entropy T*S    EENTRO =        -0.00000000
  eigenvalues    EBANDS =      -183.02231673
  atomic energy  EATOM  =       588.61769381
  Solvation  Ediel_sol  =         0.00000000
  ---------------------------------------------------
  free energy    TOTEN  =       -36.90033149 eV

  energy without entropy =      -36.90033149  energy(sigma->0) =      -36.90033149


--------------------------------------------------------------------------------------------------------




--------------------------------------- Iteration      1(   9)  ---------------------------------------


    POTLOK:  cpu time    0.0731: real time    0.0734
    SETDIJ:  cpu time    0.0381: real time    0.0382
     EDDAV:  cpu time    1.7348: real time    1.7400
       DOS:  cpu time    0.0002: real time    0.0002
    CHARGE:  cpu time    0.1768: real time    0.1772
    MIXING:  cpu time    0.0028: real time    0.0028
    --------------------------------------------
      LOOP:  cpu time    2.0257: real time    2.0317

 eigenvalue-minimisations  :  1480
 total energy-change (2. order) : 0.2286795E-02  (-0.3526697E-03)
 number of electron      16.0000000 magnetization 
 augmentation part        0.3858298 magnetization 

 Broyden mixing:
  rms(total) = 0.96901E-02    rms(broyden)= 0.96901E-02
  rms(prec ) = 0.25803E-01
  weight for this iteration     100.00

 eigenvalues of (default mixing * dielectric matrix)
  average eigenvalue GAMMA=   1.9670
  1.0778  2.4169  2.4169  1.9563

 Free energy of the ion-electron system (eV)
  ---------------------------------------------------
  alpha Z        PSCENC =        12.54445055
  Ewald energy   TEWEN  =      3171.27724855
  -Hartree energ DENC   =     -3680.00899408
  -exchange      EXHF   =         0.00000000
  -V(xc)+E(xc)   XCENC  =        55.16440119
  PAW double counting   =      1705.73752958    -1708.46726322
  entropy T*S    EENTRO =        -0.00000000
  eigenvalues    EBANDS =      -181.76311108
  atomic energy  EATOM  =       588.61769381
  Solvation  Ediel_sol  =         0.00000000
  ---------------------------------------------------
  free energy    TOTEN  =       -36.89804469 eV

  energy without entropy =      -36.89804469  energy(sigma->0) =      -36.89804469


--------------------------------------------------------------------------------------------------------




--------------------------------------- Iteration      1(  10)  ---------------------------------------


    POTLOK:  cpu time    0.0728: real time    0.0731
    SETDIJ:  cpu time    0.0379: real time    0.0380
     EDDAV:  cpu time    1.6683: real time    1.6733
       DOS:  cpu time    0.0002: real time    0.0002
    CHARGE:  cpu time    0.1769: real time    0.1773
    MIXING:  cpu time    0.0029: real time    0.0029
    --------------------------------------------
      LOOP:  cpu time    1.9590: real time    1.9648

 eigenvalue-minimisations  :  1400
 total energy-change (2. order) : 0.6235207E-02  (-0.2917311E-03)
 number of electron      16.0000000 magnetization 
 augmentation part        0.3853498 magnetization 

 Broyden mixing:
  rms(total) = 0.86587E-02    rms(broyden)= 0.86586E-02
  rms(prec ) = 0.19893E-01
  weight for this iteration     100.00

 eigenvalues of (default mixing * dielectric matrix)
  average eigenvalue GAMMA=   1.8850
  2.9763  2.5654  1.9483  1.0847  0.8501

 Free energy of the ion-electron system (eV)
  ---------------------------------------------------
  alpha Z        PSCENC =        12.54445055
  Ewald energy   TEWEN  =      3171.27724855
  -Hartree energ DENC   =     -3683.86404335
  -exchange      EXHF   =         0.00000000
  -V(xc)+E(xc)   XCENC  =        55.21064945
  PAW double counting   =      1689.76460154    -1692.49267882
  entropy T*S    EENTRO =        -0.00000000
  eigenvalues    EBANDS =      -177.94973122
  atomic energy  EATOM  =       588.61769381
  Solvation  Ediel_sol  =         0.00000000
  ---------------------------------------------------
  free energy    TOTEN  =       -36.89180949 eV

  energy without entropy =      -36.89180949  energy(sigma->0) =      -36.89180949


--------------------------------------------------------------------------------------------------------




--------------------------------------- Iteration      1(  11)  ---------------------------------------


    POTLOK:  cpu time    0.0710: real time    0.0713
    SETDIJ:  cpu time    0.0343: real time    0.0344
     EDDAV:  cpu time    1.5987: real time    1.6034
       DOS:  cpu time    0.0002: real time    0.0002
    CHARGE:  cpu time    0.1854: real time    0.1858
    MIXING:  cpu time    0.0033: real time    0.0033
    --------------------------------------------
      LOOP:  cpu time    1.8929: real time    1.8983

 eigenvalue-minimisations  :  1356
 total energy-change (2. order) : 0.3308407E-02  (-0.1375567E-03)
 number of electron      16.0000000 magnetization 
 augmentation part        0.3852472 magnetization 

 Broyden mixing:
  rms(total) = 0.53203E-02    rms(broyden)= 0.53203E-02
  rms(prec ) = 0.15197E-01
  weight for this iteration     100.00

 eigenvalues of (default mixing * dielectric matrix)
  average eigenvalue GAMMA=   2.0902
  4.2610  2.4201  2.0976  0.9858  1.3883  1.3883

 Free energy of the ion-electron system (eV)
  ---------------------------------------------------
  alpha Z        PSCENC =        12.54445055
  Ewald energy   TEWEN  =      3171.27724855
  -Hartree energ DENC   =     -3686.29882995
  -exchange      EXHF   =         0.00000000
  -V(xc)+E(xc)   XCENC  =        55.22795837
  PAW double counting   =      1702.49108008    -1705.21139247
  entropy T*S    EENTRO =        -0.00000000
  eigenvalues    EBANDS =      -175.53671002
  atomic energy  EATOM  =       588.61769381
  Solvation  Ediel_sol  =         0.00000000
  ---------------------------------------------------
  free energy    TOTEN  =       -36.88850108 eV

  energy without entropy =      -36.88850108  energy(sigma->0) =      -36.88850108


--------------------------------------------------------------------------------------------------------




--------------------------------------- Iteration      1(  12)  ---------------------------------------


    POTLOK:  cpu time    0.0699: real time    0.0703
    SETDIJ:  cpu time    0.0354: real time    0.0355
     EDDAV:  cpu time    1.5108: real time    1.5154
       DOS:  cpu time    0.0002: real time    0.0002
    CHARGE:  cpu time    0.1832: real time    0.1836
    MIXING:  cpu time    0.0032: real time    0.0032
    --------------------------------------------
      LOOP:  cpu time    1.8026: real time    1.8081

 eigenvalue-minimisations  :  1244
 total energy-change (2. order) : 0.3839070E-02  (-0.1763219E-03)
 number of electron      16.0000000 magnetization 
 augmentation part        0.3850419 magnetization 

 Broyden mixing:
  rms(total) = 0.35193E-02    rms(broyden)= 0.35193E-02
  rms(prec ) = 0.10970E-01
  weight for this iteration     100.00

 eigenvalues of (default mixing * dielectric matrix)
  average eigenvalue GAMMA=   2.4327
  6.4615  2.7494  2.1978  2.0678  1.4523  1.0222  1.0780

 Free energy of the ion-electron system (eV)
  ---------------------------------------------------
  alpha Z        PSCENC =        12.54445055
  Ewald energy   TEWEN  =      3171.27724855
  -Hartree energ DENC   =     -3689.58990607
  -exchange      EXHF   =         0.00000000
  -V(xc)+E(xc)   XCENC  =        55.24158177
  PAW double counting   =      1698.83270041    -1701.55671319
  entropy T*S    EENTRO =        -0.00000000
  eigenvalues    EBANDS =      -172.25171784
  atomic energy  EATOM  =       588.61769381
  Solvation  Ediel_sol  =         0.00000000
  ---------------------------------------------------
  free energy    TOTEN  =       -36.88466201 eV

  energy without entropy =      -36.88466201  energy(sigma->0) =      -36.88466201


--------------------------------------------------------------------------------------------------------




--------------------------------------- Iteration      1(  13)  ---------------------------------------


    POTLOK:  cpu time    0.0672: real time    0.0674
    SETDIJ:  cpu time    0.0352: real time    0.0353
     EDDAV:  cpu time    1.5074: real time    1.5122
       DOS:  cpu time    0.0002: real time    0.0001
    CHARGE:  cpu time    0.1766: real time    0.1770
    MIXING:  cpu time    0.0032: real time    0.0032
    --------------------------------------------
      LOOP:  cpu time    1.7896: real time    1.7952

 eigenvalue-minimisations  :  1240
 total energy-change (2. order) : 0.2802770E-03  (-0.3812127E-04)
 number of electron      16.0000000 magnetization 
 augmentation part        0.3850342 magnetization 

 Broyden mixing:
  rms(total) = 0.32727E-02    rms(broyden)= 0.32727E-02
  rms(prec ) = 0.81493E-02
  weight for this iteration     100.00

 eigenvalues of (default mixing * dielectric matrix)
  average eigenvalue GAMMA=   2.6522
  7.8556  3.6882  2.4678  2.0617  1.7121  1.4052  1.0137  1.0137

 Free energy of the ion-electron system (eV)
  ---------------------------------------------------
  alpha Z        PSCENC =        12.54445055
  Ewald energy   TEWEN  =      3171.27724855
  -Hartree energ DENC   =     -3691.77278392
  -exchange      EXHF   =         0.00000000
  -V(xc)+E(xc)   XCENC  =        55.23545262
  PAW double counting   =      1697.13605487    -1699.86055095
  entropy T*S    EENTRO =        -0.00000000
  eigenvalues    EBANDS =      -170.06194726
  atomic energy  EATOM  =       588.61769381
  Solvation  Ediel_sol  =         0.00000000
  ---------------------------------------------------
  free energy    TOTEN  =       -36.88438173 eV

  energy without entropy =      -36.88438173  energy(sigma->0) =      -36.88438173


--------------------------------------------------------------------------------------------------------




--------------------------------------- Iteration      1(  14)  ---------------------------------------


    POTLOK:  cpu time    0.0647: real time    0.0649
    SETDIJ:  cpu time    0.0365: real time    0.0366
     EDDAV:  cpu time    1.5773: real time    1.5822
       DOS:  cpu time    0.0002: real time    0.0002
    CHARGE:  cpu time    0.1787: real time    0.1792
    MIXING:  cpu time    0.0033: real time    0.0033
    --------------------------------------------
      LOOP:  cpu time    1.8607: real time    1.8664

 eigenvalue-minimisations  :  1332
 total energy-change (2. order) :-0.9445250E-03  (-0.5448152E-04)
 number of electron      16.0000000 magnetization 
 augmentation part        0.3849598 magnetization 

 Broyden mixing:
  rms(total) = 0.31259E-02    rms(broyden)= 0.31259E-02
  rms(prec ) = 0.48645E-02
  weight for this iteration     100.00

 eigenvalues of (default mixing * dielectric matrix)
  average eigenvalue GAMMA=   3.1932
 11.3198  5.0234  3.0767  2.5033  2.0053  1.5481  1.2497  1.0065  1.0065

 Free energy of the ion-electron system (eV)
  ---------------------------------------------------
  alpha Z        PSCENC =        12.54445055
  Ewald energy   TEWEN  =      3171.27724855
  -Hartree energ DENC   =     -3693.94962746
  -exchange      EXHF   =         0.00000000
  -V(xc)+E(xc)   XCENC  =        55.23541155
  PAW double counting   =      1700.98856643    -1703.71279507
  entropy T*S    EENTRO =        -0.00000000
  eigenvalues    EBANDS =      -167.88627462
  atomic energy  EATOM  =       588.61769381
  Solvation  Ediel_sol  =         0.00000000
  ---------------------------------------------------
  free energy    TOTEN  =       -36.88532626 eV

  energy without entropy =      -36.88532626  energy(sigma->0) =      -36.88532626


--------------------------------------------------------------------------------------------------------




--------------------------------------- Iteration      1(  15)  ---------------------------------------


    POTLOK:  cpu time    0.0645: real time    0.0648
    SETDIJ:  cpu time    0.0361: real time    0.0362
     EDDAV:  cpu time    1.5908: real time    1.5959
       DOS:  cpu time    0.0002: real time    0.0002
    CHARGE:  cpu time    0.1810: real time    0.1815
    MIXING:  cpu time    0.0033: real time    0.0034
    --------------------------------------------
      LOOP:  cpu time    1.8760: real time    1.8819

 eigenvalue-minimisations  :  1348
 total energy-change (2. order) :-0.7481499E-03  (-0.1633724E-04)
 number of electron      16.0000000 magnetization 
 augmentation part        0.3848820 magnetization 

 Broyden mixing:
  rms(total) = 0.34631E-02    rms(broyden)= 0.34631E-02
  rms(prec ) = 0.37316E-02
  weight for this iteration     100.00

 eigenvalues of (default mixing * dielectric matrix)
  average eigenvalue GAMMA=   3.7224
 16.1701  6.5297  2.6947  2.6947  2.3702  2.0604  1.5750  1.0024  1.0024  1.1243

 Free energy of the ion-electron system (eV)
  ---------------------------------------------------
  alpha Z        PSCENC =        12.54445055
  Ewald energy   TEWEN  =      3171.27724855
  -Hartree energ DENC   =     -3695.37402613
  -exchange      EXHF   =         0.00000000
  -V(xc)+E(xc)   XCENC  =        55.24362901
  PAW double counting   =      1693.25434367    -1695.97746182
  entropy T*S    EENTRO =        -0.00000000
  eigenvalues    EBANDS =      -166.47195204
  atomic energy  EATOM  =       588.61769381
  Solvation  Ediel_sol  =         0.00000000
  ---------------------------------------------------
  free energy    TOTEN  =       -36.88607441 eV

  energy without entropy =      -36.88607441  energy(sigma->0) =      -36.88607441


--------------------------------------------------------------------------------------------------------




--------------------------------------- Iteration      1(  16)  ---------------------------------------


    POTLOK:  cpu time    0.0647: real time    0.0650
    SETDIJ:  cpu time    0.0353: real time    0.0354
     EDDAV:  cpu time    1.5627: real time    1.5678
       DOS:  cpu time    0.0002: real time    0.0002
    CHARGE:  cpu time    0.1786: real time    0.1790
    MIXING:  cpu time    0.0036: real time    0.0036
    --------------------------------------------
      LOOP:  cpu time    1.8450: real time    1.8509

 eigenvalue-minimisations  :  1316
 total energy-change (2. order) :-0.3152163E-03  (-0.3959901E-05)
 number of electron      16.0000000 magnetization 
 augmentation part        0.3849274 magnetization 

 Broyden mixing:
  rms(total) = 0.85079E-03    rms(broyden)= 0.85079E-03
  rms(prec ) = 0.10357E-02
  weight for this iteration     100.00

 eigenvalues of (default mixing * dielectric matrix)
  average eigenvalue GAMMA=   4.2756
 22.7383  7.0136  4.0735  2.7032  2.4837  1.9901  1.0008  1.0008  1.0625  1.5604
  1.4046

 Free energy of the ion-electron system (eV)
  ---------------------------------------------------
  alpha Z        PSCENC =        12.54445055
  Ewald energy   TEWEN  =      3171.27724855
  -Hartree energ DENC   =     -3695.21259150
  -exchange      EXHF   =         0.00000000
  -V(xc)+E(xc)   XCENC  =        55.23815931
  PAW double counting   =      1697.85458280    -1700.57804440
  entropy T*S    EENTRO =        -0.00000000
  eigenvalues    EBANDS =      -166.62788875
  atomic energy  EATOM  =       588.61769381
  Solvation  Ediel_sol  =         0.00000000
  ---------------------------------------------------
  free energy    TOTEN  =       -36.88638963 eV

  energy without entropy =      -36.88638963  energy(sigma->0) =      -36.88638963


--------------------------------------------------------------------------------------------------------




--------------------------------------- Iteration      1(  17)  ---------------------------------------


    POTLOK:  cpu time    0.0657: real time    0.0659
    SETDIJ:  cpu time    0.0352: real time    0.0353
     EDDAV:  cpu time    1.5691: real time    1.5740
       DOS:  cpu time    0.0002: real time    0.0002
    CHARGE:  cpu time    0.1791: real time    0.1795
    MIXING:  cpu time    0.0036: real time    0.0036
    --------------------------------------------
      LOOP:  cpu time    1.8529: real time    1.8585

 eigenvalue-minimisations  :  1320
 total energy-change (2. order) :-0.1316084E-03  (-0.9725028E-06)
 number of electron      16.0000000 magnetization 
 augmentation part        0.3849111 magnetization 

 Broyden mixing:
  rms(total) = 0.93508E-03    rms(broyden)= 0.93508E-03
  rms(prec ) = 0.94767E-03
  weight for this iteration     100.00

 eigenvalues of (default mixing * dielectric matrix)
  average eigenvalue GAMMA=   4.2685
 24.3613  7.3558  4.2205  2.8402  2.3896  2.3036  2.0649  1.5884  1.1121  1.0071
  0.9895  0.9895

 Free energy of the ion-electron system (eV)
  ---------------------------------------------------
  alpha Z        PSCENC =        12.54445055
  Ewald energy   TEWEN  =      3171.27724855
  -Hartree energ DENC   =     -3695.43312233
  -exchange      EXHF   =         0.00000000
  -V(xc)+E(xc)   XCENC  =        55.24006771
  PAW double counting   =      1698.08605247    -1700.80963567
  entropy T*S    EENTRO =        -0.00000000
  eigenvalues    EBANDS =      -166.40927631
  atomic energy  EATOM  =       588.61769381
  Solvation  Ediel_sol  =         0.00000000
  ---------------------------------------------------
  free energy    TOTEN  =       -36.88652123 eV

  energy without entropy =      -36.88652123  energy(sigma->0) =      -36.88652123


--------------------------------------------------------------------------------------------------------




--------------------------------------- Iteration      1(  18)  ---------------------------------------


    POTLOK:  cpu time    0.0660: real time    0.0663
    SETDIJ:  cpu time    0.0358: real time    0.0359
     EDDAV:  cpu time    1.6115: real time    1.6164
       DOS:  cpu time    0.0002: real time    0.0002
    CHARGE:  cpu time    0.1784: real time    0.1788
    MIXING:  cpu time    0.0037: real time    0.0037
    --------------------------------------------
      LOOP:  cpu time    1.8956: real time    1.9012

 eigenvalue-minimisations  :  1360
 total energy-change (2. order) :-0.2419545E-04  (-0.1156223E-06)
 number of electron      16.0000000 magnetization 
 augmentation part        0.3849011 magnetization 

 Broyden mixing:
  rms(total) = 0.17443E-03    rms(broyden)= 0.17443E-03
  rms(prec ) = 0.18138E-03
  weight for this iteration     100.00

 eigenvalues of (default mixing * dielectric matrix)
  average eigenvalue GAMMA=   4.1081
 24.6354  7.4449  4.1746  3.0923  2.5749  2.4723  1.9544  1.4993  1.4993  1.0869
  1.0057  1.0057  0.9594

 Free energy of the ion-electron system (eV)
  ---------------------------------------------------
  alpha Z        PSCENC =        12.54445055
  Ewald energy   TEWEN  =      3171.27724855
  -Hartree energ DENC   =     -3695.43627514
  -exchange      EXHF   =         0.00000000
  -V(xc)+E(xc)   XCENC  =        55.24019395
  PAW double counting   =      1696.87911851    -1699.60281216
  entropy T*S    EENTRO =        -0.00000000
  eigenvalues    EBANDS =      -166.40616349
  atomic energy  EATOM  =       588.61769381
  Solvation  Ediel_sol  =         0.00000000
  ---------------------------------------------------
  free energy    TOTEN  =       -36.88654543 eV

  energy without entropy =      -36.88654543  energy(sigma->0) =      -36.88654543


--------------------------------------------------------------------------------------------------------




--------------------------------------- Iteration      1(  19)  ---------------------------------------


    POTLOK:  cpu time    0.0661: real time    0.0663
    SETDIJ:  cpu time    0.0348: real time    0.0349
     EDDAV:  cpu time    1.6174: real time    1.6225
       DOS:  cpu time    0.0002: real time    0.0002
    CHARGE:  cpu time    0.1735: real time    0.1739
    MIXING:  cpu time    0.0039: real time    0.0039
    --------------------------------------------
      LOOP:  cpu time    1.8957: real time    1.9017

 eigenvalue-minimisations  :  1384
 total energy-change (2. order) :-0.3487316E-05  (-0.2338175E-07)
 number of electron      16.0000000 magnetization 
 augmentation part        0.3849054 magnetization 

 Broyden mixing:
  rms(total) = 0.71689E-04    rms(broyden)= 0.71688E-04
  rms(prec ) = 0.75126E-04
  weight for this iteration     100.00

 eigenvalues of (default mixing * dielectric matrix)
  average eigenvalue GAMMA=   3.9914
 24.8744  7.4122  4.4971  3.1420  2.7359  2.4069  2.1318  1.9669  1.5958  1.0675
  1.0107  1.0107  1.0138  1.0138

 Free energy of the ion-electron system (eV)
  ---------------------------------------------------
  alpha Z        PSCENC =        12.54445055
  Ewald energy   TEWEN  =      3171.27724855
  -Hartree energ DENC   =     -3695.41950963
  -exchange      EXHF   =         0.00000000
  -V(xc)+E(xc)   XCENC  =        55.23981066
  PAW double counting   =      1696.98767914    -1699.71119373
  entropy T*S    EENTRO =        -0.00000000
  eigenvalues    EBANDS =      -166.42272827
  atomic energy  EATOM  =       588.61769381
  Solvation  Ediel_sol  =         0.00000000
  ---------------------------------------------------
  free energy    TOTEN  =       -36.88654892 eV

  energy without entropy =      -36.88654892  energy(sigma->0) =      -36.88654892


--------------------------------------------------------------------------------------------------------




--------------------------------------- Iteration      1(  20)  ---------------------------------------


    POTLOK:  cpu time    0.0665: real time    0.0667
    SETDIJ:  cpu time    0.0350: real time    0.0351
     EDDAV:  cpu time    1.5660: real time    1.5711
       DOS:  cpu time    0.0002: real time    0.0002
    CHARGE:  cpu time    0.1768: real time    0.1773
    MIXING:  cpu time    0.0040: real time    0.0040
    --------------------------------------------
      LOOP:  cpu time    1.8485: real time    1.8543

 eigenvalue-minimisations  :  1312
 total energy-change (2. order) :-0.1392802E-05  (-0.7558003E-08)
 number of electron      16.0000000 magnetization 
 augmentation part        0.3849043 magnetization 

 Broyden mixing:
  rms(total) = 0.10058E-04    rms(broyden)= 0.10048E-04
  rms(prec ) = 0.11071E-04
  weight for this iteration     100.00

 eigenvalues of (default mixing * dielectric matrix)
  average eigenvalue GAMMA=   3.8302
 24.9205  7.3987  4.5282  3.2184  2.7175  2.5892  2.1952  2.0023  1.5960  0.9799
  1.0040  1.0040  1.1017  1.0990  1.0990

 Free energy of the ion-electron system (eV)
  ---------------------------------------------------
  alpha Z        PSCENC =        12.54445055
  Ewald energy   TEWEN  =      3171.27724855
  -Hartree energ DENC   =     -3695.42616457
  -exchange      EXHF   =         0.00000000
  -V(xc)+E(xc)   XCENC  =        55.23990856
  PAW double counting   =      1697.05222345    -1699.77577810
  entropy T*S    EENTRO =        -0.00000000
  eigenvalues    EBANDS =      -166.41613256
  atomic energy  EATOM  =       588.61769381
  Solvation  Ediel_sol  =         0.00000000
  ---------------------------------------------------
  free energy    TOTEN  =       -36.88655031 eV

  energy without entropy =      -36.88655031  energy(sigma->0) =      -36.88655031


--------------------------------------------------------------------------------------------------------




--------------------------------------- Iteration      1(  21)  ---------------------------------------


    POTLOK:  cpu time    0.0680: real time    0.0682
    SETDIJ:  cpu time    0.0381: real time    0.0382
     EDDAV:  cpu time    1.3669: real time    1.3713
       DOS:  cpu time    0.0002: real time    0.0002
    CHARGE:  cpu time    0.1831: real time    0.1835
    MIXING:  cpu time    0.0043: real time    0.0043
    --------------------------------------------
      LOOP:  cpu time    1.6604: real time    1.6657

 eigenvalue-minimisations  :  1028
 total energy-change (2. order) :-0.9791256E-07  (-0.3053491E-09)
 number of electron      16.0000000 magnetization 
 augmentation part        0.3849044 magnetization 

 Broyden mixing:
  rms(total) = 0.42670E-05    rms(broyden)= 0.42442E-05
  rms(prec ) = 0.45209E-05
  weight for this iteration     100.00

 eigenvalues of (default mixing * dielectric matrix)
  average eigenvalue GAMMA=   3.7647
 24.8966  7.4100  4.5218  3.3652  2.9505  2.6889  2.3951  2.3951  1.9735  1.5926
  1.0875  0.9926  0.9926  1.0151  1.0151  0.9439

 Free energy of the ion-electron system (eV)
  ---------------------------------------------------
  alpha Z        PSCENC =        12.54445055
  Ewald energy   TEWEN  =      3171.27724855
  -Hartree energ DENC   =     -3695.42438950
  -exchange      EXHF   =         0.00000000
  -V(xc)+E(xc)   XCENC  =        55.23989055
  PAW double counting   =      1697.04399289    -1699.76755252
  entropy T*S    EENTRO =        -0.00000000
  eigenvalues    EBANDS =      -166.41788474
  atomic energy  EATOM  =       588.61769381
  Solvation  Ediel_sol  =         0.00000000
  ---------------------------------------------------
  free energy    TOTEN  =       -36.88655041 eV

  energy without entropy =      -36.88655041  energy(sigma->0) =      -36.88655041


--------------------------------------------------------------------------------------------------------




--------------------------------------- Iteration      1(  22)  ---------------------------------------


    POTLOK:  cpu time    0.0699: real time    0.0701
    SETDIJ:  cpu time    0.0381: real time    0.0382
     EDDAV:  cpu time    1.2274: real time    1.2314
       DOS:  cpu time    0.0002: real time    0.0002
    CHARGE:  cpu time    0.1833: real time    0.1838
    MIXING:  cpu time    0.0045: real time    0.0045
    --------------------------------------------
      LOOP:  cpu time    1.5234: real time    1.5281

 eigenvalue-minimisations  :   848
 total energy-change (2. order) :-0.5010975E-07  (-0.1736195E-09)
 number of electron      16.0000000 magnetization 
 augmentation part        0.3849044 magnetization 

 Broyden mixing:
  rms(total) = 0.21259E-05    rms(broyden)= 0.20798E-05
  rms(prec ) = 0.24700E-05
  weight for this iteration     100.00

 eigenvalues of (default mixing * dielectric matrix)
  average eigenvalue GAMMA=   3.6055
 24.8956  7.4086  4.5389  3.3324  3.0498  2.5492  2.5079  2.2370  1.9905  1.6008
  1.0620  1.0496  1.0496  1.0011  1.0235  0.9983  0.9983

 Free energy of the ion-electron system (eV)
  ---------------------------------------------------
  alpha Z        PSCENC =        12.54445055
  Ewald energy   TEWEN  =      3171.27724855
  -Hartree energ DENC   =     -3695.42441818
  -exchange      EXHF   =         0.00000000
  -V(xc)+E(xc)   XCENC  =        55.23988724
  PAW double counting   =      1697.04704019    -1699.77059736
  entropy T*S    EENTRO =        -0.00000000
  eigenvalues    EBANDS =      -166.41785526
  atomic energy  EATOM  =       588.61769381
  Solvation  Ediel_sol  =         0.00000000
  ---------------------------------------------------
  free energy    TOTEN  =       -36.88655046 eV

  energy without entropy =      -36.88655046  energy(sigma->0) =      -36.88655046


--------------------------------------------------------------------------------------------------------




--------------------------------------- Iteration      1(  23)  ---------------------------------------


    POTLOK:  cpu time    0.0701: real time    0.0704
    SETDIJ:  cpu time    0.0371: real time    0.0372
     EDDAV:  cpu time    1.3159: real time    1.3200
       DOS:  cpu time    0.0002: real time    0.0002
    --------------------------------------------
      LOOP:  cpu time    1.4232: real time    1.4278

 eigenvalue-minimisations  :   964
 total energy-change (2. order) : 0.1935859E-08  (-0.3489822E-10)
 number of electron      16.0000000 magnetization 
 augmentation part        0.3849044 magnetization 

 Free energy of the ion-electron system (eV)
  ---------------------------------------------------
  alpha Z        PSCENC =        12.54445055
  Ewald energy   TEWEN  =      3171.27724855
  -Hartree energ DENC   =     -3695.42476220
  -exchange      EXHF   =         0.00000000
  -V(xc)+E(xc)   XCENC  =        55.23989366
  PAW double counting   =      1697.04734406    -1699.77090344
  entropy T*S    EENTRO =        -0.00000000
  eigenvalues    EBANDS =      -166.41751545
  atomic energy  EATOM  =       588.61769381
  Solvation  Ediel_sol  =         0.00000000
  ---------------------------------------------------
  free energy    TOTEN  =       -36.88655046 eV

  energy without entropy =      -36.88655046  energy(sigma->0) =      -36.88655046


--------------------------------------------------------------------------------------------------------




 average (electrostatic) potential at core
  the test charge radii are     0.6991
  (the norm of the test charge is              1.0000)
       1 -56.6546       2 -56.6546       3 -56.6546       4 -56.6546
 
 
 
 E-fermi :  -1.4898     XC(G=0):  -3.8941     alpha+bet : -3.8262


 k-point     1 :       0.0000    0.0000    0.0000
  band No.  band energies     occupation 
      1     -20.8796      2.00000
      2     -20.7433      2.00000
      3      -9.3568      2.00000
      4      -8.4429      2.00000
      5      -4.2668      2.00000
      6      -4.2668      2.00000
      7      -4.2510      2.00000
      8      -4.2510      2.00000
      9       2.1641      0.00000
     10       2.5624      0.00000
     11       3.3284      0.00000
     12       4.5070      0.00000

 k-point     2 :       0.0476    0.0000    0.0000
  band No.  band energies     occupation 
      1     -20.8256      2.00000
      2     -20.6896      2.00000
      3      -9.2917      2.00000
      4      -8.3794      2.00000
      5      -4.4887      2.00000
      6      -4.4711      2.00000
      7      -4.3839      2.00000
      8      -4.3677      2.00000
      9       2.2365      0.00000
     10       2.6357      0.00000
     11       3.4026      0.00000
     12       4.5807      0.00000

 k-point     3 :       0.0952    0.0000    0.0000
  band No.  band energies     occupation 
      1     -20.6635      2.00000
      2     -20.5289      2.00000
      3      -9.0966      2.00000
      4      -8.1896      2.00000
      5      -5.1113      2.00000
      6      -5.0887      2.00000
      7      -4.7044      2.00000
      8      -4.6870      2.00000
      9       2.4539      0.00000
     10       2.8557      0.00000
     11       3.6252      0.00000
     12       4.8017      0.00000

 k-point     4 :       0.1429    0.0000    0.0000
  band No.  band energies     occupation 
      1     -20.3941      2.00000
      2     -20.2617      2.00000
      3      -8.7733      2.00000
      4      -7.8751      2.00000
      5      -6.0345      2.00000
      6      -6.0050      2.00000
      7      -5.1569      2.00000
      8      -5.1380      2.00000
      9       2.8161      0.00000
     10       3.2219      0.00000
     11       3.9962      0.00000
     12       5.1696      0.00000

 k-point     5 :       0.1905    0.0000    0.0000
  band No.  band energies     occupation 
      1     -20.0183      2.00000
      2     -19.8889      2.00000
      3      -8.3248      2.00000
      4      -7.4395      2.00000
      5      -7.1514      2.00000
      6      -7.1140      2.00000
      7      -5.6664      2.00000
      8      -5.6461      2.00000
      9       3.3226      0.00000
     10       3.7333      0.00000
     11       4.5153      0.00000
     12       5.6830      0.00000

 k-point     6 :       0.2381    0.0000    0.0000
  band No.  band energies     occupation 
      1     -19.5377      2.00000
      2     -19.4120      2.00000
      3      -8.3758      2.00000
      4      -8.3301      2.00000
      5      -7.7558      2.00000
      6      -6.8880      2.00000
      7      -6.1741      2.00000
      8      -6.1526      2.00000
      9       3.9718      0.00000
     10       4.3860      0.00000
     11       5.1812      0.00000
     12       6.1023      0.00000

 k-point     7 :       0.2857    0.0000    0.0000
  band No.  band energies     occupation 
      1     -18.9545      2.00000
      2     -18.8333      2.00000
      3      -9.6443      2.00000
      4      -9.5902      2.00000
      5      -7.0755      2.00000
      6      -6.6390      2.00000
      7      -6.6166      2.00000
      8      -6.2307      2.00000
      9       4.7340      0.00000
     10       4.8058      0.00000
     11       5.0723      0.00000
     12       5.4316      0.00000

 k-point     8 :       0.3333    0.0000    0.0000
  band No.  band energies     occupation 
      1     -18.2723      2.00000
      2     -18.1562      2.00000
      3     -10.9124      2.00000
      4     -10.8500      2.00000
      5      -7.0343      2.00000
      6      -7.0112      2.00000
      7      -6.2995      2.00000
      8      -5.4846      2.00000
      9       3.4019      0.00000
     10       3.9902      0.00000
     11       5.6793      0.00000
     12       6.1560      0.00000

 k-point     9 :       0.3810    0.0000    0.0000
  band No.  band energies     occupation 
      1     -17.4972      2.00000
      2     -17.3868      2.00000
      3     -12.1466      2.00000
      4     -12.0762      2.00000
      5      -7.3428      2.00000
      6      -7.3191      2.00000
      7      -5.4605      2.00000
      8      -4.6846      2.00000
      9       2.0772      0.00000
     10       2.7506      0.00000
     11       6.2609      0.00000
     12       6.4667      0.00000

 k-point    10 :       0.4286    0.0000    0.0000
  band No.  band energies     occupation 
      1     -16.6447      2.00000
      2     -16.5399      2.00000
      3     -13.3139      2.00000
      4     -13.2362      2.00000
      5      -7.5536      2.00000
      6      -7.5296      2.00000
      7      -4.6374      2.00000
      8      -3.9118      2.00000
      9       0.9139      0.00000
     10       1.6667      0.00000
     11       6.1846      0.00000
     12       6.3667      0.00000

 k-point    11 :       0.4762    0.0000    0.0000
  band No.  band energies     occupation 
      1     -15.7977      2.00000
      2     -15.6969      2.00000
      3     -14.3208      2.00000
      4     -14.2383      2.00000
      5      -7.6604      2.00000
      6      -7.6363      2.00000
      7      -4.0404      2.00000
      8      -3.3653      2.00000
      9       0.1421      0.00000
     10       0.9599      0.00000
     11       6.1328      0.00000
     12       6.3137      0.00000

 k-point    12 :       0.0952    0.0476    0.0000
  band No.  band energies     occupation 
      1     -20.7175      2.00000
      2     -20.5825      2.00000
      3      -9.1616      2.00000
      4      -8.2527      2.00000
      5      -4.8954      2.00000
      6      -4.8746      2.00000
      7      -4.6184      2.00000
      8      -4.6010      2.00000
      9       2.3815      0.00000
     10       2.7824      0.00000
     11       3.5510      0.00000
     12       4.7280      0.00000

 k-point    13 :       0.1429    0.0476    0.0000
  band No.  band energies     occupation 
      1     -20.5018      2.00000
      2     -20.3685      2.00000
      3      -8.9024      2.00000
      4      -8.0006      2.00000
      5      -5.6353      2.00000
      6      -5.6090      2.00000
      7      -5.0385      2.00000
      8      -5.0193      2.00000
      9       2.6714      0.00000
     10       3.0756      0.00000
     11       3.8479      0.00000
     12       5.0226      0.00000

 k-point    14 :       0.1905    0.0476    0.0000
[...]
      7      -6.1912      2.00000
      8      -6.1656      2.00000
      9       3.5406      0.00000
     10       3.9530      0.00000
     11       4.7385      0.00000
     12       5.9052      0.00000

 k-point    24 :       0.2857    0.0952    0.0000
  band No.  band energies     occupation 
      1     -19.3783      2.00000
      2     -19.2539      2.00000
      3      -8.4305      2.00000
      4      -8.3854      2.00000
      5      -7.5670      2.00000
      6      -6.7695      2.00000
      7      -6.7431      2.00000
      8      -6.7033      2.00000
      9       4.1904      0.00000
     10       4.6065      0.00000
     11       5.4053      0.00000
     12       5.8646      0.00000

 k-point    25 :       0.3333    0.0952    0.0000
  band No.  band energies     occupation 
      1     -18.7968      2.00000
      2     -18.6768      2.00000
      3      -9.6227      2.00000
      4      -9.5695      2.00000
      5      -7.2765      2.00000
      6      -7.2467      2.00000
      7      -6.8888      2.00000
      8      -6.0500      2.00000
      9       4.5900      0.00000
     10       4.9833      0.00000
     11       5.0479      0.00000
     12       5.4525      0.00000

 k-point    26 :       0.3810    0.0952    0.0000
  band No.  band energies     occupation 
      1     -18.1168      2.00000
      2     -18.0020      2.00000
      3     -10.8430      2.00000
      4     -10.7816      2.00000
      5      -7.6951      2.00000
      6      -7.6643      2.00000
      7      -6.1153      2.00000
      8      -5.3061      2.00000
      9       3.2819      0.00000
     10       3.8434      0.00000
     11       5.9089      0.00000
     12       6.3624      0.00000

 k-point    27 :       0.4286    0.0952    0.0000
  band No.  band energies     occupation 
      1     -17.3449      2.00000
      2     -17.2356      2.00000
      3     -12.0467      2.00000
      4     -11.9772      2.00000
      5      -8.0164      2.00000
      6      -7.9847      2.00000
      7      -5.2771      2.00000
      8      -4.5065      2.00000
      9       2.0070      0.00000
     10       2.6460      0.00000
     11       6.9249      0.00000
     12       7.3663      0.00000

 k-point    28 :       0.4762    0.0952    0.0000
  band No.  band energies     occupation 
      1     -16.4968      2.00000
      2     -16.3933      2.00000
      3     -13.1940      2.00000
      4     -13.1172      2.00000
      5      -8.2337      2.00000
      6      -8.2016      2.00000
      7      -4.4507      2.00000
      8      -3.7292      2.00000
      9       0.8724      0.00000
     10       1.5875      0.00000
     11       7.1016      0.00000
     12       7.3040      0.00000

 k-point    29 :      -0.4762    0.0952    0.0000
  band No.  band energies     occupation 
      1     -15.6562      2.00000
      2     -15.5568      2.00000
      3     -14.1874      2.00000
      4     -14.1057      2.00000
      5      -8.3434      2.00000
      6      -8.3110      2.00000
      7      -3.8445      2.00000
      8      -3.1727      2.00000
      9       0.1072      0.00000
     10       0.8858      0.00000
     11       7.0537      0.00000
     12       7.2513      0.00000

 k-point    30 :       0.2857    0.1429    0.0000
  band No.  band energies     occupation 
      1     -19.4315      2.00000
      2     -19.3067      2.00000
      3      -8.1443      2.00000
      4      -8.1018      2.00000
      5      -7.6290      2.00000
      6      -6.9328      2.00000
      7      -6.9031      2.00000
      8      -6.7639      2.00000
      9       4.1191      0.00000
     10       4.5361      0.00000
     11       5.3321      0.00000
     12       6.0403      0.00000

 k-point    31 :       0.3333    0.1429    0.0000
  band No.  band energies     occupation 
      1     -18.9024      2.00000
      2     -18.7816      2.00000
      3      -9.1144      2.00000
      4      -9.0654      2.00000
      5      -7.6120      2.00000
      6      -7.5775      2.00000
      7      -7.0084      2.00000
      8      -6.1649      2.00000
      9       4.8385      0.00000
     10       4.9104      0.00000
     11       5.2448      0.00000
     12       5.3772      0.00000

 k-point    32 :       0.3810    0.1429    0.0000
  band No.  band energies     occupation 
      1     -18.2734      2.00000
      2     -18.1575      2.00000
      3     -10.2102      2.00000
      4     -10.1536      2.00000
      5      -8.1561      2.00000
      6      -8.1192      2.00000
      7      -6.2838      2.00000
      8      -5.4665      2.00000
      9       3.7057      0.00000
     10       4.2108      0.00000
     11       5.7000      0.00000
     12       6.1330      0.00000

 k-point    33 :       0.4286    0.1429    0.0000
  band No.  band energies     occupation 
      1     -17.5498      2.00000
      2     -17.4392      2.00000
      3     -11.3600      2.00000
      4     -11.2955      2.00000
      5      -8.5680      2.00000
      6      -8.5296      2.00000
      7      -5.4751      2.00000
      8      -4.6913      2.00000
      9       2.4833      0.00000
     10       3.0531      0.00000
     11       6.6936      0.00000
     12       7.1360      0.00000

 k-point    34 :       0.4762    0.1429    0.0000
  band No.  band energies     occupation 
      1     -16.7414      2.00000
      2     -16.6365      2.00000
      3     -12.5015      2.00000
      4     -12.4293      2.00000
      5      -8.8583      2.00000
      6      -8.8189      2.00000
      7      -4.6273      2.00000
      8      -3.8862      2.00000
      9       1.3157      0.00000
     10       1.9543      0.00000
     11       7.7878      0.00000
     12       8.2557      0.00000

 k-point    35 :      -0.4762    0.1429    0.0000
  band No.  band energies     occupation 
      1     -15.8803      2.00000
      2     -15.7807      2.00000
      3     -13.5726      2.00000
      4     -13.4938      2.00000
      5      -9.0315      2.00000
      6      -8.9916      2.00000
      7      -3.8614      2.00000
      8      -3.1714      2.00000
      9       0.3475      0.00000
     10       1.0546      0.00000
     11       8.0773      0.00000
     12       8.3133      0.00000

 k-point    36 :      -0.4286    0.1429    0.0000
  band No.  band energies     occupation 
      1     -15.2717      2.00000
      2     -15.1739      2.00000
      3     -14.2527      2.00000
      4     -14.1718      2.00000
      5      -9.0892      2.00000
      6      -9.0492      2.00000
      7      -3.5029      2.00000
      8      -2.8449      2.00000
      9      -0.0802      0.00000
     10       0.6649      0.00000
     11       8.0549      0.00000
     12       8.2863      0.00000

 k-point    37 :       0.3810    0.1905    0.0000
  band No.  band energies     occupation 
      1     -18.3258      2.00000
      2     -18.2095      2.00000
      3      -9.8793      2.00000
      4      -9.8253      2.00000
      5      -8.4372      2.00000
      6      -8.3971      2.00000
      7      -6.3404      2.00000
      8      -5.5203      2.00000
      9       3.8658      0.00000
     10       4.3473      0.00000
     11       5.6293      0.00000
     12       6.0534      0.00000

 k-point    38 :       0.4286    0.1905    0.0000
  band No.  band energies     occupation 
      1     -17.6529      2.00000
      2     -17.5416      2.00000
      3     -10.7925      2.00000
      4     -10.7322      2.00000
      5      -9.0872      2.00000
      6      -9.0434      2.00000
      7      -5.5763      2.00000
      8      -4.7859      2.00000
      9       2.7689      0.00000
     10       3.2906      0.00000
     11       6.5550      0.00000
     12       6.9799      0.00000

 k-point    39 :       0.4762    0.1905    0.0000
  band No.  band energies     occupation 
      1     -16.8911      2.00000
      2     -16.7853      2.00000
      3     -11.8223      2.00000
      4     -11.7548      2.00000
      5      -9.5282      2.00000
      6      -9.4822      2.00000
      7      -4.7431      2.00000
      8      -3.9897      2.00000
      9       1.6623      0.00000
     10       2.2337      0.00000
     11       7.6087      0.00000
     12       8.0299      0.00000

 k-point    40 :      -0.4762    0.1905    0.0000
  band No.  band energies     occupation 
      1     -16.0572      2.00000
      2     -15.9571      2.00000
      3     -12.8745      2.00000
      4     -12.7999      2.00000
      5      -9.8001      2.00000
      6      -9.7529      2.00000
      7      -3.9059      2.00000
      8      -3.1978      2.00000
      9       0.6291      0.00000
     10       1.2578      0.00000
     11       8.7610      0.00000
     12       9.2202      0.00000

 k-point    41 :      -0.4286    0.1905    0.0000
  band No.  band energies     occupation 
      1     -15.2348      2.00000
      2     -15.1391      2.00000
      3     -13.8161      2.00000
      4     -13.7364      2.00000
      5      -9.9309      2.00000
      6      -9.8831      2.00000
      7      -3.2630      2.00000
      8      -2.6015      2.00000
      9      -0.1165      0.00000
     10       0.5659      0.00000
     11       9.2123      0.00000
     12       9.5603      0.00000

 k-point    42 :       0.4762    0.2381    0.0000
  band No.  band energies     occupation 
      1     -16.9413      2.00000
      2     -16.8352      2.00000
      3     -11.4500      2.00000
      4     -11.3850      2.00000
      5      -9.9027      2.00000
      6      -9.8535      2.00000
      7      -4.7832      2.00000
      8      -4.0256      2.00000
      9       1.7958      0.00000
     10       2.3393      0.00000
     11       7.5398      0.00000
     12       7.9485      0.00000

 k-point    43 :      -0.4762    0.2381    0.0000
  band No.  band energies     occupation 
      1     -16.1502      2.00000
      2     -16.0497      2.00000
      3     -12.2675      2.00000
      4     -12.1965      2.00000
      5     -10.4523      2.00000
      6     -10.3998      2.00000
      7      -3.9384      2.00000
      8      -3.2199      2.00000
      9       0.8185      0.00000
     10       1.3941      0.00000
     11       8.6372      0.00000
     12       9.1307      0.00000

 k-point    44 :      -0.4286    0.2381    0.0000
  band No.  band energies     occupation 
      1     -15.3122      2.00000
      2     -15.2173      2.00000
      3     -13.1767      2.00000
      4     -13.0997      2.00000
      5     -10.7383      2.00000
      6     -10.6841      2.00000
      7      -3.1348      2.00000
      8      -2.4607      2.00000
      9      -0.0679      0.00000
     10       0.5494      0.00000
     11       9.0832      0.00000
     12       9.8162      0.00000

 k-point    45 :      -0.3810    0.2381    0.0000
  band No.  band energies     occupation 
      1     -14.7175      2.00000
      2     -14.6251      2.00000
      3     -13.8049      2.00000
      4     -13.7252      2.00000
      5     -10.8258      2.00000
      6     -10.7711      2.00000
      7      -2.7167      2.00000
      8      -2.0726      2.00000
      9      -0.5144      0.00000
     10       0.1324      0.00000
     11       9.0088      0.00000
     12      10.4827      0.00000

 k-point    46 :      -0.4286    0.2857    0.0000
  band No.  band energies     occupation 
      1     -15.3468      2.00000
      2     -15.2519      2.00000
      3     -12.7965      2.00000
      4     -12.7209      2.00000
      5     -11.1697      2.00000
      6     -11.1130      2.00000
      7      -3.0968      2.00000
      8      -2.4162      2.00000
      9      -0.0350      0.00000
     10       0.5541      0.00000
     11       8.8876      0.00000
     12       9.7557      0.00000

 k-point    47 :      -0.3810    0.2857    0.0000
  band No.  band energies     occupation 
      1     -14.5525      2.00000
      2     -14.4627      2.00000
      3     -13.4630      2.00000
      4     -13.3828      2.00000
      5     -11.5257      2.00000
      6     -11.4670      2.00000
      7      -2.3411      2.00000
      8      -1.6976      2.00000
      9      -0.7925      0.00000
     10      -0.1794      0.00000
     11       8.6508      0.00000
     12      10.3231      0.00000

 k-point    48 :      -0.3333    0.3333    0.0000
  band No.  band energies     occupation 
      1     -13.8902      2.00000
      2     -13.8901      2.00000
      3     -13.8053      2.00000
      4     -13.8053      2.00000
      5     -11.8681      2.00000
      6     -11.8082      2.00000
      7      -1.5529      2.00000
      8      -1.5529      2.00000
      9      -0.9312      0.00000
     10      -0.9312      0.00000
     11       8.4889      0.00000
     12      10.3211      0.00000


--------------------------------------------------------------------------------------------------------


 soft charge-density along one line, spin component           1
         0         1         2         3         4         5         6         7         8         9
 total charge-density along one line
 
 pseudopotential strength for first ion, spin component:           1
 10.125  13.462  -0.000   0.000   0.000   0.000  -0.000  -0.000
 13.462  17.898  -0.000   0.000   0.000   0.000  -0.000  -0.000
 -0.000  -0.000  -4.266  -0.000  -0.000   8.344   0.000   0.000
  0.000   0.000  -0.000  -4.258  -0.000   0.000   8.335   0.000
  0.000   0.000  -0.000  -0.000  -4.266   0.000   0.000   8.344
  0.000   0.000   8.344   0.000   0.000 -18.453  -0.000  -0.000
 -0.000  -0.000   0.000   8.335   0.000  -0.000 -18.444  -0.000
 -0.000  -0.000   0.000   0.000   8.344  -0.000  -0.000 -18.453
 total augmentation occupancy for first ion, spin component:           1
  8.122  -3.605  -0.000   0.001   0.000   0.000   0.000   0.000
 -3.605   1.658   0.000  -0.000   0.000   0.000  -0.000   0.000
 -0.000   0.000   1.836   0.000   0.000   0.173   0.000   0.000
  0.001  -0.000   0.000   1.201   0.000   0.000   0.073  -0.000
  0.000  -0.000   0.000   0.000   1.836   0.000   0.000   0.173
  0.000   0.000   0.173   0.000   0.000   0.018   0.000   0.000
  0.000  -0.000   0.000   0.073  -0.000  -0.000   0.005   0.000
  0.000   0.000   0.000  -0.000   0.173   0.000  -0.000   0.018


------------------------ aborting loop because EDIFF is reached ----------------------------------------


    CHARGE:  cpu time    0.1781: real time    0.1785
    FORLOC:  cpu time    0.0049: real time    0.0049
    FORNL :  cpu time    0.3538: real time    0.3547
    STRESS:  cpu time    1.3260: real time    1.3292
    FORCOR:  cpu time    0.0702: real time    0.0703
    FORHAR:  cpu time    0.0189: real time    0.0190
    MIXING:  cpu time    0.0043: real time    0.0043
    OFIELD:  cpu time    0.0000: real time    0.0000

  FORCE on cell =-STRESS in cart. coord.  units (eV):
  Direction    XX          YY          ZZ          XY          YZ          ZX
  --------------------------------------------------------------------------------------
  Alpha Z    12.54445    12.54445    12.54445
  Ewald    3710.30473  3710.30350 -4249.33128    -0.00000     0.00000    -0.00000
  Hartree  3672.79411  3672.79410 -3650.16351    -0.00000    -0.00000    -0.00000
  E(xc)     -59.57413   -59.57413   -61.71608     0.00000     0.00000     0.00000
  Local   -7560.45720 -7560.45659  7687.85599    -0.00000    -0.00000     0.00000
  n-local   -14.82199   -13.74649   -13.05527     0.71170     0.00000    -0.00000
  augment    -1.57243    -1.57243    -1.44491    -0.00000     0.00000     0.00000
  Kinetic   245.08815   236.88723   275.85446    -6.60282    -0.00000     0.00000
  Fock        0.00000     0.00000     0.00000     0.00000     0.00000     0.00000
  -------------------------------------------------------------------------------------
  Total       0.74266     0.74266     0.54385    -0.00000     0.00000     0.00000
  in kB      11.35643    11.35642     8.31636    -0.00000     0.00000     0.00000
  external pressure =       10.34 kB  Pullay stress =        0.00 kB


 VOLUME and BASIS-vectors are now :
 -----------------------------------------------------------------------------
  energy-cutoff  :      800.00
  volume of cell :      104.78
      direct lattice vectors                 reciprocal lattice vectors
     2.130000000 -1.229756000  0.000000000     0.234741784 -0.406584721  0.000000000
     2.130000000  1.229756000  0.000000000     0.234741784  0.406584721  0.000000000
     0.000000000  0.000000000 20.000000000     0.000000000  0.000000000  0.050000000

  length of vectors
     2.459512110  2.459512110 20.000000000     0.469483589  0.469483589  0.050000000


 FORCES acting on ions
    electron-ion (+dipol)            ewald-force                    non-local-force                 convergence-correction
 -----------------------------------------------------------------------------------------------
   -.879E-05 -.821E-12 0.365E+03   -.241E-03 0.685E-14 -.365E+03   -.355E-16 0.225E-16 -.513E-01   -.246E-10 -.230E-14 0.776E-05
   0.262E-03 0.700E-12 0.365E+03   0.241E-03 -.449E-14 -.365E+03   -.260E-16 -.126E-16 -.513E-01   0.412E-10 0.686E-15 0.776E-05
   -.880E-05 0.152E-12 -.365E+03   -.241E-03 0.677E-14 0.365E+03   -.157E-17 -.105E-16 0.513E-01   -.248E-10 -.285E-14 -.776E-05
   0.262E-03 0.427E-12 -.365E+03   0.241E-03 -.457E-14 0.365E+03   0.253E-16 -.127E-16 0.513E-01   0.403E-10 0.909E-15 -.776E-05
 -----------------------------------------------------------------------------------------------
   0.506E-03 0.457E-12 -.129E-03   0.858E-14 0.456E-14 0.000E+00   -.378E-16 -.133E-16 0.694E-17   0.321E-10 -.356E-14 -.244E-09
 
 
 POSITION                                       TOTAL-FORCE (eV/Angst)
 -----------------------------------------------------------------------------------
      0.00000      0.00000      0.00000         0.000000     -0.000000     -0.086513
      1.42000      0.00000      0.00000        -0.000000      0.000000     -0.086513
      0.00000      0.00000      3.40000         0.000000      0.000000      0.086513
      1.42000      0.00000      3.40000        -0.000000     -0.000000      0.086513
 -----------------------------------------------------------------------------------
    total drift:                                0.000506      0.000000     -0.000129


--------------------------------------------------------------------------------------------------------



  FREE ENERGIE OF THE ION-ELECTRON SYSTEM (eV)
  ---------------------------------------------------
  free  energy   TOTEN  =       -36.88655046 eV

  energy  without entropy=      -36.88655046  energy(sigma->0) =      -36.88655046
 


--------------------------------------------------------------------------------------------------------


    POTLOK:  cpu time    0.1013: real time    0.1015


--------------------------------------------------------------------------------------------------------


     LOOP+:  cpu time   44.5112: real time   44.8236
    4ORBIT:  cpu time    0.0000: real time    0.0000

 total amount of memory used by VASP MPI-rank0   107376. kBytes
=======================================================================

   base      :      30000. kBytes
   nonl-proj :      16997. kBytes
   fftplans  :      32720. kBytes
   grid      :      15086. kBytes
   one-center:         12. kBytes
   wavefun   :      12561. kBytes
 
  
  
 General timing and accounting informations for this job:
 ========================================================
  
                  Total CPU time used (sec):       46.500
                            User time (sec):       45.696
                          System time (sec):        0.804
                         Elapsed time (sec):       47.203
  
                   Maximum memory used (kb):      171412.
                   Average memory used (kb):           0.
  
                          Minor page faults:       189445
                          Major page faults:            0
                 Voluntary context switches:         3684
