 vasp.5.4.4.18Apr17-6-g9f103f2a35 (build May 31 2018 21:15:54) complex          
  
 executed on          c7_intel_O1 date 2020.07.23  19:17:46
 running on    4 total cores
 distrk:  each k-point on    4 cores,    1 groups
 distr:  one band on NCORES_PER_BAND=   1 cores,    4 groups


--------------------------------------------------------------------------------------------------------


 INCAR:
 POTCAR:    PAW_PBE C 08Apr2002                   
 POTCAR:    PAW_PBE C 08Apr2002                   
   VRHFIN =C: s2p2                                                              
   LEXCH  = PE                                                                  
   EATOM  =   147.1560 eV,   10.8157 Ry                                         
                                                                                
   TITEL  = PAW_PBE C 08Apr2002                                                 
   LULTRA =        F    use ultrasoft PP ?                                      
   IUNSCR =        1    unscreen: 0-lin 1-nonlin 2-no                           
   RPACOR =    1.200    partial core radius                                     
   POMASS =   12.011; ZVAL   =    4.000    mass and valenz                      
   RCORE  =    1.500    outmost cutoff radius                                   
   RWIGS  =    1.630; RWIGS  =    0.863    wigner-seitz radius (au A)           
   ENMAX  =  400.000; ENMIN  =  300.000 eV                                      
   ICORE  =        2    local potential                                         
   LCOR   =        T    correct aug charges                                     
   LPAW   =        T    paw PP                                                  
   EAUG   =  644.873                                                            
   DEXC   =    0.000                                                            
   RMAX   =    1.529    core radius for proj-oper                               
   RAUG   =    1.300    factor for augmentation sphere                          
   RDEP   =    1.501    radius for radial grids                                 
   RDEPT  =    1.300    core radius for aug-charge                              
                                                                                
   Atomic configuration                                                         
    4 entries                                                                   
     n  l   j            E        occ.                                          
     1  0  0.50      -273.3789   2.0000                                         
     2  0  0.50       -13.7508   2.0000                                         
     2  1  0.50        -5.2854   2.0000                                         
     3  2  1.50        -5.4423   0.0000                                         
   Description                                                                  
     l       E           TYP  RCUT    TYP  RCUT                                 
     0    -13.7508458     23  1.200                                             
     0     -8.2022199     23  1.200                                             
     1     -5.2854383     23  1.500                                             
     1     34.0145650     23  1.500                                             
     2     -5.4423304      7  1.500                                             
  local pseudopotential read in
  partial core-charges read in
  partial kinetic energy density read in
  atomic valenz-charges read in
  non local Contribution for L=           0  read in
    real space projection operators read in
  non local Contribution for L=           0  read in
    real space projection operators read in
  non local Contribution for L=           1  read in
    real space projection operators read in
  non local Contribution for L=           1  read in
    real space projection operators read in
    PAW grid and wavefunctions read in
 
   number of l-projection  operators is LMAX  =           4
   number of lm-projection operators is LMMAX =           8
 
  PAW_PBE C 08Apr2002                   :
 energy of atom  1       EATOM= -147.1560
 kinetic energy error for atom=    0.0016 (will be added to EATOM!!)
 
 
 POSCAR: C2_bilayer                              
  positions in direct lattice
  No initial velocities read in
 exchange correlation table for  LEXCH =        8
   RHO(1)=    0.500       N(1)  =     2000
   RHO(2)=  100.500       N(2)  =     4000
 


--------------------------------------------------------------------------------------------------------


 ion  position               nearest neighbor table
   1  0.000  0.000  0.000-   2 1.42   2 1.42   2 1.42
   2  0.333  0.333  0.000-   1 1.42   1 1.42   1 1.42
   3  0.000  0.000  0.195-   4 1.42   4 1.42   4 1.42
   4  0.333  0.333  0.195-   3 1.42   3 1.42   3 1.42
 
  LATTYP: Found a hexagonal cell.
 ALAT       =     2.4595120000
 C/A-ratio  =     8.1316944174
  
  Lattice vectors:
  
 A1 = (   0.0000000000,  -2.4595120000,   0.0000000000)
 A2 = (  -2.1300000000,   1.2297560000,   0.0000000000)
 A3 = (   0.0000000000,   0.0000000000, -20.0000000000)


Analysis of symmetry for initial positions (statically):
=====================================================================
 Subroutine PRICEL returns:
 Original cell was already a primitive cell.
 

 Routine SETGRP: Setting up the symmetry group for a 
 hexagonal supercell.


 Subroutine GETGRP returns: Found 24 space group operations
 (whereof  6 operations were pure point group operations)
 out of a pool of 24 trial point group operations.


The static configuration has the point symmetry C_3v.
 The point group associated with its full space group is D_6h.


Analysis of symmetry for dynamics (positions and initial velocities):
=====================================================================
 Subroutine PRICEL returns:
 Original cell was already a primitive cell.
 

 Routine SETGRP: Setting up the symmetry group for a 
 hexagonal supercell.


 Subroutine GETGRP returns: Found 24 space group operations
 (whereof  6 operations were pure point group operations)
 out of a pool of 24 trial point group operations.


The dynamic configuration has the point symmetry C_3v.
 The point group associated with its full space group is D_6h.


 Subroutine INISYM returns: Found 24 space group operations
 (whereof  6 operations are pure point group operations),
 and found     1 'primitive' translations

 
 
 KPOINTS: k grid                                  

Automatic generation of k-mesh.
Space group operators:
 irot       det(A)        alpha          n_x          n_y          n_z        tau_x        tau_y        tau_z
    1     1.000000     0.000000     1.000000     0.000000     0.000000     0.000000     0.000000     0.000000
    2     1.000000   120.000000     0.000000     0.000000     1.000000     0.000000     0.000000     0.000000
    3     1.000000   120.000000     0.000000     0.000000    -1.000000     0.000000     0.000000     0.000000
    4    -1.000000   180.000000    -0.000000     1.000000     0.000000     0.000000     0.000000     0.000000
    5    -1.000000   180.000000     0.866025    -0.500000     0.000000     0.000000     0.000000     0.000000
    6    -1.000000   180.000000     0.866025     0.500000     0.000000     0.000000     0.000000     0.000000
    7    -1.000000     0.000000     1.000000     0.000000     0.000000     0.333333    -0.666667    -0.805000
    8     1.000000    60.000000     0.000000     0.000000     1.000000     0.333333    -0.666667     0.000000
    9    -1.000000    60.000000     0.000000     0.000000     1.000000    -0.000001    -0.000000    -0.805000
   10    -1.000000   120.000000     0.000000     0.000000     1.000000     0.333333    -0.666667    -0.805000
   11     1.000000   180.000000     0.000000     0.000000     1.000000     0.333333    -0.666667     0.000000
   12    -1.000000   180.000000     0.000000     0.000000     1.000000     0.000000     0.000000    -0.805000
   13    -1.000000   120.000000     0.000000     0.000000    -1.000000     0.333333    -0.666667    -0.805000
   14     1.000000    60.000000     0.000000     0.000000    -1.000000     0.333333    -0.666667     0.000000
   15    -1.000000    60.000000     0.000000     0.000000    -1.000000    -0.000000    -0.000001    -0.805000
   16     1.000000   180.000000    -0.000000     1.000000     0.000000     0.333333    -0.666667    -0.805000
   17     1.000000   180.000000     0.500000    -0.866025     0.000000    -0.000000    -0.000001    -0.805000
   18    -1.000000   180.000000     0.500000    -0.866025     0.000000     0.333333    -0.666667     0.000000
   19     1.000000   180.000000     0.866025    -0.500000     0.000000     0.333333    -0.666667    -0.805000
   20     1.000000   180.000000     1.000000     0.000000     0.000000     0.000000     0.000000    -0.805000
   21    -1.000000   180.000000     1.000000     0.000000     0.000000     0.333333    -0.666667     0.000000
   22     1.000000   180.000000     0.866025     0.500000     0.000000     0.333333    -0.666667    -0.805000
   23     1.000000   180.000000    -0.500000    -0.866025     0.000000    -0.000001    -0.000000    -0.805000
   24    -1.000000   180.000000    -0.500000    -0.866025     0.000000     0.333333    -0.666667     0.000000
 
 Subroutine IBZKPT returns following result:
 ===========================================
 
 Found     48 irreducible k-points:
 
 Following reciprocal coordinates:
            Coordinates               Weight
  0.000000  0.000000  0.000000      1.000000
  0.047619  0.000000  0.000000      6.000000
  0.095238  0.000000  0.000000      6.000000
  0.142857  0.000000  0.000000      6.000000
  0.190476  0.000000  0.000000      6.000000
  0.238095  0.000000  0.000000      6.000000
  0.285714  0.000000  0.000000      6.000000
  0.333333  0.000000  0.000000      6.000000
  0.380952  0.000000  0.000000      6.000000
  0.428571  0.000000  0.000000      6.000000
  0.476190  0.000000  0.000000      6.000000
  0.095238  0.047619  0.000000      6.000000
  0.142857  0.047619  0.000000     12.000000
  0.190476  0.047619  0.000000     12.000000
  0.238095  0.047619  0.000000     12.000000
  0.285714  0.047619  0.000000     12.000000
  0.333333  0.047619  0.000000     12.000000
  0.380952  0.047619  0.000000     12.000000
  0.428571  0.047619  0.000000     12.000000
  0.476190  0.047619  0.000000     12.000000
 -0.476190  0.047619  0.000000      6.000000
  0.190476  0.095238  0.000000      6.000000
  0.238095  0.095238  0.000000     12.000000
  0.285714  0.095238  0.000000     12.000000
  0.333333  0.095238  0.000000     12.000000
  0.380952  0.095238  0.000000     12.000000
  0.428571  0.095238  0.000000     12.000000
  0.476190  0.095238  0.000000     12.000000
 -0.476190  0.095238  0.000000     12.000000
  0.285714  0.142857  0.000000      6.000000
  0.333333  0.142857  0.000000     12.000000
  0.380952  0.142857  0.000000     12.000000
  0.428571  0.142857  0.000000     12.000000
  0.476190  0.142857  0.000000     12.000000
 -0.476190  0.142857  0.000000     12.000000
 -0.428571  0.142857  0.000000      6.000000
  0.380952  0.190476  0.000000      6.000000
  0.428571  0.190476  0.000000     12.000000
  0.476190  0.190476  0.000000     12.000000
 -0.476190  0.190476  0.000000     12.000000
 -0.428571  0.190476  0.000000     12.000000
  0.476190  0.238095  0.000000      6.000000
 -0.476190  0.238095  0.000000     12.000000
 -0.428571  0.238095  0.000000     12.000000
 -0.380952  0.238095  0.000000      6.000000
 -0.428571  0.285714  0.000000      6.000000
 -0.380952  0.285714  0.000000     12.000000
 -0.333333  0.333333  0.000000      2.000000
 
 Following cartesian coordinates:
            Coordinates               Weight
  0.000000  0.000000  0.000000      1.000000
  0.011178 -0.019361  0.000000      6.000000
  0.022356 -0.038722  0.000000      6.000000
  0.033535 -0.058084  0.000000      6.000000
  0.044713 -0.077445  0.000000      6.000000
  0.055891 -0.096806  0.000000      6.000000
  0.067069 -0.116167  0.000000      6.000000
  0.078247 -0.135528  0.000000      6.000000
  0.089425 -0.154889  0.000000      6.000000
  0.100604 -0.174251  0.000000      6.000000
  0.111782 -0.193612  0.000000      6.000000
  0.033535 -0.019361  0.000000      6.000000
  0.044713 -0.038722  0.000000     12.000000
  0.055891 -0.058084  0.000000     12.000000
  0.067069 -0.077445  0.000000     12.000000
  0.078247 -0.096806  0.000000     12.000000
  0.089425 -0.116167  0.000000     12.000000
  0.100604 -0.135528  0.000000     12.000000
  0.111782 -0.154889  0.000000     12.000000
  0.122960 -0.174251  0.000000     12.000000
 -0.100604  0.212973  0.000000      6.000000
  0.067069 -0.038722  0.000000      6.000000
  0.078247 -0.058084  0.000000     12.000000
  0.089425 -0.077445  0.000000     12.000000
  0.100604 -0.096806  0.000000     12.000000
  0.111782 -0.116167  0.000000     12.000000
  0.122960 -0.135528  0.000000     12.000000
  0.134138 -0.154889  0.000000     12.000000
 -0.089425  0.232334  0.000000     12.000000
  0.100604 -0.058084  0.000000      6.000000
  0.111782 -0.077445  0.000000     12.000000
  0.122960 -0.096806  0.000000     12.000000
  0.134138 -0.116167  0.000000     12.000000
  0.145316 -0.135528  0.000000     12.000000
 -0.078247  0.251695  0.000000     12.000000
 -0.067069  0.232334  0.000000      6.000000
  0.134138 -0.077445  0.000000      6.000000
  0.145316 -0.096806  0.000000     12.000000
  0.156495 -0.116167  0.000000     12.000000
 -0.067069  0.271056  0.000000     12.000000
 -0.055891  0.251695  0.000000     12.000000
  0.167673 -0.096806  0.000000      6.000000
 -0.055891  0.290418  0.000000     12.000000
 -0.044713  0.271056  0.000000     12.000000
 -0.033535  0.251695  0.000000      6.000000
 -0.033535  0.290418  0.000000      6.000000
 -0.022356  0.271056  0.000000     12.000000
  0.000000  0.271056  0.000000      2.000000
 


--------------------------------------------------------------------------------------------------------




 Dimension of arrays:
   k-points           NKPTS =     48   k-points in BZ     NKDIM =     48   number of bands    NBANDS=     12
   number of dos      NEDOS =    301   number of ions     NIONS =      4
   non local maximal  LDIM  =      4   non local SUM 2l+1 LMDIM =      8
   total plane-waves  NPLWV = 110592
   max r-space proj   IRMAX =      1   max aug-charges    IRDMAX=  99836
   dimension x,y,z NGX =    24 NGY =   24 NGZ =  192
   dimension x,y,z NGXF=    48 NGYF=   48 NGZF=  384
   support grid    NGXF=    96 NGYF=   96 NGZF=  768
   ions per type =               4
   NGX,Y,Z   is equivalent  to a cutoff of  16.22, 16.22, 15.96 a.u.
   NGXF,Y,Z  is equivalent  to a cutoff of  32.44, 32.44, 31.92 a.u.

 SYSTEM =  C:graphene                              
 POSCAR =  C2_bilayer                              

 Startparameter for this run:
   NWRITE =      2    write-flag & timer
   PREC   = accura    normal or accurate (medium, high low for compatibility)
   ISTART =      0    job   : 0-new  1-cont  2-samecut
   ICHARG =      2    charge: 1-file 2-atom 10-const
   ISPIN  =      1    spin polarized calculation?
   LNONCOLLINEAR =      F non collinear calculations
   LSORBIT =      F    spin-orbit coupling
   INIWAV =      1    electr: 0-lowe 1-rand  2-diag
   LASPH  =      F    aspherical Exc in radial PAW
   METAGGA=      F    non-selfconsistent MetaGGA calc.

 Electronic Relaxation 1
   ENCUT  =  800.0 eV  58.80 Ry    7.67 a.u.   5.67  5.67 46.12*2*pi/ulx,y,z
   ENINI  =  800.0     initial cutoff
   ENAUG  =  644.9 eV  augmentation charge cutoff
   NELM   =     60;   NELMIN=  5; NELMDL= -5     # of ELM steps 
   EDIFF  = 0.1E-07   stopping-criterion for ELM
   LREAL  =      F    real-space projection
   NLSPLINE    = F    spline interpolate recip. space projectors
   LCOMPAT=      F    compatible to vasp.4.4
   GGA_COMPAT  = T    GGA compatible to vasp.4.4-vasp.4.6
   LMAXPAW     = -100 max onsite density
   LMAXMIX     =    2 max onsite mixed and CHGCAR
   VOSKOWN=      0    Vosko Wilk Nusair interpolation
   ROPT   =    0.00000
 Ionic relaxation
   EDIFFG = 0.1E-06   stopping-criterion for IOM
   NSW    =      1    number of steps for IOM
   NBLOCK =      1;   KBLOCK =      1    inner block; outer block 
   IBRION =     -1    ionic relax: 0-MD 1-quasi-New 2-CG
   NFREE  =      0    steps in history (QN), initial steepest desc. (CG)
   ISIF   =      2    stress and relaxation
   IWAVPR =     10    prediction:  0-non 1-charg 2-wave 3-comb
   ISYM   =      2    0-nonsym 1-usesym 2-fastsym
   LCORR  =      T    Harris-Foulkes like correction to forces

   POTIM  = 0.5000    time-step for ionic-motion
   TEIN   =    0.0    initial temperature
   TEBEG  =    0.0;   TEEND  =   0.0 temperature during run
   SMASS  =  -3.00    Nose mass-parameter (am)
   estimated Nose-frequenzy (Omega)   =  0.10E-29 period in steps =****** mass=  -0.138E-27a.u.
   SCALEE = 1.0000    scale energy and forces
   NPACO  =    256;   APACO  = 16.0  distance and # of slots for P.C.
   PSTRESS=    0.0 pullay stress

  Mass of Ions in am
   POMASS =  12.01
  Ionic Valenz
   ZVAL   =   4.00
  Atomic Wigner-Seitz radii
   RWIGS  =  -1.00
  virtual crystal weights 
   VCA    =   1.00
   NELECT =      16.0000    total number of electrons
   NUPDOWN=      -1.0000    fix difference up-down

 DOS related values:
   EMIN   =  10.00;   EMAX   =-10.00  energy-range for DOS
   EFERMI =   0.00
   ISMEAR =     0;   SIGMA  =   0.01  broadening in eV -4-tet -1-fermi 0-gaus

 Electronic relaxation 2 (details)
   IALGO  =     38    algorithm
   LDIAG  =      T    sub-space diagonalisation (order eigenvalues)
   LSUBROT=      F    optimize rotation matrix (better conditioning)
   TURBO    =      0    0=normal 1=particle mesh
   IRESTART =      0    0=no restart 2=restart with 2 vectors
   NREBOOT  =      0    no. of reboots
   NMIN     =      0    reboot dimension
   EREF     =   0.00    reference energy to select bands
   IMIX   =      4    mixing-type and parameters
     AMIX     =   0.40;   BMIX     =  1.00
     AMIX_MAG =   1.60;   BMIX_MAG =  1.00
     AMIN     =   0.01
     WC   =   100.;   INIMIX=   1;  MIXPRE=   1;  MAXMIX= -45

 Intra band minimization:
   WEIMIN = 0.0000     energy-eigenvalue tresh-hold
   EBREAK =  0.21E-09  absolut break condition
   DEPER  =   0.30     relativ break condition  

   TIME   =   0.40     timestep for ELM

  volume/ion in A,a.u.               =      26.19       176.76
  Fermi-wavevector in a.u.,A,eV,Ry     =   0.875041  1.653589 10.417948  0.765698
  Thomas-Fermi vector in A             =   1.994657
 
 Write flags
   LWAVE        =      F    write WAVECAR
   LDOWNSAMPLE  =      F    k-point downsampling of WAVECAR
   LCHARG       =      T    write CHGCAR
   LVTOT        =      F    write LOCPOT, total local potential
   LVHAR        =      F    write LOCPOT, Hartree potential only
   LELF         =      F    write electronic localiz. function (ELF)
   LORBIT       =      0    0 simple, 1 ext, 2 COOP (PROOUT), +10 PAW based schemes


 Dipole corrections
   LMONO  =      F    monopole corrections only (constant potential shift)
   LDIPOL =      F    correct potential (dipole corrections)
   IDIPOL =      0    1-x, 2-y, 3-z, 4-all directions 
   EPSILON=  1.0000000 bulk dielectric constant

 Exchange correlation treatment:
   GGA     =    --    GGA type
   LEXCH   =     8    internal setting for exchange type
   VOSKOWN=      0    Vosko Wilk Nusair interpolation
   LHFCALC =     F    Hartree Fock is set to
   LHFONE  =     F    Hartree Fock one center treatment
   AEXX    =    0.0000 exact exchange contribution

 Linear response parameters
   LEPSILON=     F    determine dielectric tensor
   LRPA    =     F    only Hartree local field effects (RPA)
   LNABLA  =     F    use nabla operator in PAW spheres
   LVEL    =     F    velocity operator in full k-point grid
   LINTERFAST=   F  fast interpolation
   KINTER  =     0    interpolate to denser k-point grid
   CSHIFT  =0.1000    complex shift for real part using Kramers Kronig
   OMEGAMAX=  -1.0    maximum frequency
   DEG_THRESHOLD= 0.2000000E-02 threshold for treating states as degnerate
   RTIME   =   -0.100 relaxation time in fs
  (WPLASMAI=    0.000 imaginary part of plasma frequency in eV, 0.658/RTIME)
   DFIELD  = 0.0000000 0.0000000 0.0000000 field for delta impulse in time
 
 Orbital magnetization related:
   ORBITALMAG=     F  switch on orbital magnetization
   LCHIMAG   =     F  perturbation theory with respect to B field
   DQ        =  0.001000  dq finite difference perturbation B field
   LLRAUG    =     F  two centre corrections for induced B field



--------------------------------------------------------------------------------------------------------


 Static calculation
 charge density and potential will be updated during run
 non-spin polarized calculation
 Variant of blocked Davidson
 Davidson routine will perform the subspace rotation
 perform sub-space diagonalisation
    after iterative eigenvector-optimisation
 modified Broyden-mixing scheme, WC =      100.0
 initial mixing is a Kerker type mixing with AMIX =  0.4000 and BMIX =      1.0000
 Hartree-type preconditioning will be used
 using additional bands            4
 reciprocal scheme for non local part
 use partial core corrections
 calculate Harris-corrections to forces 
   (improved forces if not selfconsistent)
 use gradient corrections 
 use of overlap-Matrix (Vanderbilt PP)
 Gauss-broadening in eV      SIGMA  =   0.01


--------------------------------------------------------------------------------------------------------


  energy-cutoff  :      800.00
  volume of cell :      104.78
      direct lattice vectors                 reciprocal lattice vectors
     2.130000000 -1.229756000  0.000000000     0.234741784 -0.406584721  0.000000000
     2.130000000  1.229756000  0.000000000     0.234741784  0.406584721  0.000000000
     0.000000000  0.000000000 20.000000000     0.000000000  0.000000000  0.050000000

  length of vectors
     2.459512110  2.459512110 20.000000000     0.469483589  0.469483589  0.050000000


 
 k-points in units of 2pi/SCALE and weight: k grid                                  
   0.00000000  0.00000000  0.00000000       0.002
   0.01117818 -0.01936118  0.00000000       0.014
   0.02235636 -0.03872235  0.00000000       0.014
   0.03353454 -0.05808353  0.00000000       0.014
   0.04471272 -0.07744471  0.00000000       0.014
   0.05589090 -0.09680589  0.00000000       0.014
   0.06706908 -0.11616706  0.00000000       0.014
   0.07824726 -0.13552824  0.00000000       0.014
   0.08942544 -0.15488942  0.00000000       0.014
   0.10060362 -0.17425059  0.00000000       0.014
   0.11178180 -0.19361177  0.00000000       0.014
   0.03353454 -0.01936118  0.00000000       0.014
   0.04471272 -0.03872235  0.00000000       0.027
   0.05589090 -0.05808353  0.00000000       0.027
   0.06706908 -0.07744471  0.00000000       0.027
   0.07824726 -0.09680589  0.00000000       0.027
   0.08942544 -0.11616706  0.00000000       0.027
   0.10060362 -0.13552824  0.00000000       0.027
   0.11178180 -0.15488942  0.00000000       0.027
   0.12295998 -0.17425059  0.00000000       0.027
  -0.10060362  0.21297295  0.00000000       0.014
   0.06706908 -0.03872235  0.00000000       0.014
   0.07824726 -0.05808353  0.00000000       0.027
   0.08942544 -0.07744471  0.00000000       0.027
   0.10060362 -0.09680589  0.00000000       0.027
   0.11178180 -0.11616706  0.00000000       0.027
   0.12295998 -0.13552824  0.00000000       0.027
   0.13413816 -0.15488942  0.00000000       0.027
  -0.08942544  0.23233413  0.00000000       0.027
   0.10060362 -0.05808353  0.00000000       0.014
   0.11178180 -0.07744471  0.00000000       0.027
   0.12295998 -0.09680589  0.00000000       0.027
   0.13413816 -0.11616706  0.00000000       0.027
   0.14531634 -0.13552824  0.00000000       0.027
  -0.07824726  0.25169530  0.00000000       0.027
  -0.06706908  0.23233413  0.00000000       0.014
   0.13413816 -0.07744471  0.00000000       0.014
   0.14531634 -0.09680589  0.00000000       0.027
   0.15649452 -0.11616706  0.00000000       0.027
  -0.06706908  0.27105648  0.00000000       0.027
  -0.05589090  0.25169530  0.00000000       0.027
   0.16767270 -0.09680589  0.00000000       0.014
  -0.05589090  0.29041766  0.00000000       0.027
  -0.04471272  0.27105648  0.00000000       0.027
  -0.03353454  0.25169530  0.00000000       0.014
  -0.03353454  0.29041766  0.00000000       0.014
  -0.02235636  0.27105648  0.00000000       0.027
   0.00000000  0.27105648  0.00000000       0.005
 
 k-points in reciprocal lattice and weights: k grid                                  
   0.00000000  0.00000000  0.00000000       0.002
   0.04761905  0.00000000  0.00000000       0.014
   0.09523810  0.00000000  0.00000000       0.014
   0.14285714  0.00000000  0.00000000       0.014
   0.19047619  0.00000000  0.00000000       0.014
   0.23809524  0.00000000  0.00000000       0.014
   0.28571429  0.00000000  0.00000000       0.014
   0.33333333  0.00000000  0.00000000       0.014
   0.38095238  0.00000000  0.00000000       0.014
   0.42857143  0.00000000  0.00000000       0.014
   0.47619048  0.00000000  0.00000000       0.014
   0.09523810  0.04761905  0.00000000       0.014
   0.14285714  0.04761905  0.00000000       0.027
   0.19047619  0.04761905  0.00000000       0.027
   0.23809524  0.04761905  0.00000000       0.027
   0.28571429  0.04761905  0.00000000       0.027
   0.33333333  0.04761905  0.00000000       0.027
   0.38095238  0.04761905  0.00000000       0.027
   0.42857143  0.04761905  0.00000000       0.027
   0.47619048  0.04761905  0.00000000       0.027
  -0.47619048  0.04761905  0.00000000       0.014
   0.19047619  0.09523810  0.00000000       0.014
   0.23809524  0.09523810  0.00000000       0.027
   0.28571429  0.09523810  0.00000000       0.027
   0.33333333  0.09523810  0.00000000       0.027
   0.38095238  0.09523810  0.00000000       0.027
   0.42857143  0.09523810  0.00000000       0.027
   0.47619048  0.09523810  0.00000000       0.027
  -0.47619048  0.09523810  0.00000000       0.027
   0.28571429  0.14285714  0.00000000       0.014
   0.33333333  0.14285714  0.00000000       0.027
   0.38095238  0.14285714  0.00000000       0.027
   0.42857143  0.14285714  0.00000000       0.027
   0.47619048  0.14285714  0.00000000       0.027
  -0.47619048  0.14285714  0.00000000       0.027
  -0.42857143  0.14285714  0.00000000       0.014
   0.38095238  0.19047619  0.00000000       0.014
   0.42857143  0.19047619  0.00000000       0.027
   0.47619048  0.19047619  0.00000000       0.027
  -0.47619048  0.19047619  0.00000000       0.027
  -0.42857143  0.19047619  0.00000000       0.027
   0.47619048  0.23809524  0.00000000       0.014
  -0.47619048  0.23809524  0.00000000       0.027
  -0.42857143  0.23809524  0.00000000       0.027
  -0.38095238  0.23809524  0.00000000       0.014
  -0.42857143  0.28571429  0.00000000       0.014
  -0.38095238  0.28571429  0.00000000       0.027
  -0.33333333  0.33333333  0.00000000       0.005
 
 position of ions in fractional coordinates (direct lattice) 
   0.00000000  0.00000000  0.00000000
   0.33333300  0.33333300  0.00000000
   0.00000000  0.00000000  0.19500000
   0.33333300  0.33333300  0.19500000
 
 position of ions in cartesian coordinates  (Angst):
   0.00000000  0.00000000  0.00000000
   1.41999858  0.00000000  0.00000000
   0.00000000  0.00000000  3.90000000
   1.41999858  0.00000000  3.90000000
 


--------------------------------------------------------------------------------------------------------


 k-point  1 :   0.0000 0.0000 0.0000  plane waves:    5409
 k-point  2 :   0.0476 0.0000 0.0000  plane waves:    5413
 k-point  3 :   0.0952 0.0000 0.0000  plane waves:    5402
 k-point  4 :   0.1429 0.0000 0.0000  plane waves:    5398
 k-point  5 :   0.1905 0.0000 0.0000  plane waves:    5404
 k-point  6 :   0.2381 0.0000 0.0000  plane waves:    5408
 k-point  7 :   0.2857 0.0000 0.0000  plane waves:    5404
 k-point  8 :   0.3333 0.0000 0.0000  plane waves:    5394
 k-point  9 :   0.3810 0.0000 0.0000  plane waves:    5382
 k-point 10 :   0.4286 0.0000 0.0000  plane waves:    5396
 k-point 11 :   0.4762 0.0000 0.0000  plane waves:    5380
 k-point 12 :   0.0952 0.0476 0.0000  plane waves:    5411
 k-point 13 :   0.1429 0.0476 0.0000  plane waves:    5415
 k-point 14 :   0.1905 0.0476 0.0000  plane waves:    5413
 k-point 15 :   0.2381 0.0476 0.0000  plane waves:    5399
 k-point 16 :   0.2857 0.0476 0.0000  plane waves:    5396
 k-point 17 :   0.3333 0.0476 0.0000  plane waves:    5389
 k-point 18 :   0.3810 0.0476 0.0000  plane waves:    5378
 k-point 19 :   0.4286 0.0476 0.0000  plane waves:    5381
 k-point 20 :   0.4762 0.0476 0.0000  plane waves:    5391
 k-point 21 :  -0.4762 0.0476 0.0000  plane waves:    5394
 k-point 22 :   0.1905 0.0952 0.0000  plane waves:    5403
 k-point 23 :   0.2381 0.0952 0.0000  plane waves:    5409
 k-point 24 :   0.2857 0.0952 0.0000  plane waves:    5419
 k-point 25 :   0.3333 0.0952 0.0000  plane waves:    5384
 k-point 26 :   0.3810 0.0952 0.0000  plane waves:    5369
 k-point 27 :   0.4286 0.0952 0.0000  plane waves:    5364
 k-point 28 :   0.4762 0.0952 0.0000  plane waves:    5382
 k-point 29 :  -0.4762 0.0952 0.0000  plane waves:    5404
 k-point 30 :   0.2857 0.1429 0.0000  plane waves:    5405
 k-point 31 :   0.3333 0.1429 0.0000  plane waves:    5404
 k-point 32 :   0.3810 0.1429 0.0000  plane waves:    5382
 k-point 33 :   0.4286 0.1429 0.0000  plane waves:    5347
 k-point 34 :   0.4762 0.1429 0.0000  plane waves:    5367
 k-point 35 :  -0.4762 0.1429 0.0000  plane waves:    5376
 k-point 36 :  -0.4286 0.1429 0.0000  plane waves:    5400
 k-point 37 :   0.3810 0.1905 0.0000  plane waves:    5390
 k-point 38 :   0.4286 0.1905 0.0000  plane waves:    5358
 k-point 39 :   0.4762 0.1905 0.0000  plane waves:    5365
 k-point 40 :  -0.4762 0.1905 0.0000  plane waves:    5363
 k-point 41 :  -0.4286 0.1905 0.0000  plane waves:    5377
 k-point 42 :   0.4762 0.2381 0.0000  plane waves:    5364
 k-point 43 :  -0.4762 0.2381 0.0000  plane waves:    5368
 k-point 44 :  -0.4286 0.2381 0.0000  plane waves:    5360
 k-point 45 :  -0.3810 0.2381 0.0000  plane waves:    5366
 k-point 46 :  -0.4286 0.2857 0.0000  plane waves:    5362
 k-point 47 :  -0.3810 0.2857 0.0000  plane waves:    5326
 k-point 48 :  -0.3333 0.3333 0.0000  plane waves:    5334

 maximum and minimum number of plane-waves per node :      5419     5326

 maximum number of plane-waves:      5419
 maximum index in each direction: 
   IXMAX=    6   IYMAX=    5   IZMAX=   46
   IXMIN=   -6   IYMIN=   -5   IZMIN=  -46


 serial   3D FFT for wavefunctions
 parallel 3D FFT for charge:
    minimum data exchange during FFTs selected (reduces bandwidth)


 total amount of memory used by VASP MPI-rank0   107376. kBytes
=======================================================================

   base      :      30000. kBytes
   nonl-proj :      16997. kBytes
   fftplans  :      32720. kBytes
   grid      :      15086. kBytes
   one-center:         12. kBytes
   wavefun   :      12561. kBytes
 
     INWAV:  cpu time    0.0000: real time    0.0001
 Broyden mixing: mesh for mixing (old mesh)
   NGX = 11   NGY = 11   NGZ = 93
  (NGX  = 48   NGY  = 48   NGZ  =384)
  gives a total of  11253 points

 initial charge density was supplied:
 charge density of overlapping atoms calculated
 number of electron      16.0000000 magnetization 
 keeping initial charge density in first step


--------------------------------------------------------------------------------------------------------


 Maximum index for augmentation-charges        24168 (set IRDMAX)


--------------------------------------------------------------------------------------------------------


 First call to EWALD:  gamma=   0.376
 Maximum number of real-space cells 5x 5x 1
 Maximum number of reciprocal cells 2x 2x10

    FEWALD:  cpu time    0.0011: real time    0.0011


--------------------------------------- Iteration      1(   1)  ---------------------------------------


    POTLOK:  cpu time    0.0865: real time    0.1032
    SETDIJ:  cpu time    0.0422: real time    0.0423
     EDDAV:  cpu time    1.4554: real time    1.4606
       DOS:  cpu time    0.0004: real time    0.0004
    --------------------------------------------
      LOOP:  cpu time    1.5845: real time    1.6065

 eigenvalue-minimisations  :  1152
 total energy-change (2. order) : 0.1275457E+03  (-0.8013281E+03)
 number of electron      16.0000000 magnetization 
 augmentation part       16.0000000 magnetization 

 Free energy of the ion-electron system (eV)
  ---------------------------------------------------
  alpha Z        PSCENC =        12.54445055
  Ewald energy   TEWEN  =      2820.31953845
  -Hartree energ DENC   =     -3282.00506502
  -exchange      EXHF   =         0.00000000
  -V(xc)+E(xc)   XCENC  =        52.83945367
  PAW double counting   =       434.08818552     -436.36580876
  entropy T*S    EENTRO =        -0.00032158
  eigenvalues    EBANDS =       -62.49246261
  atomic energy  EATOM  =       588.61769381
  Solvation  Ediel_sol  =         0.00000000
  ---------------------------------------------------
  free energy    TOTEN  =       127.54566405 eV

  energy without entropy =      127.54598562  energy(sigma->0) =      127.54582483


--------------------------------------------------------------------------------------------------------




--------------------------------------- Iteration      1(   2)  ---------------------------------------


     EDDAV:  cpu time    2.0143: real time    2.0207
       DOS:  cpu time    0.0004: real time    0.0004
    --------------------------------------------
      LOOP:  cpu time    2.0147: real time    2.0211

 eigenvalue-minimisations  :  1828
 total energy-change (2. order) :-0.1526707E+03  (-0.1397885E+03)
 number of electron      16.0000000 magnetization 
 augmentation part       16.0000000 magnetization 

 Free energy of the ion-electron system (eV)
  ---------------------------------------------------
  alpha Z        PSCENC =        12.54445055
  Ewald energy   TEWEN  =      2820.31953845
  -Hartree energ DENC   =     -3282.00506502
  -exchange      EXHF   =         0.00000000
  -V(xc)+E(xc)   XCENC  =        52.83945367
  PAW double counting   =       434.08818552     -436.36580876
  entropy T*S    EENTRO =        -0.00006996
  eigenvalues    EBANDS =      -215.16343228
  atomic energy  EATOM  =       588.61769381
  Solvation  Ediel_sol  =         0.00000000
  ---------------------------------------------------
  free energy    TOTEN  =       -25.12505401 eV

  energy without entropy =      -25.12498405  energy(sigma->0) =      -25.12501903


--------------------------------------------------------------------------------------------------------




--------------------------------------- Iteration      1(   3)  ---------------------------------------


     EDDAV:  cpu time    1.6648: real time    1.6700
       DOS:  cpu time    0.0002: real time    0.0002
    --------------------------------------------
      LOOP:  cpu time    1.6650: real time    1.6701

 eigenvalue-minimisations  :  1424
 total energy-change (2. order) :-0.1404701E+02  (-0.1391316E+02)
 number of electron      16.0000000 magnetization 
 augmentation part       16.0000000 magnetization 

 Free energy of the ion-electron system (eV)
  ---------------------------------------------------
  alpha Z        PSCENC =        12.54445055
  Ewald energy   TEWEN  =      2820.31953845
  -Hartree energ DENC   =     -3282.00506502
  -exchange      EXHF   =         0.00000000
  -V(xc)+E(xc)   XCENC  =        52.83945367
  PAW double counting   =       434.08818552     -436.36580876
  entropy T*S    EENTRO =        -0.00000000
  eigenvalues    EBANDS =      -229.21051495
  atomic energy  EATOM  =       588.61769381
  Solvation  Ediel_sol  =         0.00000000
  ---------------------------------------------------
  free energy    TOTEN  =       -39.17206672 eV

  energy without entropy =      -39.17206672  energy(sigma->0) =      -39.17206672


--------------------------------------------------------------------------------------------------------




--------------------------------------- Iteration      1(   4)  ---------------------------------------


     EDDAV:  cpu time    1.7205: real time    1.7259
       DOS:  cpu time    0.0002: real time    0.0002
    --------------------------------------------
      LOOP:  cpu time    1.7207: real time    1.7260

 eigenvalue-minimisations  :  1484
 total energy-change (2. order) :-0.3113432E+00  (-0.3105105E+00)
 number of electron      16.0000000 magnetization 
 augmentation part       16.0000000 magnetization 

 Free energy of the ion-electron system (eV)
  ---------------------------------------------------
  alpha Z        PSCENC =        12.54445055
  Ewald energy   TEWEN  =      2820.31953845
  -Hartree energ DENC   =     -3282.00506502
  -exchange      EXHF   =         0.00000000
  -V(xc)+E(xc)   XCENC  =        52.83945367
  PAW double counting   =       434.08818552     -436.36580876
  entropy T*S    EENTRO =        -0.00000000
  eigenvalues    EBANDS =      -229.52185818
  atomic energy  EATOM  =       588.61769381
  Solvation  Ediel_sol  =         0.00000000
  ---------------------------------------------------
  free energy    TOTEN  =       -39.48340994 eV

  energy without entropy =      -39.48340994  energy(sigma->0) =      -39.48340994


--------------------------------------------------------------------------------------------------------




--------------------------------------- Iteration      1(   5)  ---------------------------------------


     EDDAV:  cpu time    1.7021: real time    1.7077
       DOS:  cpu time    0.0002: real time    0.0002
    CHARGE:  cpu time    0.1914: real time    0.1918
    MIXING:  cpu time    0.0025: real time    0.0025
    --------------------------------------------
      LOOP:  cpu time    1.8961: real time    1.9021

 eigenvalue-minimisations  :  1480
 total energy-change (2. order) :-0.8674312E-02  (-0.8657324E-02)
 number of electron      16.0000000 magnetization 
 augmentation part        0.4279560 magnetization 

 Broyden mixing:
  rms(total) = 0.90187E+00    rms(broyden)= 0.90186E+00
  rms(prec ) = 0.96400E+00
  weight for this iteration     100.00

 Free energy of the ion-electron system (eV)
  ---------------------------------------------------
  alpha Z        PSCENC =        12.54445055
  Ewald energy   TEWEN  =      2820.31953845
  -Hartree energ DENC   =     -3282.00506502
  -exchange      EXHF   =         0.00000000
  -V(xc)+E(xc)   XCENC  =        52.83945367
  PAW double counting   =       434.08818552     -436.36580876
  entropy T*S    EENTRO =        -0.00000000
  eigenvalues    EBANDS =      -229.53053249
  atomic energy  EATOM  =       588.61769381
  Solvation  Ediel_sol  =         0.00000000
  ---------------------------------------------------
  free energy    TOTEN  =       -39.49208426 eV

  energy without entropy =      -39.49208426  energy(sigma->0) =      -39.49208426


--------------------------------------------------------------------------------------------------------




--------------------------------------- Iteration      1(   6)  ---------------------------------------


    POTLOK:  cpu time    0.0735: real time    0.0763
    SETDIJ:  cpu time    0.0359: real time    0.0360
     EDDAV:  cpu time    1.6358: real time    1.6411
       DOS:  cpu time    0.0002: real time    0.0002
    CHARGE:  cpu time    0.1868: real time    0.1873
    MIXING:  cpu time    0.0027: real time    0.0027
    --------------------------------------------
      LOOP:  cpu time    1.9349: real time    1.9436

 eigenvalue-minimisations  :  1372
 total energy-change (2. order) : 0.1875302E+01  (-0.1748116E+00)
 number of electron      16.0000000 magnetization 
 augmentation part        0.4090464 magnetization 

 Broyden mixing:
  rms(total) = 0.52904E+00    rms(broyden)= 0.52904E+00
  rms(prec ) = 0.55938E+00
  weight for this iteration     100.00

 eigenvalues of (default mixing * dielectric matrix)
  average eigenvalue GAMMA=   2.2040
  2.2040

 Free energy of the ion-electron system (eV)
  ---------------------------------------------------
  alpha Z        PSCENC =        12.54445055
  Ewald energy   TEWEN  =      2820.31953845
  -Hartree energ DENC   =     -3301.97695643
  -exchange      EXHF   =         0.00000000
  -V(xc)+E(xc)   XCENC  =        53.83348411
  PAW double counting   =       803.31892350     -805.89519490
  entropy T*S    EENTRO =        -0.00000000
  eigenvalues    EBANDS =      -208.37872147
  atomic energy  EATOM  =       588.61769381
  Solvation  Ediel_sol  =         0.00000000
  ---------------------------------------------------
  free energy    TOTEN  =       -37.61678239 eV

  energy without entropy =      -37.61678239  energy(sigma->0) =      -37.61678239


--------------------------------------------------------------------------------------------------------




--------------------------------------- Iteration      1(   7)  ---------------------------------------


    POTLOK:  cpu time    0.0740: real time    0.0743
    SETDIJ:  cpu time    0.0390: real time    0.0391
     EDDAV:  cpu time    1.6986: real time    1.7037
       DOS:  cpu time    0.0002: real time    0.0002
    CHARGE:  cpu time    0.1818: real time    0.1822
    MIXING:  cpu time    0.0027: real time    0.0027
    --------------------------------------------
      LOOP:  cpu time    1.9963: real time    2.0021

 eigenvalue-minimisations  :  1416
 total energy-change (2. order) : 0.6749272E+00  (-0.2292603E+00)
 number of electron      16.0000000 magnetization 
 augmentation part        0.3867756 magnetization 

 Broyden mixing:
  rms(total) = 0.13741E+00    rms(broyden)= 0.13741E+00
  rms(prec ) = 0.14288E+00
  weight for this iteration     100.00

 eigenvalues of (default mixing * dielectric matrix)
  average eigenvalue GAMMA=   2.2749
  2.1694  2.3803

 Free energy of the ion-electron system (eV)
  ---------------------------------------------------
  alpha Z        PSCENC =        12.54445055
  Ewald energy   TEWEN  =      2820.31953845
  -Hartree energ DENC   =     -3327.73448322
  -exchange      EXHF   =         0.00000000
  -V(xc)+E(xc)   XCENC  =        55.12524451
  PAW double counting   =      1520.05411096    -1522.89414686
  entropy T*S    EENTRO =        -0.00000000
  eigenvalues    EBANDS =      -182.97426338
  atomic energy  EATOM  =       588.61769381
  Solvation  Ediel_sol  =         0.00000000
  ---------------------------------------------------
  free energy    TOTEN  =       -36.94185520 eV

  energy without entropy =      -36.94185520  energy(sigma->0) =      -36.94185520


--------------------------------------------------------------------------------------------------------




--------------------------------------- Iteration      1(   8)  ---------------------------------------


    POTLOK:  cpu time    0.0724: real time    0.0726
    SETDIJ:  cpu time    0.0382: real time    0.0383
     EDDAV:  cpu time    1.7125: real time    1.7176
       DOS:  cpu time    0.0002: real time    0.0002
    CHARGE:  cpu time    0.1852: real time    0.1857
    MIXING:  cpu time    0.0028: real time    0.0028
    --------------------------------------------
      LOOP:  cpu time    2.0112: real time    2.0171

 eigenvalue-minimisations  :  1432
 total energy-change (2. order) : 0.3301060E-02  (-0.7904024E-02)
 number of electron      16.0000000 magnetization 
 augmentation part        0.3860526 magnetization 

 Broyden mixing:
  rms(total) = 0.12925E-01    rms(broyden)= 0.12924E-01
  rms(prec ) = 0.28040E-01
  weight for this iteration     100.00

 eigenvalues of (default mixing * dielectric matrix)
  average eigenvalue GAMMA=   1.7983
  0.9423  2.3276  2.1249

 Free energy of the ion-electron system (eV)
  ---------------------------------------------------
  alpha Z        PSCENC =        12.54445055
  Ewald energy   TEWEN  =      2820.31953845
  -Hartree energ DENC   =     -3329.43395704
  -exchange      EXHF   =         0.00000000
  -V(xc)+E(xc)   XCENC  =        55.09874751
  PAW double counting   =      1708.50869926    -1711.23348243
  entropy T*S    EENTRO =        -0.00000000
  eigenvalues    EBANDS =      -181.36024424
  atomic energy  EATOM  =       588.61769381
  Solvation  Ediel_sol  =         0.00000000
  ---------------------------------------------------
  free energy    TOTEN  =       -36.93855414 eV

  energy without entropy =      -36.93855414  energy(sigma->0) =      -36.93855414


--------------------------------------------------------------------------------------------------------




--------------------------------------- Iteration      1(   9)  ---------------------------------------


    POTLOK:  cpu time    0.0735: real time    0.0785
    SETDIJ:  cpu time    0.0380: real time    0.0381
     EDDAV:  cpu time    1.7402: real time    1.7453
       DOS:  cpu time    0.0002: real time    0.0002
    CHARGE:  cpu time    0.1759: real time    0.1763
    MIXING:  cpu time    0.0028: real time    0.0028
    --------------------------------------------
      LOOP:  cpu time    2.0305: real time    2.0412

 eigenvalue-minimisations  :  1496
 total energy-change (2. order) : 0.1893269E-02  (-0.2725280E-03)
 number of electron      16.0000000 magnetization 
 augmentation part        0.3855650 magnetization 

 Broyden mixing:
  rms(total) = 0.93740E-02    rms(broyden)= 0.93740E-02
  rms(prec ) = 0.25002E-01
  weight for this iteration     100.00

 eigenvalues of (default mixing * dielectric matrix)
  average eigenvalue GAMMA=   2.0505
  1.0452  2.6048  2.6048  1.9471

 Free energy of the ion-electron system (eV)
  ---------------------------------------------------
  alpha Z        PSCENC =        12.54445055
  Ewald energy   TEWEN  =      2820.31953845
  -Hartree energ DENC   =     -3330.55549448
  -exchange      EXHF   =         0.00000000
  -V(xc)+E(xc)   XCENC  =        55.12383217
  PAW double counting   =      1703.86950286    -1706.59893079
  entropy T*S    EENTRO =        -0.00000000
  eigenvalues    EBANDS =      -180.25725343
  atomic energy  EATOM  =       588.61769381
  Solvation  Ediel_sol  =         0.00000000
  ---------------------------------------------------
  free energy    TOTEN  =       -36.93666087 eV

  energy without entropy =      -36.93666087  energy(sigma->0) =      -36.93666087


--------------------------------------------------------------------------------------------------------




--------------------------------------- Iteration      1(  10)  ---------------------------------------


    POTLOK:  cpu time    0.0711: real time    0.0713
    SETDIJ:  cpu time    0.0351: real time    0.0352
     EDDAV:  cpu time    1.6375: real time    1.6423
       DOS:  cpu time    0.0002: real time    0.0002
    CHARGE:  cpu time    0.1753: real time    0.1757
    MIXING:  cpu time    0.0029: real time    0.0029
    --------------------------------------------
      LOOP:  cpu time    1.9220: real time    1.9275

 eigenvalue-minimisations  :  1400
 total energy-change (2. order) : 0.6923225E-02  (-0.3843973E-03)
 number of electron      16.0000000 magnetization 
 augmentation part        0.3850536 magnetization 

 Broyden mixing:
  rms(total) = 0.10222E-01    rms(broyden)= 0.10222E-01
  rms(prec ) = 0.19205E-01
  weight for this iteration     100.00

 eigenvalues of (default mixing * dielectric matrix)
  average eigenvalue GAMMA=   1.8916
  3.1274  2.5171  1.9776  1.0198  0.8163

 Free energy of the ion-electron system (eV)
  ---------------------------------------------------
  alpha Z        PSCENC =        12.54445055
  Ewald energy   TEWEN  =      2820.31953845
  -Hartree energ DENC   =     -3334.95583722
  -exchange      EXHF   =         0.00000000
  -V(xc)+E(xc)   XCENC  =        55.18033152
  PAW double counting   =      1684.62260809    -1687.34750205
  entropy T*S    EENTRO =        -0.00000000
  eigenvalues    EBANDS =      -175.91102079
  atomic energy  EATOM  =       588.61769381
  Solvation  Ediel_sol  =         0.00000000
  ---------------------------------------------------
  free energy    TOTEN  =       -36.92973764 eV

  energy without entropy =      -36.92973764  energy(sigma->0) =      -36.92973764


--------------------------------------------------------------------------------------------------------




--------------------------------------- Iteration      1(  11)  ---------------------------------------


    POTLOK:  cpu time    0.0711: real time    0.0714
    SETDIJ:  cpu time    0.0348: real time    0.0349
     EDDAV:  cpu time    1.6033: real time    1.6083
       DOS:  cpu time    0.0002: real time    0.0002
    CHARGE:  cpu time    0.1769: real time    0.1773
    MIXING:  cpu time    0.0032: real time    0.0032
    --------------------------------------------
      LOOP:  cpu time    1.8895: real time    1.8953

 eigenvalue-minimisations  :  1348
 total energy-change (2. order) : 0.2013962E-02  (-0.6319246E-04)
 number of electron      16.0000000 magnetization 
 augmentation part        0.3849378 magnetization 

 Broyden mixing:
  rms(total) = 0.52835E-02    rms(broyden)= 0.52835E-02
  rms(prec ) = 0.14859E-01
  weight for this iteration     100.00

 eigenvalues of (default mixing * dielectric matrix)
  average eigenvalue GAMMA=   2.1078
  4.1381  2.4436  2.1019  1.8238  0.9801  1.1595

 Free energy of the ion-electron system (eV)
  ---------------------------------------------------
  alpha Z        PSCENC =        12.54445055
  Ewald energy   TEWEN  =      2820.31953845
  -Hartree energ DENC   =     -3336.50994599
  -exchange      EXHF   =         0.00000000
  -V(xc)+E(xc)   XCENC  =        55.19344545
  PAW double counting   =      1699.98815321    -1702.70829407
  entropy T*S    EENTRO =        -0.00000000
  eigenvalues    EBANDS =      -174.37276509
  atomic energy  EATOM  =       588.61769381
  Solvation  Ediel_sol  =         0.00000000
  ---------------------------------------------------
  free energy    TOTEN  =       -36.92772368 eV

  energy without entropy =      -36.92772368  energy(sigma->0) =      -36.92772368


--------------------------------------------------------------------------------------------------------




--------------------------------------- Iteration      1(  12)  ---------------------------------------


    POTLOK:  cpu time    0.0686: real time    0.0688
    SETDIJ:  cpu time    0.0352: real time    0.0353
     EDDAV:  cpu time    1.5057: real time    1.5104
       DOS:  cpu time    0.0002: real time    0.0002
    CHARGE:  cpu time    0.1828: real time    0.1833
    MIXING:  cpu time    0.0032: real time    0.0032
    --------------------------------------------
      LOOP:  cpu time    1.7957: real time    1.8011

 eigenvalue-minimisations  :  1220
 total energy-change (2. order) : 0.3501870E-02  (-0.1724854E-03)
 number of electron      16.0000000 magnetization 
 augmentation part        0.3848568 magnetization 

 Broyden mixing:
  rms(total) = 0.36290E-02    rms(broyden)= 0.36290E-02
  rms(prec ) = 0.10102E-01
  weight for this iteration     100.00

 eigenvalues of (default mixing * dielectric matrix)
  average eigenvalue GAMMA=   2.4265
  6.3734  2.8046  2.2411  2.0368  1.4589  0.9939  1.0766

 Free energy of the ion-electron system (eV)
  ---------------------------------------------------
  alpha Z        PSCENC =        12.54445055
  Ewald energy   TEWEN  =      2820.31953845
  -Hartree energ DENC   =     -3339.67633111
  -exchange      EXHF   =         0.00000000
  -V(xc)+E(xc)   XCENC  =        55.19610312
  PAW double counting   =      1698.83214791    -1701.55557247
  entropy T*S    EENTRO =        -0.00000000
  eigenvalues    EBANDS =      -171.20225207
  atomic energy  EATOM  =       588.61769381
  Solvation  Ediel_sol  =         0.00000000
  ---------------------------------------------------
  free energy    TOTEN  =       -36.92422181 eV

  energy without entropy =      -36.92422181  energy(sigma->0) =      -36.92422181


--------------------------------------------------------------------------------------------------------




--------------------------------------- Iteration      1(  13)  ---------------------------------------


    POTLOK:  cpu time    0.0673: real time    0.0675
    SETDIJ:  cpu time    0.0363: real time    0.0364
     EDDAV:  cpu time    1.5739: real time    1.5791
       DOS:  cpu time    0.0002: real time    0.0002
    CHARGE:  cpu time    0.1761: real time    0.1765
    MIXING:  cpu time    0.0032: real time    0.0032
    --------------------------------------------
      LOOP:  cpu time    1.8570: real time    1.8629

 eigenvalue-minimisations  :  1312
 total energy-change (2. order) : 0.3880288E-03  (-0.2772331E-04)
 number of electron      16.0000000 magnetization 
 augmentation part        0.3848211 magnetization 

 Broyden mixing:
  rms(total) = 0.32405E-02    rms(broyden)= 0.32405E-02
  rms(prec ) = 0.76891E-02
  weight for this iteration     100.00

 eigenvalues of (default mixing * dielectric matrix)
  average eigenvalue GAMMA=   2.6769
  8.1622  3.5021  2.5047  2.0516  1.8846  1.3074  1.0011  1.0011

 Free energy of the ion-electron system (eV)
  ---------------------------------------------------
  alpha Z        PSCENC =        12.54445055
  Ewald energy   TEWEN  =      2820.31953845
  -Hartree energ DENC   =     -3341.54405650
  -exchange      EXHF   =         0.00000000
  -V(xc)+E(xc)   XCENC  =        55.19380210
  PAW double counting   =      1696.63151648    -1699.35564569
  entropy T*S    EENTRO =        -0.00000000
  eigenvalues    EBANDS =      -169.33113298
  atomic energy  EATOM  =       588.61769381
  Solvation  Ediel_sol  =         0.00000000
  ---------------------------------------------------
  free energy    TOTEN  =       -36.92383378 eV

  energy without entropy =      -36.92383378  energy(sigma->0) =      -36.92383378


--------------------------------------------------------------------------------------------------------




--------------------------------------- Iteration      1(  14)  ---------------------------------------


    POTLOK:  cpu time    0.0647: real time    0.0650
    SETDIJ:  cpu time    0.0359: real time    0.0360
     EDDAV:  cpu time    1.5364: real time    1.5414
       DOS:  cpu time    0.0002: real time    0.0002
    CHARGE:  cpu time    0.1752: real time    0.1757
    MIXING:  cpu time    0.0033: real time    0.0033
    --------------------------------------------
      LOOP:  cpu time    1.8156: real time    1.8215

 eigenvalue-minimisations  :  1272
 total energy-change (2. order) :-0.1288708E-02  (-0.6036247E-04)
 number of electron      16.0000000 magnetization 
 augmentation part        0.3847677 magnetization 

 Broyden mixing:
  rms(total) = 0.26436E-02    rms(broyden)= 0.26436E-02
  rms(prec ) = 0.40300E-02
  weight for this iteration     100.00

 eigenvalues of (default mixing * dielectric matrix)
  average eigenvalue GAMMA=   2.9678
  9.9789  4.6517  2.7367  2.6145  1.9668  1.5769  1.1962  0.9714  1.0173

 Free energy of the ion-electron system (eV)
  ---------------------------------------------------
  alpha Z        PSCENC =        12.54445055
  Ewald energy   TEWEN  =      2820.31953845
  -Hartree energ DENC   =     -3343.56620863
  -exchange      EXHF   =         0.00000000
  -V(xc)+E(xc)   XCENC  =        55.19256729
  PAW double counting   =      1699.39756386    -1702.12050448
  entropy T*S    EENTRO =        -0.00000000
  eigenvalues    EBANDS =      -167.31022334
  atomic energy  EATOM  =       588.61769381
  Solvation  Ediel_sol  =         0.00000000
  ---------------------------------------------------
  free energy    TOTEN  =       -36.92512249 eV

  energy without entropy =      -36.92512249  energy(sigma->0) =      -36.92512249


--------------------------------------------------------------------------------------------------------




--------------------------------------- Iteration      1(  15)  ---------------------------------------


    POTLOK:  cpu time    0.0642: real time    0.0644
    SETDIJ:  cpu time    0.0355: real time    0.0355
     EDDAV:  cpu time    1.6524: real time    1.6576
       DOS:  cpu time    0.0002: real time    0.0002
    CHARGE:  cpu time    0.1777: real time    0.1781
    MIXING:  cpu time    0.0033: real time    0.0033
    --------------------------------------------
      LOOP:  cpu time    1.9332: real time    1.9392

 eigenvalue-minimisations  :  1412
 total energy-change (2. order) :-0.6712885E-03  (-0.1063541E-04)
 number of electron      16.0000000 magnetization 
 augmentation part        0.3847174 magnetization 

 Broyden mixing:
  rms(total) = 0.26498E-02    rms(broyden)= 0.26498E-02
  rms(prec ) = 0.28833E-02
  weight for this iteration     100.00

 eigenvalues of (default mixing * dielectric matrix)
  average eigenvalue GAMMA=   3.6730
 16.5673  6.1313  3.0584  2.5347  1.9794  1.9794  1.4761  1.0395  0.9982  0.9653

 Free energy of the ion-electron system (eV)
  ---------------------------------------------------
  alpha Z        PSCENC =        12.54445055
  Ewald energy   TEWEN  =      2820.31953845
  -Hartree energ DENC   =     -3344.56464554
  -exchange      EXHF   =         0.00000000
  -V(xc)+E(xc)   XCENC  =        55.19788036
  PAW double counting   =      1692.79408269    -1695.51613472
  entropy T*S    EENTRO =        -0.00000000
  eigenvalues    EBANDS =      -166.31865937
  atomic energy  EATOM  =       588.61769381
  Solvation  Ediel_sol  =         0.00000000
  ---------------------------------------------------
  free energy    TOTEN  =       -36.92579378 eV

  energy without entropy =      -36.92579378  energy(sigma->0) =      -36.92579378


--------------------------------------------------------------------------------------------------------




--------------------------------------- Iteration      1(  16)  ---------------------------------------


    POTLOK:  cpu time    0.0649: real time    0.0651
    SETDIJ:  cpu time    0.0360: real time    0.0361
     EDDAV:  cpu time    1.5831: real time    1.5879
       DOS:  cpu time    0.0002: real time    0.0002
    CHARGE:  cpu time    0.1837: real time    0.1842
    MIXING:  cpu time    0.0036: real time    0.0036
    --------------------------------------------
      LOOP:  cpu time    1.8715: real time    1.8770

 eigenvalue-minimisations  :  1324
 total energy-change (2. order) :-0.2718964E-03  (-0.1843187E-05)
 number of electron      16.0000000 magnetization 
 augmentation part        0.3847166 magnetization 

 Broyden mixing:
  rms(total) = 0.67838E-03    rms(broyden)= 0.67838E-03
  rms(prec ) = 0.81681E-03
  weight for this iteration     100.00

 eigenvalues of (default mixing * dielectric matrix)
  average eigenvalue GAMMA=   4.2149
 22.4990  7.0854  3.6243  2.6936  2.4911  1.9916  1.6747  0.9899  0.9899  1.0387
  1.2860

 Free energy of the ion-electron system (eV)
  ---------------------------------------------------
  alpha Z        PSCENC =        12.54445055
  Ewald energy   TEWEN  =      2820.31953845
  -Hartree energ DENC   =     -3344.60606797
  -exchange      EXHF   =         0.00000000
  -V(xc)+E(xc)   XCENC  =        55.19722572
  PAW double counting   =      1695.15608195    -1697.87871767
  entropy T*S    EENTRO =        -0.00000000
  eigenvalues    EBANDS =      -166.27627050
  atomic energy  EATOM  =       588.61769381
  Solvation  Ediel_sol  =         0.00000000
  ---------------------------------------------------
  free energy    TOTEN  =       -36.92606567 eV

  energy without entropy =      -36.92606567  energy(sigma->0) =      -36.92606567


--------------------------------------------------------------------------------------------------------




--------------------------------------- Iteration      1(  17)  ---------------------------------------


    POTLOK:  cpu time    0.0654: real time    0.0656
    SETDIJ:  cpu time    0.0361: real time    0.0362
     EDDAV:  cpu time    1.5877: real time    1.5926
       DOS:  cpu time    0.0002: real time    0.0002
    CHARGE:  cpu time    0.1761: real time    0.1765
    MIXING:  cpu time    0.0036: real time    0.0036
    --------------------------------------------
      LOOP:  cpu time    1.8691: real time    1.8747

 eigenvalue-minimisations  :  1336
 total energy-change (2. order) :-0.1204882E-03  (-0.2645852E-06)
 number of electron      16.0000000 magnetization 
 augmentation part        0.3847151 magnetization 

 Broyden mixing:
  rms(total) = 0.68468E-03    rms(broyden)= 0.68468E-03
  rms(prec ) = 0.69998E-03
  weight for this iteration     100.00

 eigenvalues of (default mixing * dielectric matrix)
  average eigenvalue GAMMA=   4.1971
 23.9918  7.0916  3.8679  3.0096  2.3505  2.3080  2.0166  1.6239  1.0910  0.9879
  0.9879  1.0388

 Free energy of the ion-electron system (eV)
  ---------------------------------------------------
  alpha Z        PSCENC =        12.54445055
  Ewald energy   TEWEN  =      2820.31953845
  -Hartree energ DENC   =     -3344.67001521
  -exchange      EXHF   =         0.00000000
  -V(xc)+E(xc)   XCENC  =        55.19707089
  PAW double counting   =      1696.65117423    -1699.37402175
  entropy T*S    EENTRO =        -0.00000000
  eigenvalues    EBANDS =      -166.21207713
  atomic energy  EATOM  =       588.61769381
  Solvation  Ediel_sol  =         0.00000000
  ---------------------------------------------------
  free energy    TOTEN  =       -36.92618616 eV

  energy without entropy =      -36.92618616  energy(sigma->0) =      -36.92618616


--------------------------------------------------------------------------------------------------------




--------------------------------------- Iteration      1(  18)  ---------------------------------------


    POTLOK:  cpu time    0.0654: real time    0.0656
    SETDIJ:  cpu time    0.0351: real time    0.0352
     EDDAV:  cpu time    1.5575: real time    1.5627
       DOS:  cpu time    0.0002: real time    0.0002
    CHARGE:  cpu time    0.1796: real time    0.1801
    MIXING:  cpu time    0.0037: real time    0.0037
    --------------------------------------------
      LOOP:  cpu time    1.8416: real time    1.8474

 eigenvalue-minimisations  :  1304
 total energy-change (2. order) :-0.2183958E-04  (-0.1101518E-06)
 number of electron      16.0000000 magnetization 
 augmentation part        0.3847131 magnetization 

 Broyden mixing:
  rms(total) = 0.80615E-04    rms(broyden)= 0.80614E-04
  rms(prec ) = 0.85871E-04
  weight for this iteration     100.00

 eigenvalues of (default mixing * dielectric matrix)
  average eigenvalue GAMMA=   4.0726
 24.2573  7.2135  4.1684  3.1031  2.6605  2.4660  1.9864  1.5186  1.5186  1.0617
  0.9743  1.0075  1.0075

 Free energy of the ion-electron system (eV)
  ---------------------------------------------------
  alpha Z        PSCENC =        12.54445055
  Ewald energy   TEWEN  =      2820.31953845
  -Hartree energ DENC   =     -3344.67004846
  -exchange      EXHF   =         0.00000000
  -V(xc)+E(xc)   XCENC  =        55.19688279
  PAW double counting   =      1695.75417528    -1698.47702276
  entropy T*S    EENTRO =        -0.00000000
  eigenvalues    EBANDS =      -166.21187766
  atomic energy  EATOM  =       588.61769381
  Solvation  Ediel_sol  =         0.00000000
  ---------------------------------------------------
  free energy    TOTEN  =       -36.92620800 eV

  energy without entropy =      -36.92620800  energy(sigma->0) =      -36.92620800


--------------------------------------------------------------------------------------------------------




--------------------------------------- Iteration      1(  19)  ---------------------------------------


    POTLOK:  cpu time    0.0661: real time    0.0663
    SETDIJ:  cpu time    0.0351: real time    0.0352
     EDDAV:  cpu time    1.6066: real time    1.6115
       DOS:  cpu time    0.0002: real time    0.0002
    CHARGE:  cpu time    0.1788: real time    0.1792
    MIXING:  cpu time    0.0039: real time    0.0039
    --------------------------------------------
      LOOP:  cpu time    1.8906: real time    1.8963

 eigenvalue-minimisations  :  1324
 total energy-change (2. order) :-0.2975461E-05  (-0.6171093E-08)
 number of electron      16.0000000 magnetization 
 augmentation part        0.3847136 magnetization 

 Broyden mixing:
  rms(total) = 0.10211E-03    rms(broyden)= 0.10211E-03
  rms(prec ) = 0.10304E-03
  weight for this iteration     100.00

 eigenvalues of (default mixing * dielectric matrix)
  average eigenvalue GAMMA=   3.9549
 24.3102  7.2108  4.3916  3.1591  2.6452  2.4203  2.4203  1.9923  1.6166  0.9839
  1.0064  1.0064  1.0590  1.1462

 Free energy of the ion-electron system (eV)
  ---------------------------------------------------
  alpha Z        PSCENC =        12.54445055
  Ewald energy   TEWEN  =      2820.31953845
  -Hartree energ DENC   =     -3344.66612663
  -exchange      EXHF   =         0.00000000
  -V(xc)+E(xc)   XCENC  =        55.19683177
  PAW double counting   =      1695.73295433    -1698.45570355
  entropy T*S    EENTRO =        -0.00000000
  eigenvalues    EBANDS =      -166.21584971
  atomic energy  EATOM  =       588.61769381
  Solvation  Ediel_sol  =         0.00000000
  ---------------------------------------------------
  free energy    TOTEN  =       -36.92621098 eV

  energy without entropy =      -36.92621098  energy(sigma->0) =      -36.92621098


--------------------------------------------------------------------------------------------------------




--------------------------------------- Iteration      1(  20)  ---------------------------------------


    POTLOK:  cpu time    0.0677: real time    0.0679
    SETDIJ:  cpu time    0.0373: real time    0.0373
     EDDAV:  cpu time    1.4644: real time    1.4689
       DOS:  cpu time    0.0002: real time    0.0002
    CHARGE:  cpu time    0.1795: real time    0.1800
    MIXING:  cpu time    0.0040: real time    0.0040
    --------------------------------------------
      LOOP:  cpu time    1.7531: real time    1.7583

 eigenvalue-minimisations  :  1148
 total energy-change (2. order) :-0.2556612E-06  (-0.1353835E-08)
 number of electron      16.0000000 magnetization 
 augmentation part        0.3847135 magnetization 

 Broyden mixing:
  rms(total) = 0.11283E-04    rms(broyden)= 0.11278E-04
  rms(prec ) = 0.11538E-04
  weight for this iteration     100.00

 eigenvalues of (default mixing * dielectric matrix)
  average eigenvalue GAMMA=   3.7603
 24.3462  7.2020  4.4251  3.1465  2.6070  2.6070  2.4033  1.9918  1.6118  1.1982
  1.0736  1.0016  1.0016  0.9846  0.8035

 Free energy of the ion-electron system (eV)
  ---------------------------------------------------
  alpha Z        PSCENC =        12.54445055
  Ewald energy   TEWEN  =      2820.31953845
  -Hartree energ DENC   =     -3344.66912686
  -exchange      EXHF   =         0.00000000
  -V(xc)+E(xc)   XCENC  =        55.19685534
  PAW double counting   =      1695.86413624    -1698.58689669
  entropy T*S    EENTRO =        -0.00000000
  eigenvalues    EBANDS =      -166.21286207
  atomic energy  EATOM  =       588.61769381
  Solvation  Ediel_sol  =         0.00000000
  ---------------------------------------------------
  free energy    TOTEN  =       -36.92621123 eV

  energy without entropy =      -36.92621123  energy(sigma->0) =      -36.92621123


--------------------------------------------------------------------------------------------------------




--------------------------------------- Iteration      1(  21)  ---------------------------------------


    POTLOK:  cpu time    0.0687: real time    0.0689
    SETDIJ:  cpu time    0.0381: real time    0.0382
     EDDAV:  cpu time    1.2809: real time    1.2850
       DOS:  cpu time    0.0002: real time    0.0002
    CHARGE:  cpu time    0.1828: real time    0.1832
    MIXING:  cpu time    0.0043: real time    0.0043
    --------------------------------------------
      LOOP:  cpu time    1.5749: real time    1.5798

 eigenvalue-minimisations  :   924
 total energy-change (2. order) :-0.3195578E-07  (-0.1067594E-09)
 number of electron      16.0000000 magnetization 
 augmentation part        0.3847135 magnetization 

 Broyden mixing:
  rms(total) = 0.37350E-05    rms(broyden)= 0.37223E-05
  rms(prec ) = 0.38892E-05
  weight for this iteration     100.00

 eigenvalues of (default mixing * dielectric matrix)
  average eigenvalue GAMMA=   3.6761
 24.3461  7.2073  4.4042  3.1800  2.7727  2.5519  2.3038  2.3038  1.9916  1.6189
  1.1021  1.0129  1.0129  0.9823  0.9892  1.0384

 Free energy of the ion-electron system (eV)
  ---------------------------------------------------
  alpha Z        PSCENC =        12.54445055
  Ewald energy   TEWEN  =      2820.31953845
  -Hartree energ DENC   =     -3344.66844422
  -exchange      EXHF   =         0.00000000
  -V(xc)+E(xc)   XCENC  =        55.19685322
  PAW double counting   =      1695.84484461    -1698.56761006
  entropy T*S    EENTRO =        -0.00000000
  eigenvalues    EBANDS =      -166.21353762
  atomic energy  EATOM  =       588.61769381
  Solvation  Ediel_sol  =         0.00000000
  ---------------------------------------------------
  free energy    TOTEN  =       -36.92621127 eV

  energy without entropy =      -36.92621127  energy(sigma->0) =      -36.92621127


--------------------------------------------------------------------------------------------------------




--------------------------------------- Iteration      1(  22)  ---------------------------------------


    POTLOK:  cpu time    0.0701: real time    0.0704
    SETDIJ:  cpu time    0.0380: real time    0.0381
     EDDAV:  cpu time    1.2234: real time    1.2273
       DOS:  cpu time    0.0002: real time    0.0002
    --------------------------------------------
      LOOP:  cpu time    1.3317: real time    1.3360

 eigenvalue-minimisations  :   860
 total energy-change (2. order) :-0.6693881E-08  (-0.4090779E-10)
 number of electron      16.0000000 magnetization 
 augmentation part        0.3847135 magnetization 

 Free energy of the ion-electron system (eV)
  ---------------------------------------------------
  alpha Z        PSCENC =        12.54445055
  Ewald energy   TEWEN  =      2820.31953845
  -Hartree energ DENC   =     -3344.66815378
  -exchange      EXHF   =         0.00000000
  -V(xc)+E(xc)   XCENC  =        55.19685066
  PAW double counting   =      1695.83994350    -1698.56270783
  entropy T*S    EENTRO =        -0.00000000
  eigenvalues    EBANDS =      -166.21382663
  atomic energy  EATOM  =       588.61769381
  Solvation  Ediel_sol  =         0.00000000
  ---------------------------------------------------
  free energy    TOTEN  =       -36.92621127 eV

  energy without entropy =      -36.92621127  energy(sigma->0) =      -36.92621127


--------------------------------------------------------------------------------------------------------




 average (electrostatic) potential at core
  the test charge radii are     0.6991
  (the norm of the test charge is              1.0000)
       1 -56.6483       2 -56.6483       3 -56.6483       4 -56.6483
 
 
 
 E-fermi :  -1.2118     XC(G=0):  -3.9676     alpha+bet : -3.8262


 k-point     1 :       0.0000    0.0000    0.0000
  band No.  band energies     occupation 
      1     -20.8177      2.00000
      2     -20.7757      2.00000
      3      -9.1023      2.00000
      4      -8.6790      2.00000
      5      -4.2509      2.00000
      6      -4.2508      2.00000
      7      -4.2474      2.00000
      8      -4.2473      2.00000
      9       2.0512      0.00000
     10       2.5199      0.00000
     11       3.2535      0.00000
     12       4.3248      0.00000

 k-point     2 :       0.0476    0.0000    0.0000
  band No.  band energies     occupation 
      1     -20.7638      2.00000
      2     -20.7219      2.00000
      3      -9.0375      2.00000
      4      -8.6151      2.00000
      5      -4.4719      2.00000
      6      -4.4680      2.00000
      7      -4.3677      2.00000
      8      -4.3642      2.00000
      9       2.1234      0.00000
     10       2.5932      0.00000
     11       3.3273      0.00000
     12       4.3951      0.00000

 k-point     3 :       0.0952    0.0000    0.0000
  band No.  band energies     occupation 
      1     -20.6023      2.00000
      2     -20.5608      2.00000
      3      -8.8433      2.00000
      4      -8.4239      2.00000
      5      -5.0924      2.00000
      6      -5.0873      2.00000
      7      -4.6877      2.00000
      8      -4.6838      2.00000
      9       2.3400      0.00000
     10       2.8130      0.00000
     11       3.5486      0.00000
     12       4.6058      0.00000

 k-point     4 :       0.1429    0.0000    0.0000
  band No.  band energies     occupation 
      1     -20.3336      2.00000
      2     -20.2929      2.00000
      3      -8.5214      2.00000
      4      -8.1072      2.00000
      5      -6.0128      2.00000
      6      -6.0058      2.00000
      7      -5.1395      2.00000
      8      -5.1353      2.00000
      9       2.7009      0.00000
     10       3.1790      0.00000
     11       3.9172      0.00000
     12       4.9559      0.00000

 k-point     5 :       0.1905    0.0000    0.0000
  band No.  band energies     occupation 
      1     -19.9589      2.00000
      2     -19.9193      2.00000
      3      -8.0749      2.00000
      4      -7.6683      2.00000
      5      -7.1265      2.00000
      6      -7.1173      2.00000
      7      -5.6484      2.00000
      8      -5.6438      2.00000
      9       3.2056      0.00000
     10       3.6901      0.00000
     11       4.4325      0.00000
     12       5.4400      0.00000

 k-point     6 :       0.2381    0.0000    0.0000
  band No.  band energies     occupation 
      1     -19.4796      2.00000
      2     -19.4414      2.00000
      3      -8.3475      2.00000
      4      -8.3357      2.00000
      5      -7.5090      2.00000
      6      -7.1127      2.00000
      7      -6.1555      2.00000
      8      -6.1507      2.00000
      9       3.8530      0.00000
     10       4.3428      0.00000
     11       5.0904      0.00000
     12       5.9672      0.00000

 k-point     7 :       0.2857    0.0000    0.0000
  band No.  band energies     occupation 
      1     -18.8980      2.00000
      2     -18.8614      2.00000
      3      -9.6127      2.00000
      4      -9.5984      2.00000
      5      -6.8325      2.00000
      6      -6.6200      2.00000
      7      -6.6149      2.00000
      8      -6.4497      2.00000
      9       4.6403      0.00000
     10       4.9266      0.00000
     11       5.0047      0.00000
     12       5.3250      0.00000

 k-point     8 :       0.3333    0.0000    0.0000
  band No.  band energies     occupation 
      1     -18.2176      2.00000
      2     -18.1829      2.00000
      3     -10.8777      2.00000
      4     -10.8608      2.00000
      5      -7.0150      2.00000
      6      -7.0097      2.00000
      7      -6.0616      2.00000
      8      -5.6965      2.00000
      9       3.5831      0.00000
     10       3.8436      0.00000
     11       5.5584      0.00000
     12       6.1032      0.00000

 k-point     9 :       0.3810    0.0000    0.0000
  band No.  band energies     occupation 
      1     -17.4446      2.00000
      2     -17.4118      2.00000
      3     -12.1088      2.00000
      4     -12.0894      2.00000
      5      -7.3233      2.00000
      6      -7.3178      2.00000
      7      -5.2295      2.00000
      8      -4.8874      2.00000
      9       2.2789      0.00000
     10       2.5832      0.00000
     11       6.3114      0.00000
     12       6.4207      0.00000

 k-point    10 :       0.4286    0.0000    0.0000
  band No.  band energies     occupation 
      1     -16.5940      2.00000
      2     -16.5634      2.00000
      3     -13.2734      2.00000
      4     -13.2515      2.00000
      5      -7.5339      2.00000
      6      -7.5284      2.00000
      7      -4.4155      2.00000
      8      -4.1033      2.00000
      9       1.1330      0.00000
     10       1.4805      0.00000
     11       6.2587      0.00000
     12       6.3217      0.00000

 k-point    11 :       0.4762    0.0000    0.0000
  band No.  band energies     occupation 
      1     -15.7484      2.00000
      2     -15.7194      2.00000
      3     -14.2785      2.00000
      4     -14.2548      2.00000
      5      -7.6407      2.00000
      6      -7.6351      2.00000
      7      -3.8277      2.00000
      8      -3.5460      2.00000
      9       0.3745      0.00000
     10       0.7593      0.00000
     11       6.2087      0.00000
     12       6.2684      0.00000

 k-point    12 :       0.0952    0.0476    0.0000
  band No.  band energies     occupation 
      1     -20.6561      2.00000
      2     -20.6145      2.00000
      3      -8.9079      2.00000
      4      -8.4875      2.00000
      5      -4.8773      2.00000
      6      -4.8727      2.00000
      7      -4.6017      2.00000
      8      -4.5979      2.00000
      9       2.2678      0.00000
     10       2.7398      0.00000
     11       3.4748      0.00000
     12       4.5357      0.00000

 k-point    13 :       0.1429    0.0476    0.0000
  band No.  band energies     occupation 
      1     -20.4410      2.00000
      2     -20.4000      2.00000
      3      -8.6498      2.00000
      4      -8.2336      2.00000
      5      -5.6149      2.00000
      6      -5.6088      2.00000
      7      -5.0210      2.00000
      8      -5.0167      2.00000
      9       2.5566      0.00000
     10       3.0327      0.00000
     11       3.7698      0.00000
     12       4.8164      0.00000

 k-point    14 :       0.1905    0.0476    0.0000
  band No.  band energies     occupation 
      1     -20.1193      2.00000
      2     -20.0793      2.00000
      3      -8.2656      2.00000
      4      -7.8557      2.00000
      5      -6.6020      2.00000
      6      -6.5939      2.00000
      7      -5.5322      2.00000
      8      -5.5274      2.00000
      9       2.9897      0.00000
     10       3.4715      0.00000
     11       4.2120      0.00000
     12       5.2350      0.00000

 k-point    15 :       0.2381    0.0476    0.0000
  band No.  band energies     occupation 
      1     -19.6923      2.00000
      2     -19.6535      2.00000
      3      -7.7597      2.00000
      4      -7.7473      2.00000
      5      -7.7376      2.00000
      6      -7.3580      2.00000
      7      -6.0622      2.00000
      8      -6.0570      2.00000
      9       3.5661      0.00000
     10       4.0544      0.00000
     11       4.8000      0.00000
     12       5.7779      0.00000

 k-point    16 :       0.2857    0.0476    0.0000
  band No.  band energies     occupation 
      1     -19.1618      2.00000
      2     -19.1245      2.00000
      3      -8.9772      2.00000
      4      -8.9643      2.00000
      5      -7.1370      2.00000
      6      -6.7478      2.00000
      7      -6.5623      2.00000
      8      -6.5567      2.00000
      9       4.2842      0.00000
     10       4.7701      0.00000
     11       5.4602      0.00000
     12       5.6194      0.00000

 k-point    17 :       0.3333    0.0476    0.0000
  band No.  band energies     occupation 
      1     -18.5307      2.00000
      2     -18.4952      2.00000
      3     -10.2337      2.00000
      4     -10.2183      2.00000
      5      -7.0007      2.00000
      6      -6.9949      2.00000
      7      -6.4112      2.00000
      8      -6.0374      2.00000
      9       4.2226      0.00000
     10       4.4516      0.00000
     11       5.1403      0.00000
     12       5.6815      0.00000

[...]
      7      -6.1711      2.00000
      8      -6.1649      2.00000
      9       3.4229      0.00000
     10       3.9098      0.00000
     11       4.6541      0.00000
     12       5.6530      0.00000

 k-point    24 :       0.2857    0.0952    0.0000
  band No.  band energies     occupation 
      1     -19.3207      2.00000
      2     -19.2829      2.00000
      3      -8.4025      2.00000
      4      -8.3910      2.00000
      5      -7.3210      2.00000
      6      -6.9281      2.00000
      7      -6.7484      2.00000
      8      -6.7416      2.00000
      9       4.0707      0.00000
     10       4.5632      0.00000
     11       5.3130      0.00000
     12       5.9818      0.00000

 k-point    25 :       0.3333    0.0952    0.0000
  band No.  band energies     occupation 
      1     -18.7407      2.00000
      2     -18.7046      2.00000
      3      -9.5915      2.00000
      4      -9.5775      2.00000
      5      -7.2544      2.00000
      6      -7.2472      2.00000
      7      -6.6470      2.00000
      8      -6.2677      2.00000
      9       4.7502      0.00000
     10       4.8591      0.00000
     11       4.9321      0.00000
     12       5.3971      0.00000

 k-point    26 :       0.3810    0.0952    0.0000
  band No.  band energies     occupation 
      1     -18.0625      2.00000
      2     -18.0283      2.00000
      3     -10.8086      2.00000
      4     -10.7921      2.00000
      5      -7.6727      2.00000
      6      -7.6652      2.00000
      7      -5.8785      2.00000
      8      -5.5167      2.00000
      9       3.4614      0.00000
     10       3.7002      0.00000
     11       5.7838      0.00000
     12       6.3153      0.00000

 k-point    27 :       0.4286    0.0952    0.0000
  band No.  band energies     occupation 
      1     -17.2926      2.00000
      2     -17.2604      2.00000
      3     -12.0092      2.00000
      4     -11.9901      2.00000
      5      -7.9936      2.00000
      6      -7.9859      2.00000
      7      -5.0472      2.00000
      8      -4.7081      2.00000
      9       2.2041      0.00000
     10       2.4844      0.00000
     11       6.8200      0.00000
     12       7.3040      0.00000

 k-point    28 :       0.4762    0.0952    0.0000
  band No.  band energies     occupation 
      1     -16.4466      2.00000
      2     -16.4164      2.00000
      3     -13.1538      2.00000
      4     -13.1322      2.00000
      5      -8.2108      2.00000
      6      -8.2029      2.00000
      7      -4.2296      2.00000
      8      -3.9196      2.00000
      9       1.0858      0.00000
     10       1.4084      0.00000
     11       7.1769      0.00000
     12       7.2563      0.00000

 k-point    29 :      -0.4762    0.0952    0.0000
  band No.  band energies     occupation 
      1     -15.6075      2.00000
      2     -15.5789      2.00000
      3     -14.1454      2.00000
      4     -14.1220      2.00000
      5      -8.3204      2.00000
      6      -8.3123      2.00000
      7      -3.6325      2.00000
      8      -3.3525      2.00000
      9       0.3334      0.00000
     10       0.6927      0.00000
     11       7.1328      0.00000
     12       7.2038      0.00000

 k-point    30 :       0.2857    0.1429    0.0000
  band No.  band energies     occupation 
      1     -19.3737      2.00000
      2     -19.3358      2.00000
      3      -8.1173      2.00000
      4      -8.1067      2.00000
      5      -7.3826      2.00000
      6      -6.9885      2.00000
      7      -6.9108      2.00000
      8      -6.9030      2.00000
      9       3.9995      0.00000
     10       4.4928      0.00000
     11       5.2426      0.00000
     12       6.2068      0.00000

 k-point    31 :       0.3333    0.1429    0.0000
  band No.  band energies     occupation 
      1     -18.8460      2.00000
      2     -18.8096      2.00000
      3      -9.0848      2.00000
      4      -9.0722      2.00000
      5      -7.5881      2.00000
      6      -7.5793      2.00000
      7      -6.7658      2.00000
      8      -6.3837      2.00000
      9       4.7178      0.00000
     10       5.0661      0.00000
     11       5.1864      0.00000
     12       5.2727      0.00000

 k-point    32 :       0.3810    0.1429    0.0000
  band No.  band energies     occupation 
      1     -18.2188      2.00000
      2     -18.1841      2.00000
      3     -10.1777      2.00000
      4     -10.1627      2.00000
      5      -8.1313      2.00000
      6      -8.1219      2.00000
      7      -6.0456      2.00000
      8      -5.6789      2.00000
      9       3.8763      0.00000
     10       4.0781      0.00000
     11       5.5751      0.00000
     12       6.0888      0.00000

 k-point    33 :       0.4286    0.1429    0.0000
  band No.  band energies     occupation 
      1     -17.4971      2.00000
      2     -17.4643      2.00000
      3     -11.3244      2.00000
      4     -11.3069      2.00000
      5      -8.5426      2.00000
      6      -8.5328      2.00000
      7      -5.2428      2.00000
      8      -4.8958      2.00000
      9       2.6682      0.00000
     10       2.9052      0.00000
     11       6.5660      0.00000
     12       7.0911      0.00000

 k-point    34 :       0.4762    0.1429    0.0000
  band No.  band energies     occupation 
      1     -16.6907      2.00000
      2     -16.6600      2.00000
      3     -12.4630      2.00000
      4     -12.4430      2.00000
      5      -8.8325      2.00000
      6      -8.8224      2.00000
      7      -4.4027      2.00000
      8      -4.0809      2.00000
      9       1.5153      0.00000
     10       1.7906      0.00000
     11       7.6712      0.00000
     12       8.1983      0.00000

 k-point    35 :      -0.4762    0.1429    0.0000
  band No.  band energies     occupation 
      1     -15.8315      2.00000
      2     -15.8027      2.00000
      3     -13.5316      2.00000
      4     -13.5094      2.00000
      5      -9.0056      2.00000
      6      -8.9953      2.00000
      7      -3.6462      2.00000
      8      -3.3548      2.00000
      9       0.5612      0.00000
     10       0.8757      0.00000
     11       8.1616      0.00000
     12       8.2610      0.00000

 k-point    36 :      -0.4286    0.1429    0.0000
  band No.  band energies     occupation 
      1     -15.2235      2.00000
      2     -15.1956      2.00000
      3     -14.2110      2.00000
      4     -14.1877      2.00000
      5      -9.0632      2.00000
      6      -9.0528      2.00000
      7      -3.2936      2.00000
      8      -3.0216      2.00000
      9       0.1411      0.00000
     10       0.4779      0.00000
     11       8.1425      0.00000
     12       8.2345      0.00000

 k-point    37 :       0.3810    0.1905    0.0000
  band No.  band energies     occupation 
      1     -18.2710      2.00000
      2     -18.2362      2.00000
      3      -9.8477      2.00000
      4      -9.8337      2.00000
      5      -8.4111      2.00000
      6      -8.4006      2.00000
      7      -6.1018      2.00000
      8      -5.7334      2.00000
      9       4.0331      0.00000
     10       4.2186      0.00000
     11       5.5048      0.00000
     12       6.0104      0.00000

 k-point    38 :       0.4286    0.1905    0.0000
  band No.  band energies     occupation 
      1     -17.5999      2.00000
      2     -17.5669      2.00000
      3     -10.7586      2.00000
      4     -10.7425      2.00000
      5      -9.0597      2.00000
      6      -9.0481      2.00000
      7      -5.3428      2.00000
      8      -4.9919      2.00000
      9       2.9457      0.00000
     10       3.1517      0.00000
     11       6.4275      0.00000
     12       6.9370      0.00000

 k-point    39 :       0.4762    0.1905    0.0000
  band No.  band energies     occupation 
      1     -16.8401      2.00000
      2     -16.8090      2.00000
      3     -11.7855      2.00000
      4     -11.7672      2.00000
      5      -9.4998      2.00000
      6      -9.4876      2.00000
      7      -4.5163      2.00000
      8      -4.1870      2.00000
      9       1.8501      0.00000
     10       2.0831      0.00000
     11       7.4781      0.00000
     12       7.9866      0.00000

 k-point    40 :      -0.4762    0.1905    0.0000
  band No.  band energies     occupation 
      1     -16.0082      2.00000
      2     -15.9792      2.00000
      3     -12.8350      2.00000
      4     -12.8144      2.00000
      5      -9.7713      2.00000
      6      -9.7587      2.00000
      7      -3.6874      2.00000
      8      -3.3849      2.00000
      9       0.8288      0.00000
     10       1.0942      0.00000
     11       8.6346      0.00000
     12       9.1266      0.00000

 k-point    41 :      -0.4286    0.1905    0.0000
  band No.  band energies     occupation 
      1     -15.1874      2.00000
      2     -15.1601      2.00000
      3     -13.7748      2.00000
      4     -13.7522      2.00000
      5      -9.9019      2.00000
      6      -9.8891      2.00000
      7      -3.0532      2.00000
      8      -2.7785      2.00000
      9       0.0940      0.00000
     10       0.3907      0.00000
     11       9.3473      0.00000
     12       9.5024      0.00000

 k-point    42 :       0.4762    0.2381    0.0000
  band No.  band energies     occupation 
      1     -16.8902      2.00000
      2     -16.8591      2.00000
      3     -11.4142      2.00000
      4     -11.3968      2.00000
      5      -9.8731      2.00000
      6      -9.8597      2.00000
      7      -4.5557      2.00000
      8      -4.2239      2.00000
      9       1.9787      0.00000
     10       2.1939      0.00000
     11       7.4091      0.00000
     12       7.9062      0.00000

 k-point    43 :      -0.4762    0.2381    0.0000
  band No.  band energies     occupation 
      1     -16.1011      2.00000
      2     -16.0720      2.00000
      3     -12.2294      2.00000
      4     -12.2101      2.00000
      5     -10.4214      2.00000
      6     -10.4070      2.00000
      7      -3.7181      2.00000
      8      -3.4091      2.00000
      9       1.0087      0.00000
     10       1.2406      0.00000
     11       8.5021      0.00000
     12       8.9541      0.00000

 k-point    44 :      -0.4286    0.2381    0.0000
  band No.  band energies     occupation 
      1     -15.2651      2.00000
      2     -15.2380      2.00000
      3     -13.1364      2.00000
      4     -13.1150      2.00000
      5     -10.7068      2.00000
      6     -10.6919      2.00000
      7      -2.9229      2.00000
      8      -2.6400      2.00000
      9       0.1310      0.00000
     10       0.3864      0.00000
     11       9.2486      0.00000
     12       9.7064      0.00000

 k-point    45 :      -0.3810    0.2381    0.0000
  band No.  band energies     occupation 
      1     -14.6713      2.00000
      2     -14.6453      2.00000
      3     -13.7635      2.00000
      4     -13.7410      2.00000
      5     -10.7941      2.00000
      6     -10.7790      2.00000
      7      -2.5105      2.00000
      8      -2.2454      2.00000
      9      -0.3096      0.00000
     10      -0.0370      0.00000
     11       9.2459      0.00000
     12      10.5455      0.00000

 k-point    46 :      -0.4286    0.2857    0.0000
  band No.  band energies     occupation 
      1     -15.2998      2.00000
      2     -15.2726      2.00000
      3     -12.7566      2.00000
      4     -12.7360      2.00000
      5     -11.1373      2.00000
      6     -11.1213      2.00000
      7      -2.8837      2.00000
      8      -2.5967      2.00000
      9       0.1588      0.00000
     10       0.3964      0.00000
     11       9.0710      0.00000
     12       9.6413      0.00000

 k-point    47 :      -0.3810    0.2857    0.0000
  band No.  band energies     occupation 
      1     -14.5073      2.00000
      2     -14.4820      2.00000
      3     -13.4214      2.00000
      4     -13.3992      2.00000
      5     -11.4925      2.00000
      6     -11.4759      2.00000
      7      -2.1352      2.00000
      8      -1.8697      2.00000
      9      -0.5935      0.00000
     10      -0.3430      0.00000
     11       8.9272      0.00000
     12      10.1202      0.00000

 k-point    48 :      -0.3333    0.3333    0.0000
  band No.  band energies     occupation 
      1     -13.8468      2.00000
      2     -13.8468      2.00000
      3     -13.8232      2.00000
      4     -13.8232      2.00000
      5     -11.8345      2.00000
      6     -11.8172      2.00000
      7      -1.3517      2.00000
      8      -1.3516      2.00000
      9      -1.0979      0.00000
     10      -1.0978      0.00000
     11       8.7916      0.00000
     12      10.0683      0.00000


--------------------------------------------------------------------------------------------------------


 soft charge-density along one line, spin component           1
         0         1         2         3         4         5         6         7         8         9
 total charge-density along one line
 
 pseudopotential strength for first ion, spin component:           1
 10.124  13.461  -0.000  -0.000   0.000   0.000  -0.000  -0.000
 13.461  17.898  -0.000  -0.000   0.000   0.000  -0.000  -0.000
 -0.000  -0.000  -4.266  -0.000   0.000   8.344   0.000  -0.000
 -0.000  -0.000  -0.000  -4.258  -0.000   0.000   8.334   0.000
  0.000   0.000   0.000  -0.000  -4.266  -0.000   0.000   8.344
  0.000   0.000   8.344   0.000  -0.000 -18.452  -0.000   0.000
 -0.000  -0.000   0.000   8.334   0.000  -0.000 -18.443  -0.000
 -0.000  -0.000  -0.000   0.000   8.344   0.000  -0.000 -18.452
 total augmentation occupancy for first ion, spin component:           1
  8.117  -3.602   0.000   0.000   0.000   0.000   0.000  -0.000
 -3.602   1.656  -0.000  -0.000  -0.000  -0.000  -0.000   0.000
 -0.000  -0.000   1.837   0.000   0.000   0.173   0.000   0.000
  0.000  -0.000  -0.000   1.199  -0.000   0.000   0.073   0.000
  0.000   0.000   0.000  -0.000   1.837   0.000   0.000   0.173
 -0.000   0.000   0.173  -0.000   0.000   0.018  -0.000   0.000
  0.000  -0.000  -0.000   0.073   0.000   0.000   0.005   0.000
  0.000   0.000   0.000   0.000   0.173   0.000   0.000   0.018


------------------------ aborting loop because EDIFF is reached ----------------------------------------


    CHARGE:  cpu time    0.1815: real time    0.1820
    FORLOC:  cpu time    0.0049: real time    0.0050
    FORNL :  cpu time    0.3392: real time    0.3401
    STRESS:  cpu time    1.3442: real time    1.3475
    FORCOR:  cpu time    0.0709: real time    0.0710
    FORHAR:  cpu time    0.0190: real time    0.0190
    MIXING:  cpu time    0.0043: real time    0.0043
    OFIELD:  cpu time    0.0000: real time    0.0000

  FORCE on cell =-STRESS in cart. coord.  units (eV):
  Direction    XX          YY          ZZ          XY          YZ          ZX
  --------------------------------------------------------------------------------------
  Alpha Z    12.54445    12.54445    12.54445
  Ewald    3359.44847  3359.44724 -3898.57659     0.00000    -0.00000    -0.00000
  Hartree  3322.11353  3322.11352 -3299.55886     0.00000    -0.00000    -0.00000
  E(xc)     -59.53119   -59.53119   -61.74176    -0.00000    -0.00000     0.00000
  Local   -6858.87691 -6858.87631  6986.43624    -0.00000     0.00000     0.00000
  n-local   -14.82424   -13.74931   -13.01327     0.71059    -0.00000    -0.00000
  augment    -1.57123    -1.57124    -1.44420     0.00000     0.00000    -0.00000
  Kinetic   245.07609   236.87460   275.41028    -6.59944     0.00000     0.00000
  Fock        0.00000     0.00000     0.00000     0.00000     0.00000     0.00000
  -------------------------------------------------------------------------------------
  Total       0.81536     0.81536     0.05631     0.00000     0.00000    -0.00000
  in kB      12.46820    12.46820     0.86104     0.00000     0.00000    -0.00000
  external pressure =        8.60 kB  Pullay stress =        0.00 kB


 VOLUME and BASIS-vectors are now :
 -----------------------------------------------------------------------------
  energy-cutoff  :      800.00
  volume of cell :      104.78
      direct lattice vectors                 reciprocal lattice vectors
     2.130000000 -1.229756000  0.000000000     0.234741784 -0.406584721  0.000000000
     2.130000000  1.229756000  0.000000000     0.234741784  0.406584721  0.000000000
     0.000000000  0.000000000 20.000000000     0.000000000  0.000000000  0.050000000

  length of vectors
     2.459512110  2.459512110 20.000000000     0.469483589  0.469483589  0.050000000


 FORCES acting on ions
    electron-ion (+dipol)            ewald-force                    non-local-force                 convergence-correction
 -----------------------------------------------------------------------------------------------
   -.878E-05 0.448E-12 0.337E+03   -.241E-03 0.644E-14 -.337E+03   -.293E-16 0.209E-16 -.945E-02   -.118E-10 0.152E-14 -.162E-04
   0.262E-03 -.733E-12 0.337E+03   0.241E-03 -.446E-14 -.337E+03   0.367E-16 -.314E-16 -.945E-02   0.198E-10 -.277E-14 -.162E-04
   -.880E-05 -.531E-12 -.337E+03   -.241E-03 0.673E-14 0.337E+03   -.213E-16 0.643E-16 0.945E-02   -.123E-10 0.309E-14 0.162E-04
   0.262E-03 0.690E-12 -.337E+03   0.241E-03 -.416E-14 0.337E+03   0.753E-17 -.174E-16 0.945E-02   0.194E-10 -.162E-14 0.162E-04
 -----------------------------------------------------------------------------------------------
   0.506E-03 -.127E-12 -.130E-03   0.858E-14 0.456E-14 0.000E+00   -.638E-17 0.364E-16 0.173E-17   0.150E-10 0.218E-15 -.179E-09
 
 
 POSITION                                       TOTAL-FORCE (eV/Angst)
 -----------------------------------------------------------------------------------
      0.00000      0.00000      0.00000         0.000000     -0.000000     -0.012903
      1.42000      0.00000      0.00000        -0.000000     -0.000000     -0.012903
      0.00000      0.00000      3.90000        -0.000000     -0.000000      0.012903
      1.42000      0.00000      3.90000        -0.000000      0.000000      0.012903
 -----------------------------------------------------------------------------------
    total drift:                                0.000506     -0.000000     -0.000130


--------------------------------------------------------------------------------------------------------



  FREE ENERGIE OF THE ION-ELECTRON SYSTEM (eV)
  ---------------------------------------------------
  free  energy   TOTEN  =       -36.92621127 eV

  energy  without entropy=      -36.92621127  energy(sigma->0) =      -36.92621127
 


--------------------------------------------------------------------------------------------------------


    POTLOK:  cpu time    0.1026: real time    0.1029


--------------------------------------------------------------------------------------------------------


     LOOP+:  cpu time   42.8549: real time   43.1576
    4ORBIT:  cpu time    0.0000: real time    0.0000

 total amount of memory used by VASP MPI-rank0   107376. kBytes
=======================================================================

   base      :      30000. kBytes
   nonl-proj :      16997. kBytes
   fftplans  :      32720. kBytes
   grid      :      15086. kBytes
   one-center:         12. kBytes
   wavefun   :      12561. kBytes
 
  
  
 General timing and accounting informations for this job:
 ========================================================
  
                  Total CPU time used (sec):       44.851
                            User time (sec):       44.019
                          System time (sec):        0.832
                         Elapsed time (sec):       45.550
  
                   Maximum memory used (kb):      170260.
                   Average memory used (kb):           0.
  
                          Minor page faults:       188502
                          Major page faults:            0
                 Voluntary context switches:         3618
