 vasp.5.4.4.18Apr17-6-g9f103f2a35 (build May 31 2018 21:15:54) complex          
  
 executed on          c7_intel_O1 date 2020.07.23  19:19:18
 running on    4 total cores
 distrk:  each k-point on    4 cores,    1 groups
 distr:  one band on NCORES_PER_BAND=   1 cores,    4 groups


--------------------------------------------------------------------------------------------------------


 INCAR:
 POTCAR:    PAW_PBE C 08Apr2002                   
 POTCAR:    PAW_PBE C 08Apr2002                   
   VRHFIN =C: s2p2                                                              
   LEXCH  = PE                                                                  
   EATOM  =   147.1560 eV,   10.8157 Ry                                         
                                                                                
   TITEL  = PAW_PBE C 08Apr2002                                                 
   LULTRA =        F    use ultrasoft PP ?                                      
   IUNSCR =        1    unscreen: 0-lin 1-nonlin 2-no                           
   RPACOR =    1.200    partial core radius                                     
   POMASS =   12.011; ZVAL   =    4.000    mass and valenz                      
   RCORE  =    1.500    outmost cutoff radius                                   
   RWIGS  =    1.630; RWIGS  =    0.863    wigner-seitz radius (au A)           
   ENMAX  =  400.000; ENMIN  =  300.000 eV                                      
   ICORE  =        2    local potential                                         
   LCOR   =        T    correct aug charges                                     
   LPAW   =        T    paw PP                                                  
   EAUG   =  644.873                                                            
   DEXC   =    0.000                                                            
   RMAX   =    1.529    core radius for proj-oper                               
   RAUG   =    1.300    factor for augmentation sphere                          
   RDEP   =    1.501    radius for radial grids                                 
   RDEPT  =    1.300    core radius for aug-charge                              
                                                                                
   Atomic configuration                                                         
    4 entries                                                                   
     n  l   j            E        occ.                                          
     1  0  0.50      -273.3789   2.0000                                         
     2  0  0.50       -13.7508   2.0000                                         
     2  1  0.50        -5.2854   2.0000                                         
     3  2  1.50        -5.4423   0.0000                                         
   Description                                                                  
     l       E           TYP  RCUT    TYP  RCUT                                 
     0    -13.7508458     23  1.200                                             
     0     -8.2022199     23  1.200                                             
     1     -5.2854383     23  1.500                                             
     1     34.0145650     23  1.500                                             
     2     -5.4423304      7  1.500                                             
  local pseudopotential read in
  partial core-charges read in
  partial kinetic energy density read in
  atomic valenz-charges read in
  non local Contribution for L=           0  read in
    real space projection operators read in
  non local Contribution for L=           0  read in
    real space projection operators read in
  non local Contribution for L=           1  read in
    real space projection operators read in
  non local Contribution for L=           1  read in
    real space projection operators read in
    PAW grid and wavefunctions read in
 
   number of l-projection  operators is LMAX  =           4
   number of lm-projection operators is LMMAX =           8
 
  PAW_PBE C 08Apr2002                   :
 energy of atom  1       EATOM= -147.1560
 kinetic energy error for atom=    0.0016 (will be added to EATOM!!)
 
 
 POSCAR: C2_bilayer                              
  positions in direct lattice
  No initial velocities read in
 exchange correlation table for  LEXCH =        8
   RHO(1)=    0.500       N(1)  =     2000
   RHO(2)=  100.500       N(2)  =     4000
 


--------------------------------------------------------------------------------------------------------


 ion  position               nearest neighbor table
   1  0.000  0.000  0.000-   2 1.42   2 1.42   2 1.42
   2  0.333  0.333  0.000-   1 1.42   1 1.42   1 1.42
   3  0.000  0.000  0.205-   4 1.42   4 1.42   4 1.42
   4  0.333  0.333  0.205-   3 1.42   3 1.42   3 1.42
 
  LATTYP: Found a hexagonal cell.
 ALAT       =     2.4595120000
 C/A-ratio  =     8.1316944174
  
  Lattice vectors:
  
 A1 = (   0.0000000000,  -2.4595120000,   0.0000000000)
 A2 = (  -2.1300000000,   1.2297560000,   0.0000000000)
 A3 = (   0.0000000000,   0.0000000000, -20.0000000000)


Analysis of symmetry for initial positions (statically):
=====================================================================
 Subroutine PRICEL returns:
 Original cell was already a primitive cell.
 

 Routine SETGRP: Setting up the symmetry group for a 
 hexagonal supercell.


 Subroutine GETGRP returns: Found 24 space group operations
 (whereof  6 operations were pure point group operations)
 out of a pool of 24 trial point group operations.


The static configuration has the point symmetry C_3v.
 The point group associated with its full space group is D_6h.


Analysis of symmetry for dynamics (positions and initial velocities):
=====================================================================
 Subroutine PRICEL returns:
 Original cell was already a primitive cell.
 

 Routine SETGRP: Setting up the symmetry group for a 
 hexagonal supercell.


 Subroutine GETGRP returns: Found 24 space group operations
 (whereof  6 operations were pure point group operations)
 out of a pool of 24 trial point group operations.


The dynamic configuration has the point symmetry C_3v.
 The point group associated with its full space group is D_6h.


 Subroutine INISYM returns: Found 24 space group operations
 (whereof  6 operations are pure point group operations),
 and found     1 'primitive' translations

 
 
 KPOINTS: k grid                                  

Automatic generation of k-mesh.
Space group operators:
 irot       det(A)        alpha          n_x          n_y          n_z        tau_x        tau_y        tau_z
    1     1.000000     0.000000     1.000000     0.000000     0.000000     0.000000     0.000000     0.000000
    2     1.000000   120.000000     0.000000     0.000000     1.000000     0.000000     0.000000     0.000000
    3     1.000000   120.000000     0.000000     0.000000    -1.000000     0.000000     0.000000     0.000000
    4    -1.000000   180.000000    -0.000000     1.000000     0.000000     0.000000     0.000000     0.000000
    5    -1.000000   180.000000     0.866025    -0.500000     0.000000     0.000000     0.000000     0.000000
    6    -1.000000   180.000000     0.866025     0.500000     0.000000     0.000000     0.000000     0.000000
    7    -1.000000     0.000000     1.000000     0.000000     0.000000     0.333333    -0.666667    -0.795000
    8     1.000000    60.000000     0.000000     0.000000     1.000000     0.333333    -0.666667     0.000000
    9    -1.000000    60.000000     0.000000     0.000000     1.000000    -0.000001    -0.000000    -0.795000
   10    -1.000000   120.000000     0.000000     0.000000     1.000000     0.333333    -0.666667    -0.795000
   11     1.000000   180.000000     0.000000     0.000000     1.000000     0.333333    -0.666667     0.000000
   12    -1.000000   180.000000     0.000000     0.000000     1.000000     0.000000     0.000000    -0.795000
   13    -1.000000   120.000000     0.000000     0.000000    -1.000000     0.333333    -0.666667    -0.795000
   14     1.000000    60.000000     0.000000     0.000000    -1.000000     0.333333    -0.666667     0.000000
   15    -1.000000    60.000000     0.000000     0.000000    -1.000000    -0.000000    -0.000001    -0.795000
   16     1.000000   180.000000    -0.000000     1.000000     0.000000     0.333333    -0.666667    -0.795000
   17     1.000000   180.000000     0.500000    -0.866025     0.000000    -0.000000    -0.000001    -0.795000
   18    -1.000000   180.000000     0.500000    -0.866025     0.000000     0.333333    -0.666667     0.000000
   19     1.000000   180.000000     0.866025    -0.500000     0.000000     0.333333    -0.666667    -0.795000
   20     1.000000   180.000000     1.000000     0.000000     0.000000     0.000000     0.000000    -0.795000
   21    -1.000000   180.000000     1.000000     0.000000     0.000000     0.333333    -0.666667     0.000000
   22     1.000000   180.000000     0.866025     0.500000     0.000000     0.333333    -0.666667    -0.795000
   23     1.000000   180.000000    -0.500000    -0.866025     0.000000    -0.000001    -0.000000    -0.795000
   24    -1.000000   180.000000    -0.500000    -0.866025     0.000000     0.333333    -0.666667     0.000000
 
 Subroutine IBZKPT returns following result:
 ===========================================
 
 Found     48 irreducible k-points:
 
 Following reciprocal coordinates:
            Coordinates               Weight
  0.000000  0.000000  0.000000      1.000000
  0.047619  0.000000  0.000000      6.000000
  0.095238  0.000000  0.000000      6.000000
  0.142857  0.000000  0.000000      6.000000
  0.190476  0.000000  0.000000      6.000000
  0.238095  0.000000  0.000000      6.000000
  0.285714  0.000000  0.000000      6.000000
  0.333333  0.000000  0.000000      6.000000
  0.380952  0.000000  0.000000      6.000000
  0.428571  0.000000  0.000000      6.000000
  0.476190  0.000000  0.000000      6.000000
  0.095238  0.047619  0.000000      6.000000
  0.142857  0.047619  0.000000     12.000000
  0.190476  0.047619  0.000000     12.000000
  0.238095  0.047619  0.000000     12.000000
  0.285714  0.047619  0.000000     12.000000
  0.333333  0.047619  0.000000     12.000000
  0.380952  0.047619  0.000000     12.000000
  0.428571  0.047619  0.000000     12.000000
  0.476190  0.047619  0.000000     12.000000
 -0.476190  0.047619  0.000000      6.000000
  0.190476  0.095238  0.000000      6.000000
  0.238095  0.095238  0.000000     12.000000
  0.285714  0.095238  0.000000     12.000000
  0.333333  0.095238  0.000000     12.000000
  0.380952  0.095238  0.000000     12.000000
  0.428571  0.095238  0.000000     12.000000
  0.476190  0.095238  0.000000     12.000000
 -0.476190  0.095238  0.000000     12.000000
  0.285714  0.142857  0.000000      6.000000
  0.333333  0.142857  0.000000     12.000000
  0.380952  0.142857  0.000000     12.000000
  0.428571  0.142857  0.000000     12.000000
  0.476190  0.142857  0.000000     12.000000
 -0.476190  0.142857  0.000000     12.000000
 -0.428571  0.142857  0.000000      6.000000
  0.380952  0.190476  0.000000      6.000000
  0.428571  0.190476  0.000000     12.000000
  0.476190  0.190476  0.000000     12.000000
 -0.476190  0.190476  0.000000     12.000000
 -0.428571  0.190476  0.000000     12.000000
  0.476190  0.238095  0.000000      6.000000
 -0.476190  0.238095  0.000000     12.000000
 -0.428571  0.238095  0.000000     12.000000
 -0.380952  0.238095  0.000000      6.000000
 -0.428571  0.285714  0.000000      6.000000
 -0.380952  0.285714  0.000000     12.000000
 -0.333333  0.333333  0.000000      2.000000
 
 Following cartesian coordinates:
            Coordinates               Weight
  0.000000  0.000000  0.000000      1.000000
  0.011178 -0.019361  0.000000      6.000000
  0.022356 -0.038722  0.000000      6.000000
  0.033535 -0.058084  0.000000      6.000000
  0.044713 -0.077445  0.000000      6.000000
  0.055891 -0.096806  0.000000      6.000000
  0.067069 -0.116167  0.000000      6.000000
  0.078247 -0.135528  0.000000      6.000000
  0.089425 -0.154889  0.000000      6.000000
  0.100604 -0.174251  0.000000      6.000000
  0.111782 -0.193612  0.000000      6.000000
  0.033535 -0.019361  0.000000      6.000000
  0.044713 -0.038722  0.000000     12.000000
  0.055891 -0.058084  0.000000     12.000000
  0.067069 -0.077445  0.000000     12.000000
  0.078247 -0.096806  0.000000     12.000000
  0.089425 -0.116167  0.000000     12.000000
  0.100604 -0.135528  0.000000     12.000000
  0.111782 -0.154889  0.000000     12.000000
  0.122960 -0.174251  0.000000     12.000000
 -0.100604  0.212973  0.000000      6.000000
  0.067069 -0.038722  0.000000      6.000000
  0.078247 -0.058084  0.000000     12.000000
  0.089425 -0.077445  0.000000     12.000000
  0.100604 -0.096806  0.000000     12.000000
  0.111782 -0.116167  0.000000     12.000000
  0.122960 -0.135528  0.000000     12.000000
  0.134138 -0.154889  0.000000     12.000000
 -0.089425  0.232334  0.000000     12.000000
  0.100604 -0.058084  0.000000      6.000000
  0.111782 -0.077445  0.000000     12.000000
  0.122960 -0.096806  0.000000     12.000000
  0.134138 -0.116167  0.000000     12.000000
  0.145316 -0.135528  0.000000     12.000000
 -0.078247  0.251695  0.000000     12.000000
 -0.067069  0.232334  0.000000      6.000000
  0.134138 -0.077445  0.000000      6.000000
  0.145316 -0.096806  0.000000     12.000000
  0.156495 -0.116167  0.000000     12.000000
 -0.067069  0.271056  0.000000     12.000000
 -0.055891  0.251695  0.000000     12.000000
  0.167673 -0.096806  0.000000      6.000000
 -0.055891  0.290418  0.000000     12.000000
 -0.044713  0.271056  0.000000     12.000000
 -0.033535  0.251695  0.000000      6.000000
 -0.033535  0.290418  0.000000      6.000000
 -0.022356  0.271056  0.000000     12.000000
  0.000000  0.271056  0.000000      2.000000
 


--------------------------------------------------------------------------------------------------------




 Dimension of arrays:
   k-points           NKPTS =     48   k-points in BZ     NKDIM =     48   number of bands    NBANDS=     12
   number of dos      NEDOS =    301   number of ions     NIONS =      4
   non local maximal  LDIM  =      4   non local SUM 2l+1 LMDIM =      8
   total plane-waves  NPLWV = 110592
   max r-space proj   IRMAX =      1   max aug-charges    IRDMAX=  99836
   dimension x,y,z NGX =    24 NGY =   24 NGZ =  192
   dimension x,y,z NGXF=    48 NGYF=   48 NGZF=  384
   support grid    NGXF=    96 NGYF=   96 NGZF=  768
   ions per type =               4
   NGX,Y,Z   is equivalent  to a cutoff of  16.22, 16.22, 15.96 a.u.
   NGXF,Y,Z  is equivalent  to a cutoff of  32.44, 32.44, 31.92 a.u.

 SYSTEM =  C:graphene                              
 POSCAR =  C2_bilayer                              

 Startparameter for this run:
   NWRITE =      2    write-flag & timer
   PREC   = accura    normal or accurate (medium, high low for compatibility)
   ISTART =      0    job   : 0-new  1-cont  2-samecut
   ICHARG =      2    charge: 1-file 2-atom 10-const
   ISPIN  =      1    spin polarized calculation?
   LNONCOLLINEAR =      F non collinear calculations
   LSORBIT =      F    spin-orbit coupling
   INIWAV =      1    electr: 0-lowe 1-rand  2-diag
   LASPH  =      F    aspherical Exc in radial PAW
   METAGGA=      F    non-selfconsistent MetaGGA calc.

 Electronic Relaxation 1
   ENCUT  =  800.0 eV  58.80 Ry    7.67 a.u.   5.67  5.67 46.12*2*pi/ulx,y,z
   ENINI  =  800.0     initial cutoff
   ENAUG  =  644.9 eV  augmentation charge cutoff
   NELM   =     60;   NELMIN=  5; NELMDL= -5     # of ELM steps 
   EDIFF  = 0.1E-07   stopping-criterion for ELM
   LREAL  =      F    real-space projection
   NLSPLINE    = F    spline interpolate recip. space projectors
   LCOMPAT=      F    compatible to vasp.4.4
   GGA_COMPAT  = T    GGA compatible to vasp.4.4-vasp.4.6
   LMAXPAW     = -100 max onsite density
   LMAXMIX     =    2 max onsite mixed and CHGCAR
   VOSKOWN=      0    Vosko Wilk Nusair interpolation
   ROPT   =    0.00000
 Ionic relaxation
   EDIFFG = 0.1E-06   stopping-criterion for IOM
   NSW    =      1    number of steps for IOM
   NBLOCK =      1;   KBLOCK =      1    inner block; outer block 
   IBRION =     -1    ionic relax: 0-MD 1-quasi-New 2-CG
   NFREE  =      0    steps in history (QN), initial steepest desc. (CG)
   ISIF   =      2    stress and relaxation
   IWAVPR =     10    prediction:  0-non 1-charg 2-wave 3-comb
   ISYM   =      2    0-nonsym 1-usesym 2-fastsym
   LCORR  =      T    Harris-Foulkes like correction to forces

   POTIM  = 0.5000    time-step for ionic-motion
   TEIN   =    0.0    initial temperature
   TEBEG  =    0.0;   TEEND  =   0.0 temperature during run
   SMASS  =  -3.00    Nose mass-parameter (am)
   estimated Nose-frequenzy (Omega)   =  0.10E-29 period in steps =****** mass=  -0.138E-27a.u.
   SCALEE = 1.0000    scale energy and forces
   NPACO  =    256;   APACO  = 16.0  distance and # of slots for P.C.
   PSTRESS=    0.0 pullay stress

  Mass of Ions in am
   POMASS =  12.01
  Ionic Valenz
   ZVAL   =   4.00
  Atomic Wigner-Seitz radii
   RWIGS  =  -1.00
  virtual crystal weights 
   VCA    =   1.00
   NELECT =      16.0000    total number of electrons
   NUPDOWN=      -1.0000    fix difference up-down

 DOS related values:
   EMIN   =  10.00;   EMAX   =-10.00  energy-range for DOS
   EFERMI =   0.00
   ISMEAR =     0;   SIGMA  =   0.01  broadening in eV -4-tet -1-fermi 0-gaus

 Electronic relaxation 2 (details)
   IALGO  =     38    algorithm
   LDIAG  =      T    sub-space diagonalisation (order eigenvalues)
   LSUBROT=      F    optimize rotation matrix (better conditioning)
   TURBO    =      0    0=normal 1=particle mesh
   IRESTART =      0    0=no restart 2=restart with 2 vectors
   NREBOOT  =      0    no. of reboots
   NMIN     =      0    reboot dimension
   EREF     =   0.00    reference energy to select bands
   IMIX   =      4    mixing-type and parameters
     AMIX     =   0.40;   BMIX     =  1.00
     AMIX_MAG =   1.60;   BMIX_MAG =  1.00
     AMIN     =   0.01
     WC   =   100.;   INIMIX=   1;  MIXPRE=   1;  MAXMIX= -45

 Intra band minimization:
   WEIMIN = 0.0000     energy-eigenvalue tresh-hold
   EBREAK =  0.21E-09  absolut break condition
   DEPER  =   0.30     relativ break condition  

   TIME   =   0.40     timestep for ELM

  volume/ion in A,a.u.               =      26.19       176.76
  Fermi-wavevector in a.u.,A,eV,Ry     =   0.875041  1.653589 10.417948  0.765698
  Thomas-Fermi vector in A             =   1.994657
 
 Write flags
   LWAVE        =      F    write WAVECAR
   LDOWNSAMPLE  =      F    k-point downsampling of WAVECAR
   LCHARG       =      T    write CHGCAR
   LVTOT        =      F    write LOCPOT, total local potential
   LVHAR        =      F    write LOCPOT, Hartree potential only
   LELF         =      F    write electronic localiz. function (ELF)
   LORBIT       =      0    0 simple, 1 ext, 2 COOP (PROOUT), +10 PAW based schemes


 Dipole corrections
   LMONO  =      F    monopole corrections only (constant potential shift)
   LDIPOL =      F    correct potential (dipole corrections)
   IDIPOL =      0    1-x, 2-y, 3-z, 4-all directions 
   EPSILON=  1.0000000 bulk dielectric constant

 Exchange correlation treatment:
   GGA     =    --    GGA type
   LEXCH   =     8    internal setting for exchange type
   VOSKOWN=      0    Vosko Wilk Nusair interpolation
   LHFCALC =     F    Hartree Fock is set to
   LHFONE  =     F    Hartree Fock one center treatment
   AEXX    =    0.0000 exact exchange contribution

 Linear response parameters
   LEPSILON=     F    determine dielectric tensor
   LRPA    =     F    only Hartree local field effects (RPA)
   LNABLA  =     F    use nabla operator in PAW spheres
   LVEL    =     F    velocity operator in full k-point grid
   LINTERFAST=   F  fast interpolation
   KINTER  =     0    interpolate to denser k-point grid
   CSHIFT  =0.1000    complex shift for real part using Kramers Kronig
   OMEGAMAX=  -1.0    maximum frequency
   DEG_THRESHOLD= 0.2000000E-02 threshold for treating states as degnerate
   RTIME   =   -0.100 relaxation time in fs
  (WPLASMAI=    0.000 imaginary part of plasma frequency in eV, 0.658/RTIME)
   DFIELD  = 0.0000000 0.0000000 0.0000000 field for delta impulse in time
 
 Orbital magnetization related:
   ORBITALMAG=     F  switch on orbital magnetization
   LCHIMAG   =     F  perturbation theory with respect to B field
   DQ        =  0.001000  dq finite difference perturbation B field
   LLRAUG    =     F  two centre corrections for induced B field



--------------------------------------------------------------------------------------------------------


 Static calculation
 charge density and potential will be updated during run
 non-spin polarized calculation
 Variant of blocked Davidson
 Davidson routine will perform the subspace rotation
 perform sub-space diagonalisation
    after iterative eigenvector-optimisation
 modified Broyden-mixing scheme, WC =      100.0
 initial mixing is a Kerker type mixing with AMIX =  0.4000 and BMIX =      1.0000
 Hartree-type preconditioning will be used
 using additional bands            4
 reciprocal scheme for non local part
 use partial core corrections
 calculate Harris-corrections to forces 
   (improved forces if not selfconsistent)
 use gradient corrections 
 use of overlap-Matrix (Vanderbilt PP)
 Gauss-broadening in eV      SIGMA  =   0.01


--------------------------------------------------------------------------------------------------------


  energy-cutoff  :      800.00
  volume of cell :      104.78
      direct lattice vectors                 reciprocal lattice vectors
     2.130000000 -1.229756000  0.000000000     0.234741784 -0.406584721  0.000000000
     2.130000000  1.229756000  0.000000000     0.234741784  0.406584721  0.000000000
     0.000000000  0.000000000 20.000000000     0.000000000  0.000000000  0.050000000

  length of vectors
     2.459512110  2.459512110 20.000000000     0.469483589  0.469483589  0.050000000


 
 k-points in units of 2pi/SCALE and weight: k grid                                  
   0.00000000  0.00000000  0.00000000       0.002
   0.01117818 -0.01936118  0.00000000       0.014
   0.02235636 -0.03872235  0.00000000       0.014
   0.03353454 -0.05808353  0.00000000       0.014
   0.04471272 -0.07744471  0.00000000       0.014
   0.05589090 -0.09680589  0.00000000       0.014
   0.06706908 -0.11616706  0.00000000       0.014
   0.07824726 -0.13552824  0.00000000       0.014
   0.08942544 -0.15488942  0.00000000       0.014
   0.10060362 -0.17425059  0.00000000       0.014
   0.11178180 -0.19361177  0.00000000       0.014
   0.03353454 -0.01936118  0.00000000       0.014
   0.04471272 -0.03872235  0.00000000       0.027
   0.05589090 -0.05808353  0.00000000       0.027
   0.06706908 -0.07744471  0.00000000       0.027
   0.07824726 -0.09680589  0.00000000       0.027
   0.08942544 -0.11616706  0.00000000       0.027
   0.10060362 -0.13552824  0.00000000       0.027
   0.11178180 -0.15488942  0.00000000       0.027
   0.12295998 -0.17425059  0.00000000       0.027
  -0.10060362  0.21297295  0.00000000       0.014
   0.06706908 -0.03872235  0.00000000       0.014
   0.07824726 -0.05808353  0.00000000       0.027
   0.08942544 -0.07744471  0.00000000       0.027
   0.10060362 -0.09680589  0.00000000       0.027
   0.11178180 -0.11616706  0.00000000       0.027
   0.12295998 -0.13552824  0.00000000       0.027
   0.13413816 -0.15488942  0.00000000       0.027
  -0.08942544  0.23233413  0.00000000       0.027
   0.10060362 -0.05808353  0.00000000       0.014
   0.11178180 -0.07744471  0.00000000       0.027
   0.12295998 -0.09680589  0.00000000       0.027
   0.13413816 -0.11616706  0.00000000       0.027
   0.14531634 -0.13552824  0.00000000       0.027
  -0.07824726  0.25169530  0.00000000       0.027
  -0.06706908  0.23233413  0.00000000       0.014
   0.13413816 -0.07744471  0.00000000       0.014
   0.14531634 -0.09680589  0.00000000       0.027
   0.15649452 -0.11616706  0.00000000       0.027
  -0.06706908  0.27105648  0.00000000       0.027
  -0.05589090  0.25169530  0.00000000       0.027
   0.16767270 -0.09680589  0.00000000       0.014
  -0.05589090  0.29041766  0.00000000       0.027
  -0.04471272  0.27105648  0.00000000       0.027
  -0.03353454  0.25169530  0.00000000       0.014
  -0.03353454  0.29041766  0.00000000       0.014
  -0.02235636  0.27105648  0.00000000       0.027
   0.00000000  0.27105648  0.00000000       0.005
 
 k-points in reciprocal lattice and weights: k grid                                  
   0.00000000  0.00000000  0.00000000       0.002
   0.04761905  0.00000000  0.00000000       0.014
   0.09523810  0.00000000  0.00000000       0.014
   0.14285714  0.00000000  0.00000000       0.014
   0.19047619  0.00000000  0.00000000       0.014
   0.23809524  0.00000000  0.00000000       0.014
   0.28571429  0.00000000  0.00000000       0.014
   0.33333333  0.00000000  0.00000000       0.014
   0.38095238  0.00000000  0.00000000       0.014
   0.42857143  0.00000000  0.00000000       0.014
   0.47619048  0.00000000  0.00000000       0.014
   0.09523810  0.04761905  0.00000000       0.014
   0.14285714  0.04761905  0.00000000       0.027
   0.19047619  0.04761905  0.00000000       0.027
   0.23809524  0.04761905  0.00000000       0.027
   0.28571429  0.04761905  0.00000000       0.027
   0.33333333  0.04761905  0.00000000       0.027
   0.38095238  0.04761905  0.00000000       0.027
   0.42857143  0.04761905  0.00000000       0.027
   0.47619048  0.04761905  0.00000000       0.027
  -0.47619048  0.04761905  0.00000000       0.014
   0.19047619  0.09523810  0.00000000       0.014
   0.23809524  0.09523810  0.00000000       0.027
   0.28571429  0.09523810  0.00000000       0.027
   0.33333333  0.09523810  0.00000000       0.027
   0.38095238  0.09523810  0.00000000       0.027
   0.42857143  0.09523810  0.00000000       0.027
   0.47619048  0.09523810  0.00000000       0.027
  -0.47619048  0.09523810  0.00000000       0.027
   0.28571429  0.14285714  0.00000000       0.014
   0.33333333  0.14285714  0.00000000       0.027
   0.38095238  0.14285714  0.00000000       0.027
   0.42857143  0.14285714  0.00000000       0.027
   0.47619048  0.14285714  0.00000000       0.027
  -0.47619048  0.14285714  0.00000000       0.027
  -0.42857143  0.14285714  0.00000000       0.014
   0.38095238  0.19047619  0.00000000       0.014
   0.42857143  0.19047619  0.00000000       0.027
   0.47619048  0.19047619  0.00000000       0.027
  -0.47619048  0.19047619  0.00000000       0.027
  -0.42857143  0.19047619  0.00000000       0.027
   0.47619048  0.23809524  0.00000000       0.014
  -0.47619048  0.23809524  0.00000000       0.027
  -0.42857143  0.23809524  0.00000000       0.027
  -0.38095238  0.23809524  0.00000000       0.014
  -0.42857143  0.28571429  0.00000000       0.014
  -0.38095238  0.28571429  0.00000000       0.027
  -0.33333333  0.33333333  0.00000000       0.005
 
 position of ions in fractional coordinates (direct lattice) 
   0.00000000  0.00000000  0.00000000
   0.33333300  0.33333300  0.00000000
   0.00000000  0.00000000  0.20500000
   0.33333300  0.33333300  0.20500000
 
 position of ions in cartesian coordinates  (Angst):
   0.00000000  0.00000000  0.00000000
   1.41999858  0.00000000  0.00000000
   0.00000000  0.00000000  4.10000000
   1.41999858  0.00000000  4.10000000
 


--------------------------------------------------------------------------------------------------------


 k-point  1 :   0.0000 0.0000 0.0000  plane waves:    5409
 k-point  2 :   0.0476 0.0000 0.0000  plane waves:    5413
 k-point  3 :   0.0952 0.0000 0.0000  plane waves:    5402
 k-point  4 :   0.1429 0.0000 0.0000  plane waves:    5398
 k-point  5 :   0.1905 0.0000 0.0000  plane waves:    5404
 k-point  6 :   0.2381 0.0000 0.0000  plane waves:    5408
 k-point  7 :   0.2857 0.0000 0.0000  plane waves:    5404
 k-point  8 :   0.3333 0.0000 0.0000  plane waves:    5394
 k-point  9 :   0.3810 0.0000 0.0000  plane waves:    5382
 k-point 10 :   0.4286 0.0000 0.0000  plane waves:    5396
 k-point 11 :   0.4762 0.0000 0.0000  plane waves:    5380
 k-point 12 :   0.0952 0.0476 0.0000  plane waves:    5411
 k-point 13 :   0.1429 0.0476 0.0000  plane waves:    5415
 k-point 14 :   0.1905 0.0476 0.0000  plane waves:    5413
 k-point 15 :   0.2381 0.0476 0.0000  plane waves:    5399
 k-point 16 :   0.2857 0.0476 0.0000  plane waves:    5396
 k-point 17 :   0.3333 0.0476 0.0000  plane waves:    5389
 k-point 18 :   0.3810 0.0476 0.0000  plane waves:    5378
 k-point 19 :   0.4286 0.0476 0.0000  plane waves:    5381
 k-point 20 :   0.4762 0.0476 0.0000  plane waves:    5391
 k-point 21 :  -0.4762 0.0476 0.0000  plane waves:    5394
 k-point 22 :   0.1905 0.0952 0.0000  plane waves:    5403
 k-point 23 :   0.2381 0.0952 0.0000  plane waves:    5409
 k-point 24 :   0.2857 0.0952 0.0000  plane waves:    5419
 k-point 25 :   0.3333 0.0952 0.0000  plane waves:    5384
 k-point 26 :   0.3810 0.0952 0.0000  plane waves:    5369
 k-point 27 :   0.4286 0.0952 0.0000  plane waves:    5364
 k-point 28 :   0.4762 0.0952 0.0000  plane waves:    5382
 k-point 29 :  -0.4762 0.0952 0.0000  plane waves:    5404
 k-point 30 :   0.2857 0.1429 0.0000  plane waves:    5405
 k-point 31 :   0.3333 0.1429 0.0000  plane waves:    5404
 k-point 32 :   0.3810 0.1429 0.0000  plane waves:    5382
 k-point 33 :   0.4286 0.1429 0.0000  plane waves:    5347
 k-point 34 :   0.4762 0.1429 0.0000  plane waves:    5367
 k-point 35 :  -0.4762 0.1429 0.0000  plane waves:    5376
 k-point 36 :  -0.4286 0.1429 0.0000  plane waves:    5400
 k-point 37 :   0.3810 0.1905 0.0000  plane waves:    5390
 k-point 38 :   0.4286 0.1905 0.0000  plane waves:    5358
 k-point 39 :   0.4762 0.1905 0.0000  plane waves:    5365
 k-point 40 :  -0.4762 0.1905 0.0000  plane waves:    5363
 k-point 41 :  -0.4286 0.1905 0.0000  plane waves:    5377
 k-point 42 :   0.4762 0.2381 0.0000  plane waves:    5364
 k-point 43 :  -0.4762 0.2381 0.0000  plane waves:    5368
 k-point 44 :  -0.4286 0.2381 0.0000  plane waves:    5360
 k-point 45 :  -0.3810 0.2381 0.0000  plane waves:    5366
 k-point 46 :  -0.4286 0.2857 0.0000  plane waves:    5362
 k-point 47 :  -0.3810 0.2857 0.0000  plane waves:    5326
 k-point 48 :  -0.3333 0.3333 0.0000  plane waves:    5334

 maximum and minimum number of plane-waves per node :      5419     5326

 maximum number of plane-waves:      5419
 maximum index in each direction: 
   IXMAX=    6   IYMAX=    5   IZMAX=   46
   IXMIN=   -6   IYMIN=   -5   IZMIN=  -46


 serial   3D FFT for wavefunctions
 parallel 3D FFT for charge:
    minimum data exchange during FFTs selected (reduces bandwidth)


 total amount of memory used by VASP MPI-rank0   107376. kBytes
=======================================================================

   base      :      30000. kBytes
   nonl-proj :      16997. kBytes
   fftplans  :      32720. kBytes
   grid      :      15086. kBytes
   one-center:         12. kBytes
   wavefun   :      12561. kBytes
 
     INWAV:  cpu time    0.0000: real time    0.0001
 Broyden mixing: mesh for mixing (old mesh)
   NGX = 11   NGY = 11   NGZ = 93
  (NGX  = 48   NGY  = 48   NGZ  =384)
  gives a total of  11253 points

 initial charge density was supplied:
 charge density of overlapping atoms calculated
 number of electron      16.0000000 magnetization 
 keeping initial charge density in first step


--------------------------------------------------------------------------------------------------------


 Maximum index for augmentation-charges        24154 (set IRDMAX)


--------------------------------------------------------------------------------------------------------


 First call to EWALD:  gamma=   0.376
 Maximum number of real-space cells 5x 5x 1
 Maximum number of reciprocal cells 2x 2x10

    FEWALD:  cpu time    0.0011: real time    0.0011


--------------------------------------- Iteration      1(   1)  ---------------------------------------


    POTLOK:  cpu time    0.0852: real time    0.1021
    SETDIJ:  cpu time    0.0411: real time    0.0413
     EDDAV:  cpu time    1.4473: real time    1.4521
       DOS:  cpu time    0.0004: real time    0.0004
    --------------------------------------------
      LOOP:  cpu time    1.5741: real time    1.5959

 eigenvalue-minimisations  :  1152
 total energy-change (2. order) : 0.1265696E+03  (-0.8015605E+03)
 number of electron      16.0000000 magnetization 
 augmentation part       16.0000000 magnetization 

 Free energy of the ion-electron system (eV)
  ---------------------------------------------------
  alpha Z        PSCENC =        12.54445055
  Ewald energy   TEWEN  =      2687.67881067
  -Hartree energ DENC   =     -3149.39768218
  -exchange      EXHF   =         0.00000000
  -V(xc)+E(xc)   XCENC  =        52.82315984
  PAW double counting   =       434.08818552     -436.36580876
  entropy T*S    EENTRO =        -0.00005202
  eigenvalues    EBANDS =       -63.41915942
  atomic energy  EATOM  =       588.61769381
  Solvation  Ediel_sol  =         0.00000000
  ---------------------------------------------------
  free energy    TOTEN  =       126.56959800 eV

  energy without entropy =      126.56965002  energy(sigma->0) =      126.56962401


--------------------------------------------------------------------------------------------------------




--------------------------------------- Iteration      1(   2)  ---------------------------------------


     EDDAV:  cpu time    2.0223: real time    2.0287
       DOS:  cpu time    0.0004: real time    0.0004
    --------------------------------------------
      LOOP:  cpu time    2.0227: real time    2.0291

 eigenvalue-minimisations  :  1844
 total energy-change (2. order) :-0.1515578E+03  (-0.1381901E+03)
 number of electron      16.0000000 magnetization 
 augmentation part       16.0000000 magnetization 

 Free energy of the ion-electron system (eV)
  ---------------------------------------------------
  alpha Z        PSCENC =        12.54445055
  Ewald energy   TEWEN  =      2687.67881067
  -Hartree energ DENC   =     -3149.39768218
  -exchange      EXHF   =         0.00000000
  -V(xc)+E(xc)   XCENC  =        52.82315984
  PAW double counting   =       434.08818552     -436.36580876
  entropy T*S    EENTRO =        -0.00015016
  eigenvalues    EBANDS =      -214.97688345
  atomic energy  EATOM  =       588.61769381
  Solvation  Ediel_sol  =         0.00000000
  ---------------------------------------------------
  free energy    TOTEN  =       -24.98822416 eV

  energy without entropy =      -24.98807400  energy(sigma->0) =      -24.98814908


--------------------------------------------------------------------------------------------------------




--------------------------------------- Iteration      1(   3)  ---------------------------------------


     EDDAV:  cpu time    1.6850: real time    1.6907
       DOS:  cpu time    0.0002: real time    0.0002
    --------------------------------------------
      LOOP:  cpu time    1.6852: real time    1.6908

 eigenvalue-minimisations  :  1448
 total energy-change (2. order) :-0.1420851E+02  (-0.1394489E+02)
 number of electron      16.0000000 magnetization 
 augmentation part       16.0000000 magnetization 

 Free energy of the ion-electron system (eV)
  ---------------------------------------------------
  alpha Z        PSCENC =        12.54445055
  Ewald energy   TEWEN  =      2687.67881067
  -Hartree energ DENC   =     -3149.39768218
  -exchange      EXHF   =         0.00000000
  -V(xc)+E(xc)   XCENC  =        52.82315984
  PAW double counting   =       434.08818552     -436.36580876
  entropy T*S    EENTRO =        -0.00000000
  eigenvalues    EBANDS =      -229.18554262
  atomic energy  EATOM  =       588.61769381
  Solvation  Ediel_sol  =         0.00000000
  ---------------------------------------------------
  free energy    TOTEN  =       -39.19673317 eV

  energy without entropy =      -39.19673317  energy(sigma->0) =      -39.19673317


--------------------------------------------------------------------------------------------------------




--------------------------------------- Iteration      1(   4)  ---------------------------------------


     EDDAV:  cpu time    1.7133: real time    1.7191
       DOS:  cpu time    0.0002: real time    0.0002
    --------------------------------------------
      LOOP:  cpu time    1.7135: real time    1.7192

 eigenvalue-minimisations  :  1480
 total energy-change (2. order) :-0.3017709E+00  (-0.3010122E+00)
 number of electron      16.0000000 magnetization 
 augmentation part       16.0000000 magnetization 

 Free energy of the ion-electron system (eV)
  ---------------------------------------------------
  alpha Z        PSCENC =        12.54445055
  Ewald energy   TEWEN  =      2687.67881067
  -Hartree energ DENC   =     -3149.39768218
  -exchange      EXHF   =         0.00000000
  -V(xc)+E(xc)   XCENC  =        52.82315984
  PAW double counting   =       434.08818552     -436.36580876
  entropy T*S    EENTRO =        -0.00000000
  eigenvalues    EBANDS =      -229.48731356
  atomic energy  EATOM  =       588.61769381
  Solvation  Ediel_sol  =         0.00000000
  ---------------------------------------------------
  free energy    TOTEN  =       -39.49850412 eV

  energy without entropy =      -39.49850412  energy(sigma->0) =      -39.49850412


--------------------------------------------------------------------------------------------------------




--------------------------------------- Iteration      1(   5)  ---------------------------------------


     EDDAV:  cpu time    1.6903: real time    1.6957
       DOS:  cpu time    0.0002: real time    0.0002
    CHARGE:  cpu time    0.1890: real time    0.1895
    MIXING:  cpu time    0.0025: real time    0.0025
    --------------------------------------------
      LOOP:  cpu time    1.8820: real time    1.8878

 eigenvalue-minimisations  :  1468
 total energy-change (2. order) :-0.8407887E-02  (-0.8392389E-02)
 number of electron      16.0000000 magnetization 
 augmentation part        0.4281125 magnetization 

 Broyden mixing:
  rms(total) = 0.90196E+00    rms(broyden)= 0.90196E+00
  rms(prec ) = 0.96426E+00
  weight for this iteration     100.00

 Free energy of the ion-electron system (eV)
  ---------------------------------------------------
  alpha Z        PSCENC =        12.54445055
  Ewald energy   TEWEN  =      2687.67881067
  -Hartree energ DENC   =     -3149.39768218
  -exchange      EXHF   =         0.00000000
  -V(xc)+E(xc)   XCENC  =        52.82315984
  PAW double counting   =       434.08818552     -436.36580876
  entropy T*S    EENTRO =        -0.00000000
  eigenvalues    EBANDS =      -229.49572145
  atomic energy  EATOM  =       588.61769381
  Solvation  Ediel_sol  =         0.00000000
  ---------------------------------------------------
  free energy    TOTEN  =       -39.50691200 eV

  energy without entropy =      -39.50691200  energy(sigma->0) =      -39.50691200


--------------------------------------------------------------------------------------------------------




--------------------------------------- Iteration      1(   6)  ---------------------------------------


    POTLOK:  cpu time    0.0741: real time    0.0743
    SETDIJ:  cpu time    0.0370: real time    0.0371
     EDDAV:  cpu time    1.6360: real time    1.6410
       DOS:  cpu time    0.0002: real time    0.0002
    CHARGE:  cpu time    0.1822: real time    0.1826
    MIXING:  cpu time    0.0027: real time    0.0027
    --------------------------------------------
      LOOP:  cpu time    1.9322: real time    1.9380

 eigenvalue-minimisations  :  1376
 total energy-change (2. order) : 0.1879667E+01  (-0.1744492E+00)
 number of electron      16.0000000 magnetization 
 augmentation part        0.4091701 magnetization 

 Broyden mixing:
  rms(total) = 0.52918E+00    rms(broyden)= 0.52918E+00
  rms(prec ) = 0.55968E+00
  weight for this iteration     100.00

 eigenvalues of (default mixing * dielectric matrix)
  average eigenvalue GAMMA=   2.2038
  2.2038

 Free energy of the ion-electron system (eV)
  ---------------------------------------------------
  alpha Z        PSCENC =        12.54445055
  Ewald energy   TEWEN  =      2687.67881067
  -Hartree energ DENC   =     -3169.60901680
  -exchange      EXHF   =         0.00000000
  -V(xc)+E(xc)   XCENC  =        53.81659383
  PAW double counting   =       803.44694317     -806.02345541
  entropy T*S    EENTRO =        -0.00000000
  eigenvalues    EBANDS =      -208.09926495
  atomic energy  EATOM  =       588.61769381
  Solvation  Ediel_sol  =         0.00000000
  ---------------------------------------------------
  free energy    TOTEN  =       -37.62724513 eV

  energy without entropy =      -37.62724513  energy(sigma->0) =      -37.62724513


--------------------------------------------------------------------------------------------------------




--------------------------------------- Iteration      1(   7)  ---------------------------------------


    POTLOK:  cpu time    0.0729: real time    0.0731
    SETDIJ:  cpu time    0.0360: real time    0.0361
     EDDAV:  cpu time    1.6570: real time    1.6623
       DOS:  cpu time    0.0002: real time    0.0002
    CHARGE:  cpu time    0.1739: real time    0.1743
    MIXING:  cpu time    0.0027: real time    0.0027
    --------------------------------------------
      LOOP:  cpu time    1.9426: real time    1.9487

 eigenvalue-minimisations  :  1420
 total energy-change (2. order) : 0.6842234E+00  (-0.2297342E+00)
 number of electron      16.0000000 magnetization 
 augmentation part        0.3868169 magnetization 

 Broyden mixing:
  rms(total) = 0.13749E+00    rms(broyden)= 0.13749E+00
  rms(prec ) = 0.14272E+00
  weight for this iteration     100.00

 eigenvalues of (default mixing * dielectric matrix)
  average eigenvalue GAMMA=   2.2752
  2.1743  2.3760

 Free energy of the ion-electron system (eV)
  ---------------------------------------------------
  alpha Z        PSCENC =        12.54445055
  Ewald energy   TEWEN  =      2687.67881067
  -Hartree energ DENC   =     -3195.71533125
  -exchange      EXHF   =         0.00000000
  -V(xc)+E(xc)   XCENC  =        55.11404773
  PAW double counting   =      1520.89134419    -1523.73190286
  entropy T*S    EENTRO =        -0.00000000
  eigenvalues    EBANDS =      -182.34213459
  atomic energy  EATOM  =       588.61769381
  Solvation  Ediel_sol  =         0.00000000
  ---------------------------------------------------
  free energy    TOTEN  =       -36.94302176 eV

  energy without entropy =      -36.94302176  energy(sigma->0) =      -36.94302176


--------------------------------------------------------------------------------------------------------




--------------------------------------- Iteration      1(   8)  ---------------------------------------


    POTLOK:  cpu time    0.0715: real time    0.0717
    SETDIJ:  cpu time    0.0354: real time    0.0354
     EDDAV:  cpu time    1.6906: real time    1.6961
       DOS:  cpu time    0.0002: real time    0.0002
    CHARGE:  cpu time    0.1767: real time    0.1771
    MIXING:  cpu time    0.0027: real time    0.0028
    --------------------------------------------
      LOOP:  cpu time    1.9770: real time    1.9833

 eigenvalue-minimisations  :  1468
 total energy-change (2. order) : 0.1793645E-02  (-0.7710604E-02)
 number of electron      16.0000000 magnetization 
 augmentation part        0.3859739 magnetization 

 Broyden mixing:
  rms(total) = 0.12791E-01    rms(broyden)= 0.12790E-01
  rms(prec ) = 0.27548E-01
  weight for this iteration     100.00

 eigenvalues of (default mixing * dielectric matrix)
  average eigenvalue GAMMA=   1.7904
  0.9164  2.3130  2.1419

 Free energy of the ion-electron system (eV)
  ---------------------------------------------------
  alpha Z        PSCENC =        12.54445055
  Ewald energy   TEWEN  =      2687.67881067
  -Hartree energ DENC   =     -3197.43068842
  -exchange      EXHF   =         0.00000000
  -V(xc)+E(xc)   XCENC  =        55.09493035
  PAW double counting   =      1708.67630546    -1711.40135834
  entropy T*S    EENTRO =        -0.00000000
  eigenvalues    EBANDS =      -180.72137218
  atomic energy  EATOM  =       588.61769381
  Solvation  Ediel_sol  =         0.00000000
  ---------------------------------------------------
  free energy    TOTEN  =       -36.94122811 eV

  energy without entropy =      -36.94122811  energy(sigma->0) =      -36.94122811


--------------------------------------------------------------------------------------------------------




--------------------------------------- Iteration      1(   9)  ---------------------------------------


    POTLOK:  cpu time    0.0757: real time    0.0832
    SETDIJ:  cpu time    0.0382: real time    0.0383
     EDDAV:  cpu time    1.7177: real time    1.7229
       DOS:  cpu time    0.0002: real time    0.0001
    CHARGE:  cpu time    0.1794: real time    0.1798
    MIXING:  cpu time    0.0028: real time    0.0028
    --------------------------------------------
      LOOP:  cpu time    2.0139: real time    2.0272

 eigenvalue-minimisations  :  1448
 total energy-change (2. order) : 0.1728899E-02  (-0.2427771E-03)
 number of electron      16.0000000 magnetization 
 augmentation part        0.3855320 magnetization 

 Broyden mixing:
  rms(total) = 0.92029E-02    rms(broyden)= 0.92028E-02
  rms(prec ) = 0.24523E-01
  weight for this iteration     100.00

 eigenvalues of (default mixing * dielectric matrix)
  average eigenvalue GAMMA=   2.1087
  1.0321  1.9598  2.7215  2.7215

 Free energy of the ion-electron system (eV)
  ---------------------------------------------------
  alpha Z        PSCENC =        12.54445055
  Ewald energy   TEWEN  =      2687.67881067
  -Hartree energ DENC   =     -3198.49632478
  -exchange      EXHF   =         0.00000000
  -V(xc)+E(xc)   XCENC  =        55.11898455
  PAW double counting   =      1703.59123043    -1706.32065320
  entropy T*S    EENTRO =        -0.00000000
  eigenvalues    EBANDS =      -179.67369123
  atomic energy  EATOM  =       588.61769381
  Solvation  Ediel_sol  =         0.00000000
  ---------------------------------------------------
  free energy    TOTEN  =       -36.93949921 eV

  energy without entropy =      -36.93949921  energy(sigma->0) =      -36.93949921


--------------------------------------------------------------------------------------------------------




--------------------------------------- Iteration      1(  10)  ---------------------------------------


    POTLOK:  cpu time    0.0724: real time    0.0726
    SETDIJ:  cpu time    0.0383: real time    0.0384
     EDDAV:  cpu time    1.6529: real time    1.6585
       DOS:  cpu time    0.0001: real time    0.0001
    CHARGE:  cpu time    0.1757: real time    0.1761
    MIXING:  cpu time    0.0029: real time    0.0029
    --------------------------------------------
      LOOP:  cpu time    1.9423: real time    1.9486

 eigenvalue-minimisations  :  1372
 total energy-change (2. order) : 0.6985400E-02  (-0.4139200E-03)
 number of electron      16.0000000 magnetization 
 augmentation part        0.3850093 magnetization 

 Broyden mixing:
  rms(total) = 0.10258E-01    rms(broyden)= 0.10258E-01
  rms(prec ) = 0.18735E-01
  weight for this iteration     100.00

 eigenvalues of (default mixing * dielectric matrix)
  average eigenvalue GAMMA=   1.8945
  3.1695  2.5061  1.9886  1.0055  0.8028

 Free energy of the ion-electron system (eV)
  ---------------------------------------------------
  alpha Z        PSCENC =        12.54445055
  Ewald energy   TEWEN  =      2687.67881067
  -Hartree energ DENC   =     -3203.02535304
  -exchange      EXHF   =         0.00000000
  -V(xc)+E(xc)   XCENC  =        55.17928029
  PAW double counting   =      1684.06567343    -1686.78920639
  entropy T*S    EENTRO =        -0.00000000
  eigenvalues    EBANDS =      -175.20386312
  atomic energy  EATOM  =       588.61769381
  Solvation  Ediel_sol  =         0.00000000
  ---------------------------------------------------
  free energy    TOTEN  =       -36.93251381 eV

  energy without entropy =      -36.93251381  energy(sigma->0) =      -36.93251381


--------------------------------------------------------------------------------------------------------




--------------------------------------- Iteration      1(  11)  ---------------------------------------


    POTLOK:  cpu time    0.0720: real time    0.0723
    SETDIJ:  cpu time    0.0373: real time    0.0373
     EDDAV:  cpu time    1.6221: real time    1.6270
       DOS:  cpu time    0.0001: real time    0.0001
    CHARGE:  cpu time    0.1787: real time    0.1791
    MIXING:  cpu time    0.0046: real time    0.0046
    --------------------------------------------
      LOOP:  cpu time    1.9148: real time    1.9205

 eigenvalue-minimisations  :  1344
 total energy-change (2. order) : 0.1409092E-02  (-0.4517022E-04)
 number of electron      16.0000000 magnetization 
 augmentation part        0.3848751 magnetization 

 Broyden mixing:
  rms(total) = 0.52413E-02    rms(broyden)= 0.52412E-02
  rms(prec ) = 0.14649E-01
  weight for this iteration     100.00

 eigenvalues of (default mixing * dielectric matrix)
  average eigenvalue GAMMA=   2.1659
  4.2448  2.5120  2.1686  1.9824  0.9943  1.0932

 Free energy of the ion-electron system (eV)
  ---------------------------------------------------
  alpha Z        PSCENC =        12.54445055
  Ewald energy   TEWEN  =      2687.67881067
  -Hartree energ DENC   =     -3204.28856143
  -exchange      EXHF   =         0.00000000
  -V(xc)+E(xc)   XCENC  =        55.19000308
  PAW double counting   =      1700.59048450    -1703.31072276
  entropy T*S    EENTRO =        -0.00000000
  eigenvalues    EBANDS =      -173.95326313
  atomic energy  EATOM  =       588.61769381
  Solvation  Ediel_sol  =         0.00000000
  ---------------------------------------------------
  free energy    TOTEN  =       -36.93110472 eV

  energy without entropy =      -36.93110472  energy(sigma->0) =      -36.93110472


--------------------------------------------------------------------------------------------------------




--------------------------------------- Iteration      1(  12)  ---------------------------------------


    POTLOK:  cpu time    0.0687: real time    0.0691
    SETDIJ:  cpu time    0.0351: real time    0.0352
     EDDAV:  cpu time    1.4860: real time    1.4908
       DOS:  cpu time    0.0002: real time    0.0002
    CHARGE:  cpu time    0.1796: real time    0.1801
    MIXING:  cpu time    0.0032: real time    0.0032
    --------------------------------------------
      LOOP:  cpu time    1.7726: real time    1.7784

 eigenvalue-minimisations  :  1212
 total energy-change (2. order) : 0.3539693E-02  (-0.1778587E-03)
 number of electron      16.0000000 magnetization 
 augmentation part        0.3848327 magnetization 

 Broyden mixing:
  rms(total) = 0.36386E-02    rms(broyden)= 0.36386E-02
  rms(prec ) = 0.95842E-02
  weight for this iteration     100.00

 eigenvalues of (default mixing * dielectric matrix)
  average eigenvalue GAMMA=   2.4121
  6.1909  2.8121  2.2495  2.0661  1.5158  1.0009  1.0493

 Free energy of the ion-electron system (eV)
  ---------------------------------------------------
  alpha Z        PSCENC =        12.54445055
  Ewald energy   TEWEN  =      2687.67881067
  -Hartree energ DENC   =     -3207.49100242
  -exchange      EXHF   =         0.00000000
  -V(xc)+E(xc)   XCENC  =        55.18856846
  PAW double counting   =      1698.21103499    -1700.93493270
  entropy T*S    EENTRO =        -0.00000000
  eigenvalues    EBANDS =      -170.74218839
  atomic energy  EATOM  =       588.61769381
  Solvation  Ediel_sol  =         0.00000000
  ---------------------------------------------------
  free energy    TOTEN  =       -36.92756503 eV

  energy without entropy =      -36.92756503  energy(sigma->0) =      -36.92756503


--------------------------------------------------------------------------------------------------------




--------------------------------------- Iteration      1(  13)  ---------------------------------------


    POTLOK:  cpu time    0.0670: real time    0.0672
    SETDIJ:  cpu time    0.0348: real time    0.0349
     EDDAV:  cpu time    1.5252: real time    1.5298
       DOS:  cpu time    0.0002: real time    0.0002
    CHARGE:  cpu time    0.1773: real time    0.1778
    MIXING:  cpu time    0.0032: real time    0.0032
    --------------------------------------------
      LOOP:  cpu time    1.8077: real time    1.8131

 eigenvalue-minimisations  :  1276
 total energy-change (2. order) : 0.3895759E-03  (-0.2255534E-04)
 number of electron      16.0000000 magnetization 
 augmentation part        0.3847909 magnetization 

 Broyden mixing:
  rms(total) = 0.32594E-02    rms(broyden)= 0.32594E-02
  rms(prec ) = 0.73857E-02
  weight for this iteration     100.00

 eigenvalues of (default mixing * dielectric matrix)
  average eigenvalue GAMMA=   2.6377
  8.0655  3.3513  2.4805  2.0120  1.9714  1.2403  0.9902  0.9902

 Free energy of the ion-electron system (eV)
  ---------------------------------------------------
  alpha Z        PSCENC =        12.54445055
  Ewald energy   TEWEN  =      2687.67881067
  -Hartree energ DENC   =     -3209.24968786
  -exchange      EXHF   =         0.00000000
  -V(xc)+E(xc)   XCENC  =        55.18883611
  PAW double counting   =      1697.15323530    -1699.87702452
  entropy T*S    EENTRO =        -0.00000000
  eigenvalues    EBANDS =      -168.98348951
  atomic energy  EATOM  =       588.61769381
  Solvation  Ediel_sol  =         0.00000000
  ---------------------------------------------------
  free energy    TOTEN  =       -36.92717545 eV

  energy without entropy =      -36.92717545  energy(sigma->0) =      -36.92717545


--------------------------------------------------------------------------------------------------------




--------------------------------------- Iteration      1(  14)  ---------------------------------------


    POTLOK:  cpu time    0.0648: real time    0.0650
    SETDIJ:  cpu time    0.0350: real time    0.0351
     EDDAV:  cpu time    1.5142: real time    1.5191
       DOS:  cpu time    0.0002: real time    0.0002
    CHARGE:  cpu time    0.1741: real time    0.1745
    MIXING:  cpu time    0.0033: real time    0.0033
    --------------------------------------------
      LOOP:  cpu time    1.7915: real time    1.7971

 eigenvalue-minimisations  :  1264
 total energy-change (2. order) :-0.1375093E-02  (-0.5205117E-04)
 number of electron      16.0000000 magnetization 
 augmentation part        0.3847473 magnetization 

 Broyden mixing:
  rms(total) = 0.22871E-02    rms(broyden)= 0.22871E-02
  rms(prec ) = 0.37878E-02
  weight for this iteration     100.00

 eigenvalues of (default mixing * dielectric matrix)
  average eigenvalue GAMMA=   2.9451
 10.0185  4.4619  2.6721  2.6721  1.9595  1.5723  1.1683  0.9625  1.0191

 Free energy of the ion-electron system (eV)
  ---------------------------------------------------
  alpha Z        PSCENC =        12.54445055
  Ewald energy   TEWEN  =      2687.67881067
  -Hartree energ DENC   =     -3210.91335381
  -exchange      EXHF   =         0.00000000
  -V(xc)+E(xc)   XCENC  =        55.18656530
  PAW double counting   =      1698.29010922    -1701.01332123
  entropy T*S    EENTRO =        -0.00000000
  eigenvalues    EBANDS =      -167.31950505
  atomic energy  EATOM  =       588.61769381
  Solvation  Ediel_sol  =         0.00000000
  ---------------------------------------------------
  free energy    TOTEN  =       -36.92855055 eV

  energy without entropy =      -36.92855055  energy(sigma->0) =      -36.92855055


--------------------------------------------------------------------------------------------------------




--------------------------------------- Iteration      1(  15)  ---------------------------------------


    POTLOK:  cpu time    0.0646: real time    0.0648
    SETDIJ:  cpu time    0.0353: real time    0.0354
     EDDAV:  cpu time    1.6074: real time    1.6125
       DOS:  cpu time    0.0002: real time    0.0002
    CHARGE:  cpu time    0.1743: real time    0.1747
    MIXING:  cpu time    0.0034: real time    0.0034
    --------------------------------------------
      LOOP:  cpu time    1.8851: real time    1.8909

 eigenvalue-minimisations  :  1364
 total energy-change (2. order) :-0.7055837E-03  (-0.1025527E-04)
 number of electron      16.0000000 magnetization 
 augmentation part        0.3847137 magnetization 

 Broyden mixing:
  rms(total) = 0.24043E-02    rms(broyden)= 0.24043E-02
  rms(prec ) = 0.26134E-02
  weight for this iteration     100.00

 eigenvalues of (default mixing * dielectric matrix)
  average eigenvalue GAMMA=   3.6775
 16.6079  6.1101  3.0387  2.4879  2.0483  2.0483  1.4396  1.0200  1.0200  0.9548

 Free energy of the ion-electron system (eV)
  ---------------------------------------------------
  alpha Z        PSCENC =        12.54445055
  Ewald energy   TEWEN  =      2687.67881067
  -Hartree energ DENC   =     -3211.90533322
  -exchange      EXHF   =         0.00000000
  -V(xc)+E(xc)   XCENC  =        55.19078527
  PAW double counting   =      1692.98948461    -1695.71130680
  entropy T*S    EENTRO =        -0.00000000
  eigenvalues    EBANDS =      -166.33384102
  atomic energy  EATOM  =       588.61769381
  Solvation  Ediel_sol  =         0.00000000
  ---------------------------------------------------
  free energy    TOTEN  =       -36.92925613 eV

  energy without entropy =      -36.92925613  energy(sigma->0) =      -36.92925613


--------------------------------------------------------------------------------------------------------




--------------------------------------- Iteration      1(  16)  ---------------------------------------


    POTLOK:  cpu time    0.0652: real time    0.0655
    SETDIJ:  cpu time    0.0358: real time    0.0359
     EDDAV:  cpu time    1.5830: real time    1.5883
       DOS:  cpu time    0.0002: real time    0.0002
    CHARGE:  cpu time    0.1767: real time    0.1772
    MIXING:  cpu time    0.0035: real time    0.0036
    --------------------------------------------
      LOOP:  cpu time    1.8646: real time    1.8706

 eigenvalue-minimisations  :  1328
 total energy-change (2. order) :-0.2526491E-03  (-0.1442047E-05)
 number of electron      16.0000000 magnetization 
 augmentation part        0.3846992 magnetization 

 Broyden mixing:
  rms(total) = 0.43823E-03    rms(broyden)= 0.43822E-03
  rms(prec ) = 0.59126E-03
  weight for this iteration     100.00

 eigenvalues of (default mixing * dielectric matrix)
  average eigenvalue GAMMA=   4.1920
 22.6267  6.9873  3.4781  2.6797  2.4272  1.9837  1.7115  1.2136  0.9935  0.9935
  1.0175

 Free energy of the ion-electron system (eV)
  ---------------------------------------------------
  alpha Z        PSCENC =        12.54445055
  Ewald energy   TEWEN  =      2687.67881067
  -Hartree energ DENC   =     -3212.02248106
  -exchange      EXHF   =         0.00000000
  -V(xc)+E(xc)   XCENC  =        55.19135765
  PAW double counting   =      1695.62314923    -1698.34562496
  entropy T*S    EENTRO =        -0.00000000
  eigenvalues    EBANDS =      -166.21686466
  atomic energy  EATOM  =       588.61769381
  Solvation  Ediel_sol  =         0.00000000
  ---------------------------------------------------
  free energy    TOTEN  =       -36.92950878 eV

  energy without entropy =      -36.92950878  energy(sigma->0) =      -36.92950878


--------------------------------------------------------------------------------------------------------




--------------------------------------- Iteration      1(  17)  ---------------------------------------


    POTLOK:  cpu time    0.0650: real time    0.0652
    SETDIJ:  cpu time    0.0355: real time    0.0356
     EDDAV:  cpu time    1.5641: real time    1.5693
       DOS:  cpu time    0.0002: real time    0.0002
    CHARGE:  cpu time    0.1755: real time    0.1759
    MIXING:  cpu time    0.0036: real time    0.0036
    --------------------------------------------
      LOOP:  cpu time    1.8438: real time    1.8497

 eigenvalue-minimisations  :  1312
 total energy-change (2. order) :-0.9916074E-04  (-0.2463230E-06)
 number of electron      16.0000000 magnetization 
 augmentation part        0.3846959 magnetization 

 Broyden mixing:
  rms(total) = 0.36043E-03    rms(broyden)= 0.36043E-03
  rms(prec ) = 0.38901E-03
  weight for this iteration     100.00

 eigenvalues of (default mixing * dielectric matrix)
  average eigenvalue GAMMA=   4.1535
 23.7380  7.0225  3.5856  3.0514  2.4759  2.3115  1.9781  1.6208  1.0463  1.0463
  0.9829  0.9829

 Free energy of the ion-electron system (eV)
  ---------------------------------------------------
  alpha Z        PSCENC =        12.54445055
  Ewald energy   TEWEN  =      2687.67881067
  -Hartree energ DENC   =     -3212.04301190
  -exchange      EXHF   =         0.00000000
  -V(xc)+E(xc)   XCENC  =        55.19108077
  PAW double counting   =      1696.02640803    -1698.74924191
  entropy T*S    EENTRO =        -0.00000000
  eigenvalues    EBANDS =      -166.19579795
  atomic energy  EATOM  =       588.61769381
  Solvation  Ediel_sol  =         0.00000000
  ---------------------------------------------------
  free energy    TOTEN  =       -36.92960794 eV

  energy without entropy =      -36.92960794  energy(sigma->0) =      -36.92960794


--------------------------------------------------------------------------------------------------------




--------------------------------------- Iteration      1(  18)  ---------------------------------------


    POTLOK:  cpu time    0.0655: real time    0.0657
    SETDIJ:  cpu time    0.0350: real time    0.0351
     EDDAV:  cpu time    1.5689: real time    1.5738
       DOS:  cpu time    0.0002: real time    0.0002
    CHARGE:  cpu time    0.1749: real time    0.1754
    MIXING:  cpu time    0.0038: real time    0.0038
    --------------------------------------------
      LOOP:  cpu time    1.8483: real time    1.8539

 eigenvalue-minimisations  :  1316
 total energy-change (2. order) :-0.2295621E-04  (-0.1132979E-06)
 number of electron      16.0000000 magnetization 
 augmentation part        0.3846983 magnetization 

 Broyden mixing:
  rms(total) = 0.69498E-04    rms(broyden)= 0.69497E-04
  rms(prec ) = 0.76662E-04
  weight for this iteration     100.00

 eigenvalues of (default mixing * dielectric matrix)
  average eigenvalue GAMMA=   4.0607
 24.0768  7.1185  4.2344  3.0993  2.5504  2.5504  2.0157  1.6431  1.4842  0.9748
  1.0067  1.0067  1.0276

 Free energy of the ion-electron system (eV)
  ---------------------------------------------------
  alpha Z        PSCENC =        12.54445055
  Ewald energy   TEWEN  =      2687.67881067
  -Hartree energ DENC   =     -3212.04670852
  -exchange      EXHF   =         0.00000000
  -V(xc)+E(xc)   XCENC  =        55.19074055
  PAW double counting   =      1695.76435352    -1698.48703360
  entropy T*S    EENTRO =        -0.00000000
  eigenvalues    EBANDS =      -166.19193788
  atomic energy  EATOM  =       588.61769381
  Solvation  Ediel_sol  =         0.00000000
  ---------------------------------------------------
  free energy    TOTEN  =       -36.92963090 eV

  energy without entropy =      -36.92963090  energy(sigma->0) =      -36.92963090


--------------------------------------------------------------------------------------------------------




--------------------------------------- Iteration      1(  19)  ---------------------------------------


    POTLOK:  cpu time    0.0670: real time    0.0672
    SETDIJ:  cpu time    0.0359: real time    0.0360
     EDDAV:  cpu time    1.5926: real time    1.5975
       DOS:  cpu time    0.0002: real time    0.0002
    CHARGE:  cpu time    0.1757: real time    0.1762
    MIXING:  cpu time    0.0038: real time    0.0039
    --------------------------------------------
      LOOP:  cpu time    1.8753: real time    1.8809

 eigenvalue-minimisations  :  1336
 total energy-change (2. order) :-0.3153003E-05  (-0.8895731E-08)
 number of electron      16.0000000 magnetization 
 augmentation part        0.3846962 magnetization 

 Broyden mixing:
  rms(total) = 0.92764E-04    rms(broyden)= 0.92763E-04
  rms(prec ) = 0.93447E-04
  weight for this iteration     100.00

 eigenvalues of (default mixing * dielectric matrix)
  average eigenvalue GAMMA=   3.9116
 24.0951  7.1316  4.2813  3.1172  2.7402  2.3350  2.3350  1.9945  1.6543  1.0924
  1.0158  1.0158  0.9855  0.9688

 Free energy of the ion-electron system (eV)
  ---------------------------------------------------
  alpha Z        PSCENC =        12.54445055
  Ewald energy   TEWEN  =      2687.67881067
  -Hartree energ DENC   =     -3212.04834068
  -exchange      EXHF   =         0.00000000
  -V(xc)+E(xc)   XCENC  =        55.19085452
  PAW double counting   =      1695.60773622    -1698.33043634
  entropy T*S    EENTRO =        -0.00000000
  eigenvalues    EBANDS =      -166.19040279
  atomic energy  EATOM  =       588.61769381
  Solvation  Ediel_sol  =         0.00000000
  ---------------------------------------------------
  free energy    TOTEN  =       -36.92963405 eV

  energy without entropy =      -36.92963405  energy(sigma->0) =      -36.92963405


--------------------------------------------------------------------------------------------------------




--------------------------------------- Iteration      1(  20)  ---------------------------------------


    POTLOK:  cpu time    0.0676: real time    0.0678
    SETDIJ:  cpu time    0.0355: real time    0.0356
     EDDAV:  cpu time    1.3061: real time    1.3107
       DOS:  cpu time    0.0002: real time    0.0002
    CHARGE:  cpu time    0.1760: real time    0.1765
    MIXING:  cpu time    0.0040: real time    0.0040
    --------------------------------------------
      LOOP:  cpu time    1.5894: real time    1.5947

 eigenvalue-minimisations  :   988
 total energy-change (2. order) :-0.8532925E-07  (-0.7833945E-09)
 number of electron      16.0000000 magnetization 
 augmentation part        0.3846963 magnetization 

 Broyden mixing:
  rms(total) = 0.35804E-05    rms(broyden)= 0.35533E-05
  rms(prec ) = 0.40344E-05
  weight for this iteration     100.00

 eigenvalues of (default mixing * dielectric matrix)
  average eigenvalue GAMMA=   3.7657
 24.1084  7.1260  4.3564  3.1669  2.8247  2.4418  2.4418  2.0159  1.6337  1.3741
  1.0578  1.0075  1.0075  0.9616  0.9616

 Free energy of the ion-electron system (eV)
  ---------------------------------------------------
  alpha Z        PSCENC =        12.54445055
  Ewald energy   TEWEN  =      2687.67881067
  -Hartree energ DENC   =     -3212.04724536
  -exchange      EXHF   =         0.00000000
  -V(xc)+E(xc)   XCENC  =        55.19083808
  PAW double counting   =      1695.72146820    -1698.44415529
  entropy T*S    EENTRO =        -0.00000000
  eigenvalues    EBANDS =      -166.19149478
  atomic energy  EATOM  =       588.61769381
  Solvation  Ediel_sol  =         0.00000000
  ---------------------------------------------------
  free energy    TOTEN  =       -36.92963413 eV

  energy without entropy =      -36.92963413  energy(sigma->0) =      -36.92963413


--------------------------------------------------------------------------------------------------------




--------------------------------------- Iteration      1(  21)  ---------------------------------------


    POTLOK:  cpu time    0.0681: real time    0.0683
    SETDIJ:  cpu time    0.0352: real time    0.0353
     EDDAV:  cpu time    1.2350: real time    1.2394
       DOS:  cpu time    0.0002: real time    0.0002
    --------------------------------------------
      LOOP:  cpu time    1.3385: real time    1.3432

 eigenvalue-minimisations  :   900
 total energy-change (2. order) :-0.4626145E-08  (-0.9511080E-10)
 number of electron      16.0000000 magnetization 
 augmentation part        0.3846963 magnetization 

 Free energy of the ion-electron system (eV)
  ---------------------------------------------------
  alpha Z        PSCENC =        12.54445055
  Ewald energy   TEWEN  =      2687.67881067
  -Hartree energ DENC   =     -3212.04715672
  -exchange      EXHF   =         0.00000000
  -V(xc)+E(xc)   XCENC  =        55.19082935
  PAW double counting   =      1695.72085009    -1698.44353543
  entropy T*S    EENTRO =        -0.00000000
  eigenvalues    EBANDS =      -166.19157646
  atomic energy  EATOM  =       588.61769381
  Solvation  Ediel_sol  =         0.00000000
  ---------------------------------------------------
  free energy    TOTEN  =       -36.92963414 eV

  energy without entropy =      -36.92963414  energy(sigma->0) =      -36.92963414


--------------------------------------------------------------------------------------------------------




 average (electrostatic) potential at core
  the test charge radii are     0.6991
  (the norm of the test charge is              1.0000)
       1 -56.6478       2 -56.6478       3 -56.6478       4 -56.6478
 
 
 
 E-fermi :  -1.2441     XC(G=0):  -3.9944     alpha+bet : -3.8262


 k-point     1 :       0.0000    0.0000    0.0000
  band No.  band energies     occupation 
      1     -20.8083      2.00000
      2     -20.7821      2.00000
      3      -9.0443      2.00000
      4      -8.7345      2.00000
      5      -4.2491      2.00000
      6      -4.2491      2.00000
      7      -4.2473      2.00000
      8      -4.2472      2.00000
      9       2.0047      0.00000
     10       2.5054      0.00000
     11       3.2049      0.00000
     12       4.1648      0.00000

 k-point     2 :       0.0476    0.0000    0.0000
  band No.  band energies     occupation 
      1     -20.7545      2.00000
      2     -20.7283      2.00000
      3      -8.9795      2.00000
      4      -8.6705      2.00000
      5      -4.4701      2.00000
      6      -4.4680      2.00000
      7      -4.3660      2.00000
      8      -4.3641      2.00000
      9       2.0769      0.00000
     10       2.5787      0.00000
     11       3.2785      0.00000
     12       4.2359      0.00000

 k-point     3 :       0.0952    0.0000    0.0000
  band No.  band energies     occupation 
      1     -20.5930      2.00000
      2     -20.5672      2.00000
      3      -8.7856      2.00000
      4      -8.4790      2.00000
      5      -5.0903      2.00000
      6      -5.0875      2.00000
      7      -4.6858      2.00000
      8      -4.6838      2.00000
      9       2.2933      0.00000
     10       2.7984      0.00000
     11       3.4991      0.00000
     12       4.4492      0.00000

 k-point     4 :       0.1429    0.0000    0.0000
  band No.  band energies     occupation 
      1     -20.3244      2.00000
      2     -20.2992      2.00000
      3      -8.4642      2.00000
      4      -8.1617      2.00000
      5      -6.0102      2.00000
      6      -6.0063      2.00000
      7      -5.1376      2.00000
      8      -5.1353      2.00000
      9       2.6539      0.00000
     10       3.1643      0.00000
     11       3.8666      0.00000
     12       4.8035      0.00000

 k-point     5 :       0.1905    0.0000    0.0000
  band No.  band energies     occupation 
      1     -19.9499      2.00000
      2     -19.9254      2.00000
      3      -8.0184      2.00000
      4      -7.7220      2.00000
      5      -7.1235      2.00000
      6      -7.1182      2.00000
      7      -5.6464      2.00000
      8      -5.6439      2.00000
      9       3.1582      0.00000
     10       3.6753      0.00000
     11       4.3800      0.00000
     12       5.2945      0.00000

 k-point     6 :       0.2381    0.0000    0.0000
  band No.  band energies     occupation 
      1     -19.4709      2.00000
      2     -19.4472      2.00000
      3      -8.3439      2.00000
      4      -8.3371      2.00000
      5      -7.4535      2.00000
      6      -7.1651      2.00000
      7      -6.1535      2.00000
      8      -6.1508      2.00000
      9       3.8051      0.00000
     10       4.3280      0.00000
     11       5.0338      0.00000
     12       5.8636      0.00000

 k-point     7 :       0.2857    0.0000    0.0000
  band No.  band energies     occupation 
      1     -18.8896      2.00000
      2     -18.8670      2.00000
      3      -9.6087      2.00000
      4      -9.6003      2.00000
      5      -6.7783      2.00000
      6      -6.6179      2.00000
      7      -6.6151      2.00000
      8      -6.5007      2.00000
      9       4.5915      0.00000
     10       4.9521      0.00000
     11       4.9875      0.00000
     12       5.2979      0.00000

 k-point     8 :       0.3333    0.0000    0.0000
  band No.  band energies     occupation 
      1     -18.2095      2.00000
      2     -18.1881      2.00000
      3     -10.8731      2.00000
      4     -10.8631      2.00000
      5      -7.0129      2.00000
      6      -7.0099      2.00000
      7      -6.0091      2.00000
      8      -5.7454      2.00000
      9       3.6200      0.00000
     10       3.8103      0.00000
     11       5.5111      0.00000
     12       6.0855      0.00000

 k-point     9 :       0.3810    0.0000    0.0000
  band No.  band energies     occupation 
      1     -17.4369      2.00000
      2     -17.4168      2.00000
      3     -12.1037      2.00000
      4     -12.0921      2.00000
      5      -7.3211      2.00000
      6      -7.3180      2.00000
      7      -5.1792      2.00000
      8      -4.9338      2.00000
      9       2.3219      0.00000
     10       2.5442      0.00000
     11       6.3132      0.00000
     12       6.4109      0.00000

 k-point    10 :       0.4286    0.0000    0.0000
  band No.  band energies     occupation 
      1     -16.5867      2.00000
      2     -16.5680      2.00000
      3     -13.2678      2.00000
      4     -13.2546      2.00000
      5      -7.5317      2.00000
      6      -7.5286      2.00000
      7      -4.3682      2.00000
      8      -4.1464      2.00000
      9       1.1813      0.00000
     10       1.4364      0.00000
     11       6.2707      0.00000
     12       6.3125      0.00000

 k-point    11 :       0.4762    0.0000    0.0000
  band No.  band energies     occupation 
      1     -15.7414      2.00000
      2     -15.7238      2.00000
      3     -14.2726      2.00000
      4     -14.2582      2.00000
      5      -7.6385      2.00000
      6      -7.6353      2.00000
      7      -3.7835      2.00000
      8      -3.5859      2.00000
      9       0.4270      0.00000
     10       0.7110      0.00000
     11       6.2210      0.00000
     12       6.2592      0.00000

 k-point    12 :       0.0952    0.0476    0.0000
  band No.  band energies     occupation 
      1     -20.6468      2.00000
      2     -20.6209      2.00000
      3      -8.8501      2.00000
      4      -8.5427      2.00000
      5      -4.8753      2.00000
      6      -4.8728      2.00000
      7      -4.5999      2.00000
      8      -4.5978      2.00000
      9       2.2211      0.00000
     10       2.7252      0.00000
     11       3.4256      0.00000
     12       4.3782      0.00000

 k-point    13 :       0.1429    0.0476    0.0000
  band No.  band energies     occupation 
      1     -20.4318      2.00000
      2     -20.4063      2.00000
      3      -8.5924      2.00000
      4      -8.2883      2.00000
      5      -5.6125      2.00000
      6      -5.6092      2.00000
      7      -5.0191      2.00000
      8      -5.0167      2.00000
      9       2.5098      0.00000
     10       3.0180      0.00000
     11       3.7197      0.00000
     12       4.6621      0.00000

 k-point    14 :       0.1905    0.0476    0.0000
  band No.  band energies     occupation 
      1     -20.1102      2.00000
      2     -20.0854      2.00000
      3      -8.2087      2.00000
      4      -7.9097      2.00000
      5      -6.5992      2.00000
      6      -6.5946      2.00000
      7      -5.5301      2.00000
      8      -5.5275      2.00000
      9       2.9425      0.00000
     10       3.4567      0.00000
     11       4.1604      0.00000
     12       5.0860      0.00000

 k-point    15 :       0.2381    0.0476    0.0000
  band No.  band energies     occupation 
      1     -19.6835      2.00000
      2     -19.6594      2.00000
      3      -7.7448      2.00000
      4      -7.7387      2.00000
      5      -7.7030      2.00000
      6      -7.4110      2.00000
      7      -6.0601      2.00000
      8      -6.0572      2.00000
      9       3.5184      0.00000
     10       4.0395      0.00000
     11       4.7458      0.00000
     12       5.6390      0.00000

 k-point    16 :       0.2857    0.0476    0.0000
  band No.  band energies     occupation 
      1     -19.1533      2.00000
      2     -19.1302      2.00000
      3      -8.9734      2.00000
      4      -8.9659      2.00000
      5      -7.0821      2.00000
      6      -6.7995      2.00000
      7      -6.5601      2.00000
      8      -6.5569      2.00000
      9       4.2360      0.00000
     10       4.7556      0.00000
     11       5.4123      0.00000
     12       5.6363      0.00000

 k-point    17 :       0.3333    0.0476    0.0000
  band No.  band energies     occupation 
      1     -18.5225      2.00000
      2     -18.5006      2.00000
      3     -10.2294      2.00000
      4     -10.2203      2.00000
      5      -6.9985      2.00000
      6      -6.9952      2.00000
      7      -6.3578      2.00000
      8      -6.0873      2.00000
      9       4.2553      0.00000
     10       4.4219      0.00000
     11       5.0923      0.00000
     12       5.6643      0.00000

 k-point    18 :       0.3810    0.0476    0.0000
  band No.  band energies     occupation 
      1     -17.7958      2.00000
      2     -17.7751      2.00000
      3     -11.4721      2.00000
      4     -11.4613      2.00000
      5      -7.3552      2.00000
      6      -7.3518      2.00000
      7      -5.5527      2.00000
      8      -5.2982      2.00000
      9       2.9379      0.00000
     10       3.1388      0.00000
     11       6.0687      0.00000
     12       6.6113      0.00000

 k-point    19 :       0.4286    0.0476    0.0000
  band No.  band energies     occupation 
      1     -16.9822      2.00000
      2     -16.9629      2.00000
      3     -12.6685      2.00000
      4     -12.6562      2.00000
      5      -7.6175      2.00000
      6      -7.6140      2.00000
      7      -4.7169      2.00000
      8      -4.4832      2.00000
      9       1.7088      0.00000
     10       1.9420      0.00000
     11       6.5444      0.00000
     12       6.6007      0.00000

 k-point    20 :       0.4762    0.0476    0.0000
  band No.  band energies     occupation 
      1     -16.1124      2.00000
      2     -16.0944      2.00000
      3     -13.7734      2.00000
      4     -13.7595      2.00000
      5      -7.7777      2.00000
      6      -7.7742      2.00000
      7      -3.9785      2.00000
      8      -3.7701      2.00000
      9       0.7244      0.00000
     10       0.9902      0.00000
     11       6.4821      0.00000
     12       6.5234      0.00000

 k-point    21 :      -0.4762    0.0476    0.0000
  band No.  band energies     occupation 
      1     -15.4932      2.00000
      2     -15.4758      2.00000
      3     -14.4718      2.00000
      4     -14.4573      2.00000
      5      -7.8315      2.00000
      6      -7.8280      2.00000
      7      -3.6445      2.00000
      8      -3.4519      2.00000
      9       0.3069      0.00000
     10       0.5908      0.00000
     11       6.4566      0.00000
[...]
      7      -6.1687      2.00000
      8      -6.1653      2.00000
      9       3.3753      0.00000
     10       3.8949      0.00000
     11       4.6009      0.00000
     12       5.5088      0.00000

 k-point    24 :       0.2857    0.0952    0.0000
  band No.  band energies     occupation 
      1     -19.3121      2.00000
      2     -19.2887      2.00000
      3      -8.3990      2.00000
      4      -8.3923      2.00000
      5      -7.2658      2.00000
      6      -6.9801      2.00000
      7      -6.7459      2.00000
      8      -6.7421      2.00000
      9       4.0226      0.00000
     10       4.5484      0.00000
     11       5.2556      0.00000
     12       5.9777      0.00000

 k-point    25 :       0.3333    0.0952    0.0000
  band No.  band energies     occupation 
      1     -18.7324      2.00000
      2     -18.7101      2.00000
      3      -9.5875      2.00000
      4      -9.5793      2.00000
      5      -7.2519      2.00000
      6      -7.2477      2.00000
      7      -6.5931      2.00000
      8      -6.3182      2.00000
      9       4.7761      0.00000
     10       4.8142      0.00000
     11       4.9067      0.00000
     12       5.3796      0.00000

 k-point    26 :       0.3810    0.0952    0.0000
  band No.  band energies     occupation 
      1     -18.0546      2.00000
      2     -18.0335      2.00000
      3     -10.8041      2.00000
      4     -10.7943      2.00000
      5      -7.6701      2.00000
      6      -7.6658      2.00000
      7      -5.8263      2.00000
      8      -5.5652      2.00000
      9       3.4975      0.00000
     10       3.6682      0.00000
     11       5.7352      0.00000
     12       6.2993      0.00000

 k-point    27 :       0.4286    0.0952    0.0000
  band No.  band energies     occupation 
      1     -17.2850      2.00000
      2     -17.2653      2.00000
      3     -12.0041      2.00000
      4     -11.9928      2.00000
      5      -7.9910      2.00000
      6      -7.9865      2.00000
      7      -4.9972      2.00000
      8      -4.7541      2.00000
      9       2.2454      0.00000
     10       2.4475      0.00000
     11       6.7753      0.00000
     12       7.2879      0.00000

 k-point    28 :       0.4762    0.0952    0.0000
  band No.  band energies     occupation 
      1     -16.4394      2.00000
      2     -16.4210      2.00000
      3     -13.1482      2.00000
      4     -13.1353      2.00000
      5      -8.2081      2.00000
      6      -8.2036      2.00000
      7      -4.1825      2.00000
      8      -3.9625      2.00000
      9       1.1320      0.00000
     10       1.3665      0.00000
     11       7.1894      0.00000
     12       7.2459      0.00000

 k-point    29 :      -0.4762    0.0952    0.0000
  band No.  band energies     occupation 
      1     -15.6005      2.00000
      2     -15.5832      2.00000
      3     -14.1395      2.00000
      4     -14.1254      2.00000
      5      -8.3176      2.00000
      6      -8.3130      2.00000
      7      -3.5885      2.00000
      8      -3.3922      2.00000
      9       0.3836      0.00000
     10       0.6468      0.00000
     11       7.1463      0.00000
     12       7.1936      0.00000

 k-point    30 :       0.2857    0.1429    0.0000
  band No.  band energies     occupation 
      1     -19.3651      2.00000
      2     -19.3416      2.00000
      3      -8.1140      2.00000
      4      -8.1079      2.00000
      5      -7.3272      2.00000
      6      -7.0406      2.00000
      7      -6.9081      2.00000
      8      -6.9037      2.00000
      9       3.9515      0.00000
     10       4.4779      0.00000
     11       5.1866      0.00000
     12       6.0694      0.00000

 k-point    31 :       0.3333    0.1429    0.0000
  band No.  band energies     occupation 
      1     -18.8376      2.00000
      2     -18.8152      2.00000
      3      -9.0810      2.00000
      4      -9.0738      2.00000
      5      -7.5852      2.00000
      6      -7.5801      2.00000
      7      -6.7116      2.00000
      8      -6.4345      2.00000
      9       4.6692      0.00000
     10       5.0954      0.00000
     11       5.1684      0.00000
     12       5.2505      0.00000

 k-point    32 :       0.3810    0.1429    0.0000
  band No.  band energies     occupation 
      1     -18.2107      2.00000
      2     -18.1894      2.00000
      3     -10.1734      2.00000
      4     -10.1647      2.00000
      5      -8.1283      2.00000
      6      -8.1228      2.00000
      7      -5.9930      2.00000
      8      -5.7280      2.00000
      9       3.9094      0.00000
     10       4.0494      0.00000
     11       5.5260      0.00000
     12       6.0737      0.00000

 k-point    33 :       0.4286    0.1429    0.0000
  band No.  band energies     occupation 
      1     -17.4894      2.00000
      2     -17.4693      2.00000
      3     -11.3196      2.00000
      4     -11.3093      2.00000
      5      -8.5395      2.00000
      6      -8.5338      2.00000
      7      -5.1921      2.00000
      8      -4.9427      2.00000
      9       2.7055      0.00000
     10       2.8724      0.00000
     11       6.5166      0.00000
     12       7.0759      0.00000

 k-point    34 :       0.4762    0.1429    0.0000
  band No.  band energies     occupation 
      1     -16.6834      2.00000
      2     -16.6646      2.00000
      3     -12.4578      2.00000
      4     -12.4458      2.00000
      5      -8.8293      2.00000
      6      -8.8234      2.00000
      7      -4.3545      2.00000
      8      -4.1250      2.00000
      9       1.5570      0.00000
     10       1.7535      0.00000
     11       7.6240      0.00000
     12       8.1799      0.00000

 k-point    35 :      -0.4762    0.1429    0.0000
  band No.  band energies     occupation 
      1     -15.8245      2.00000
      2     -15.8071      2.00000
      3     -13.5260      2.00000
      4     -13.5126      2.00000
      5      -9.0023      2.00000
      6      -8.9964      2.00000
      7      -3.6010      2.00000
      8      -3.3957      2.00000
      9       0.6072      0.00000
     10       0.8343      0.00000
     11       8.1765      0.00000
     12       8.2488      0.00000

 k-point    36 :      -0.4286    0.1429    0.0000
  band No.  band energies     occupation 
      1     -15.2167      2.00000
      2     -15.1999      2.00000
      3     -14.2052      2.00000
      4     -14.1910      2.00000
      5      -9.0599      2.00000
      6      -9.0539      2.00000
      7      -3.2505      2.00000
      8      -3.0604      2.00000
      9       0.1894      0.00000
     10       0.4341      0.00000
     11       8.1583      0.00000
     12       8.2225      0.00000

 k-point    37 :       0.3810    0.1905    0.0000
  band No.  band energies     occupation 
      1     -18.2629      2.00000
      2     -18.2415      2.00000
      3      -9.8437      2.00000
      4      -9.8356      2.00000
      5      -8.4079      2.00000
      6      -8.4017      2.00000
      7      -6.0489      2.00000
      8      -5.7827      2.00000
      9       4.0651      0.00000
     10       4.1912      0.00000
     11       5.4556      0.00000
     12       5.9957      0.00000

 k-point    38 :       0.4286    0.1905    0.0000
  band No.  band energies     occupation 
      1     -17.5922      2.00000
      2     -17.5719      2.00000
      3     -10.7541      2.00000
      4     -10.7447      2.00000
      5      -9.0562      2.00000
      6      -9.0494      2.00000
      7      -5.2917      2.00000
      8      -5.0392      2.00000
      9       2.9803      0.00000
     10       3.1217      0.00000
     11       6.3776      0.00000
     12       6.9226      0.00000

 k-point    39 :       0.4762    0.1905    0.0000
  band No.  band energies     occupation 
      1     -16.8327      2.00000
      2     -16.8137      2.00000
      3     -11.7806      2.00000
      4     -11.7697      2.00000
      5      -9.4962      2.00000
      6      -9.4890      2.00000
      7      -4.4674      2.00000
      8      -4.2319      2.00000
      9       1.8878      0.00000
     10       2.0501      0.00000
     11       7.4274      0.00000
     12       7.9725      0.00000

 k-point    40 :      -0.4762    0.1905    0.0000
  band No.  band energies     occupation 
      1     -16.0012      2.00000
      2     -15.9836      2.00000
      3     -12.8297      2.00000
      4     -12.8173      2.00000
      5      -9.7676      2.00000
      6      -9.7601      2.00000
      7      -3.6412      2.00000
      8      -3.4268      2.00000
      9       0.8701      0.00000
     10       1.0575      0.00000
     11       8.5832      0.00000
     12       9.1117      0.00000

 k-point    41 :      -0.4286    0.1905    0.0000
  band No.  band energies     occupation 
      1     -15.1807      2.00000
      2     -15.1642      2.00000
      3     -13.7691      2.00000
      4     -13.7554      2.00000
      5      -9.8981      2.00000
      6      -9.8906      2.00000
      7      -3.0098      2.00000
      8      -2.8175      2.00000
      9       0.1386      0.00000
     10       0.3507      0.00000
     11       9.3699      0.00000
     12       9.4868      0.00000

 k-point    42 :       0.4762    0.2381    0.0000
  band No.  band energies     occupation 
      1     -16.8828      2.00000
      2     -16.8638      2.00000
      3     -11.4095      2.00000
      4     -11.3992      2.00000
      5      -9.8693      2.00000
      6      -9.8613      2.00000
      7      -4.5065      2.00000
      8      -4.2691      2.00000
      9       2.0147      0.00000
     10       2.1626      0.00000
     11       7.3580      0.00000
     12       7.8925      0.00000

 k-point    43 :      -0.4762    0.2381    0.0000
  band No.  band energies     occupation 
      1     -16.0941      2.00000
      2     -16.0764      2.00000
      3     -12.2243      2.00000
      4     -12.2129      2.00000
      5     -10.4174      2.00000
      6     -10.4087      2.00000
      7      -3.6712      2.00000
      8      -3.4517      2.00000
      9       1.0467      0.00000
     10       1.2072      0.00000
     11       8.4471      0.00000
     12       8.9402      0.00000

 k-point    44 :      -0.4286    0.2381    0.0000
  band No.  band energies     occupation 
      1     -15.2585      2.00000
      2     -15.2421      2.00000
      3     -13.1309      2.00000
      4     -13.1180      2.00000
      5     -10.7027      2.00000
      6     -10.6937      2.00000
      7      -2.8787      2.00000
      8      -2.6798      2.00000
      9       0.1717      0.00000
     10       0.3504      0.00000
     11       9.2743      0.00000
     12       9.6900      0.00000

 k-point    45 :      -0.3810    0.2381    0.0000
  band No.  band energies     occupation 
      1     -14.6649      2.00000
      2     -14.6492      2.00000
      3     -13.7578      2.00000
      4     -13.7442      2.00000
      5     -10.7899      2.00000
      6     -10.7809      2.00000
      7      -2.4681      2.00000
      8      -2.2833      2.00000
      9      -0.2671      0.00000
     10      -0.0749      0.00000
     11       9.3125      0.00000
     12      10.2830      0.00000

 k-point    46 :      -0.4286    0.2857    0.0000
  band No.  band energies     occupation 
      1     -15.2931      2.00000
      2     -15.2767      2.00000
      3     -12.7512      2.00000
      4     -12.7390      2.00000
      5     -11.1329      2.00000
      6     -11.1233      2.00000
      7      -2.8392      2.00000
      8      -2.6369      2.00000
      9       0.1977      0.00000
     10       0.3620      0.00000
     11       9.1068      0.00000
     12       9.6196      0.00000

 k-point    47 :      -0.3810    0.2857    0.0000
  band No.  band energies     occupation 
      1     -14.5010      2.00000
      2     -14.4858      2.00000
      3     -13.4157      2.00000
      4     -13.4024      2.00000
      5     -11.4880      2.00000
      6     -11.4780      2.00000
      7      -2.0929      2.00000
      8      -1.9075      2.00000
      9      -0.5531      0.00000
     10      -0.3789      0.00000
     11       9.0081      0.00000
     12      10.0476      0.00000

 k-point    48 :      -0.3333    0.3333    0.0000
  band No.  band energies     occupation 
      1     -13.8408      2.00000
      2     -13.8408      2.00000
      3     -13.8267      2.00000
      4     -13.8267      2.00000
      5     -11.8299      2.00000
      6     -11.8194      2.00000
      7      -1.3107      2.00000
      8      -1.3107      2.00000
      9      -1.1343      0.00000
     10      -1.1343      0.00000
     11       8.8824      0.00000
     12       9.9797      0.00000


--------------------------------------------------------------------------------------------------------


 soft charge-density along one line, spin component           1
         0         1         2         3         4         5         6         7         8         9
 total charge-density along one line
 
 pseudopotential strength for first ion, spin component:           1
 10.124  13.461  -0.000  -0.000   0.000   0.000   0.000  -0.000
 13.461  17.898  -0.000  -0.000   0.000   0.000   0.000  -0.000
 -0.000  -0.000  -4.266  -0.000  -0.000   8.344   0.000   0.000
 -0.000  -0.000  -0.000  -4.258  -0.000   0.000   8.334   0.000
  0.000   0.000  -0.000  -0.000  -4.266   0.000   0.000   8.344
  0.000   0.000   8.344   0.000   0.000 -18.452  -0.000  -0.000
  0.000   0.000   0.000   8.334   0.000  -0.000 -18.443  -0.000
 -0.000  -0.000   0.000   0.000   8.344  -0.000  -0.000 -18.452
 total augmentation occupancy for first ion, spin component:           1
  8.117  -3.602   0.000   0.000  -0.000  -0.000   0.000  -0.000
 -3.602   1.656   0.000   0.000   0.000  -0.000  -0.000   0.000
 -0.000   0.000   1.837  -0.000   0.000   0.173   0.000   0.000
  0.000   0.000   0.000   1.199  -0.000  -0.000   0.073   0.000
  0.000   0.000   0.000  -0.000   1.837   0.000   0.000   0.173
  0.000   0.000   0.173  -0.000   0.000   0.018  -0.000   0.000
  0.000  -0.000   0.000   0.073   0.000  -0.000   0.005  -0.000
  0.000   0.000   0.000   0.000   0.173   0.000   0.000   0.018


------------------------ aborting loop because EDIFF is reached ----------------------------------------


    CHARGE:  cpu time    0.1738: real time    0.1742
    FORLOC:  cpu time    0.0051: real time    0.0052
    FORNL :  cpu time    0.3521: real time    0.3530
    STRESS:  cpu time    1.4003: real time    1.4037
    FORCOR:  cpu time    0.0735: real time    0.0738
    FORHAR:  cpu time    0.0194: real time    0.0194
    MIXING:  cpu time    0.0042: real time    0.0042
    OFIELD:  cpu time    0.0000: real time    0.0000

  FORCE on cell =-STRESS in cart. coord.  units (eV):
  Direction    XX          YY          ZZ          XY          YZ          ZX
  --------------------------------------------------------------------------------------
  Alpha Z    12.54445    12.54445    12.54445
  Ewald    3226.82261  3226.82137 -3765.96565     0.00000     0.00000     0.00000
  Hartree  3189.50409  3189.50408 -3166.96105     0.00000    -0.00000    -0.00000
  E(xc)     -59.52504   -59.52504   -61.74719    -0.00000    -0.00000     0.00000
  Local   -6593.63651 -6593.63590  6721.22103    -0.00000     0.00000     0.00000
  n-local   -14.82474   -13.74990   -13.00922     0.71045    -0.00000    -0.00000
  augment    -1.57112    -1.57113    -1.44414     0.00000    -0.00000     0.00000
  Kinetic   245.07459   236.87299   275.35924    -6.59898     0.00000     0.00000
  Fock        0.00000     0.00000     0.00000     0.00000     0.00000     0.00000
  -------------------------------------------------------------------------------------
  Total       0.82462     0.82462    -0.00252     0.00000    -0.00000     0.00000
  in kB      12.60971    12.60971    -0.03858     0.00000    -0.00000     0.00000
  external pressure =        8.39 kB  Pullay stress =        0.00 kB


 VOLUME and BASIS-vectors are now :
 -----------------------------------------------------------------------------
  energy-cutoff  :      800.00
  volume of cell :      104.78
      direct lattice vectors                 reciprocal lattice vectors
     2.130000000 -1.229756000  0.000000000     0.234741784 -0.406584721  0.000000000
     2.130000000  1.229756000  0.000000000     0.234741784  0.406584721  0.000000000
     0.000000000  0.000000000 20.000000000     0.000000000  0.000000000  0.050000000

  length of vectors
     2.459512110  2.459512110 20.000000000     0.469483589  0.469483589  0.050000000


 FORCES acting on ions
    electron-ion (+dipol)            ewald-force                    non-local-force                 convergence-correction
 -----------------------------------------------------------------------------------------------
   -.879E-05 -.292E-12 0.326E+03   -.241E-03 0.715E-14 -.326E+03   -.144E-15 0.356E-16 -.464E-02   -.211E-10 0.953E-15 -.304E-04
   0.262E-03 -.374E-12 0.326E+03   0.241E-03 -.494E-14 -.326E+03   0.618E-16 -.989E-18 -.464E-02   0.322E-10 -.485E-15 -.304E-04
   -.879E-05 -.409E-12 -.326E+03   -.241E-03 0.722E-14 0.326E+03   -.505E-16 0.177E-16 0.464E-02   -.228E-10 0.162E-14 0.304E-04
   0.262E-03 0.771E-12 -.326E+03   0.241E-03 -.487E-14 0.326E+03   0.773E-16 -.540E-16 0.464E-02   0.306E-10 -.165E-15 0.304E-04
 -----------------------------------------------------------------------------------------------
   0.506E-03 -.304E-12 -.130E-03   0.858E-14 0.456E-14 0.000E+00   -.554E-16 -.177E-17 0.000E+00   0.189E-10 0.192E-14 -.556E-09
 
 
 POSITION                                       TOTAL-FORCE (eV/Angst)
 -----------------------------------------------------------------------------------
      0.00000      0.00000      0.00000        -0.000000     -0.000000     -0.005124
      1.42000      0.00000      0.00000        -0.000000      0.000000     -0.005124
      0.00000      0.00000      4.10000         0.000000     -0.000000      0.005124
      1.42000      0.00000      4.10000         0.000000      0.000000      0.005124
 -----------------------------------------------------------------------------------
    total drift:                                0.000506     -0.000000     -0.000130


--------------------------------------------------------------------------------------------------------



  FREE ENERGIE OF THE ION-ELECTRON SYSTEM (eV)
  ---------------------------------------------------
  free  energy   TOTEN  =       -36.92963414 eV

  energy  without entropy=      -36.92963414  energy(sigma->0) =      -36.92963414
 


--------------------------------------------------------------------------------------------------------


    POTLOK:  cpu time    0.1072: real time    0.1075


--------------------------------------------------------------------------------------------------------


     LOOP+:  cpu time   40.9467: real time   41.2483
    4ORBIT:  cpu time    0.0000: real time    0.0000

 total amount of memory used by VASP MPI-rank0   107376. kBytes
=======================================================================

   base      :      30000. kBytes
   nonl-proj :      16997. kBytes
   fftplans  :      32720. kBytes
   grid      :      15086. kBytes
   one-center:         12. kBytes
   wavefun   :      12561. kBytes
 
  
  
 General timing and accounting informations for this job:
 ========================================================
  
                  Total CPU time used (sec):       42.933
                            User time (sec):       42.150
                          System time (sec):        0.782
                         Elapsed time (sec):       43.626
  
                   Maximum memory used (kb):      179180.
                   Average memory used (kb):           0.
  
                          Minor page faults:       178774
                          Major page faults:            0
                 Voluntary context switches:         4139
