 vasp.5.4.4.18Apr17-6-g9f103f2a35 (build May 31 2018 21:15:54) complex          
  
 executed on          c7_intel_O1 date 2020.07.23  19:20:48
 running on    4 total cores
 distrk:  each k-point on    4 cores,    1 groups
 distr:  one band on NCORES_PER_BAND=   1 cores,    4 groups


--------------------------------------------------------------------------------------------------------


 INCAR:
 POTCAR:    PAW_PBE C 08Apr2002                   
 POTCAR:    PAW_PBE C 08Apr2002                   
   VRHFIN =C: s2p2                                                              
   LEXCH  = PE                                                                  
   EATOM  =   147.1560 eV,   10.8157 Ry                                         
                                                                                
   TITEL  = PAW_PBE C 08Apr2002                                                 
   LULTRA =        F    use ultrasoft PP ?                                      
   IUNSCR =        1    unscreen: 0-lin 1-nonlin 2-no                           
   RPACOR =    1.200    partial core radius                                     
   POMASS =   12.011; ZVAL   =    4.000    mass and valenz                      
   RCORE  =    1.500    outmost cutoff radius                                   
   RWIGS  =    1.630; RWIGS  =    0.863    wigner-seitz radius (au A)           
   ENMAX  =  400.000; ENMIN  =  300.000 eV                                      
   ICORE  =        2    local potential                                         
   LCOR   =        T    correct aug charges                                     
   LPAW   =        T    paw PP                                                  
   EAUG   =  644.873                                                            
   DEXC   =    0.000                                                            
   RMAX   =    1.529    core radius for proj-oper                               
   RAUG   =    1.300    factor for augmentation sphere                          
   RDEP   =    1.501    radius for radial grids                                 
   RDEPT  =    1.300    core radius for aug-charge                              
                                                                                
   Atomic configuration                                                         
    4 entries                                                                   
     n  l   j            E        occ.                                          
     1  0  0.50      -273.3789   2.0000                                         
     2  0  0.50       -13.7508   2.0000                                         
     2  1  0.50        -5.2854   2.0000                                         
     3  2  1.50        -5.4423   0.0000                                         
   Description                                                                  
     l       E           TYP  RCUT    TYP  RCUT                                 
     0    -13.7508458     23  1.200                                             
     0     -8.2022199     23  1.200                                             
     1     -5.2854383     23  1.500                                             
     1     34.0145650     23  1.500                                             
     2     -5.4423304      7  1.500                                             
  local pseudopotential read in
  partial core-charges read in
  partial kinetic energy density read in
  atomic valenz-charges read in
  non local Contribution for L=           0  read in
    real space projection operators read in
  non local Contribution for L=           0  read in
    real space projection operators read in
  non local Contribution for L=           1  read in
    real space projection operators read in
  non local Contribution for L=           1  read in
    real space projection operators read in
    PAW grid and wavefunctions read in
 
   number of l-projection  operators is LMAX  =           4
   number of lm-projection operators is LMMAX =           8
 
  PAW_PBE C 08Apr2002                   :
 energy of atom  1       EATOM= -147.1560
 kinetic energy error for atom=    0.0016 (will be added to EATOM!!)
 
 
 POSCAR: C2_bilayer                              
  positions in direct lattice
  No initial velocities read in
 exchange correlation table for  LEXCH =        8
   RHO(1)=    0.500       N(1)  =     2000
   RHO(2)=  100.500       N(2)  =     4000
 


--------------------------------------------------------------------------------------------------------


 ion  position               nearest neighbor table
   1  0.000  0.000  0.000-   2 1.42   2 1.42   2 1.42
   2  0.333  0.333  0.000-   1 1.42   1 1.42   1 1.42
   3  0.000  0.000  0.215-   4 1.42   4 1.42   4 1.42
   4  0.333  0.333  0.215-   3 1.42   3 1.42   3 1.42
 
  LATTYP: Found a hexagonal cell.
 ALAT       =     2.4595120000
 C/A-ratio  =     8.1316944174
  
  Lattice vectors:
  
 A1 = (   0.0000000000,  -2.4595120000,   0.0000000000)
 A2 = (  -2.1300000000,   1.2297560000,   0.0000000000)
 A3 = (   0.0000000000,   0.0000000000, -20.0000000000)


Analysis of symmetry for initial positions (statically):
=====================================================================
 Subroutine PRICEL returns:
 Original cell was already a primitive cell.
 

 Routine SETGRP: Setting up the symmetry group for a 
 hexagonal supercell.


 Subroutine GETGRP returns: Found 24 space group operations
 (whereof  6 operations were pure point group operations)
 out of a pool of 24 trial point group operations.


The static configuration has the point symmetry C_3v.
 The point group associated with its full space group is D_6h.


Analysis of symmetry for dynamics (positions and initial velocities):
=====================================================================
 Subroutine PRICEL returns:
 Original cell was already a primitive cell.
 

 Routine SETGRP: Setting up the symmetry group for a 
 hexagonal supercell.


 Subroutine GETGRP returns: Found 24 space group operations
 (whereof  6 operations were pure point group operations)
 out of a pool of 24 trial point group operations.


The dynamic configuration has the point symmetry C_3v.
 The point group associated with its full space group is D_6h.


 Subroutine INISYM returns: Found 24 space group operations
 (whereof  6 operations are pure point group operations),
 and found     1 'primitive' translations

 
 
 KPOINTS: k grid                                  

Automatic generation of k-mesh.
Space group operators:
 irot       det(A)        alpha          n_x          n_y          n_z        tau_x        tau_y        tau_z
    1     1.000000     0.000000     1.000000     0.000000     0.000000     0.000000     0.000000     0.000000
    2     1.000000   120.000000     0.000000     0.000000     1.000000     0.000000     0.000000     0.000000
    3     1.000000   120.000000     0.000000     0.000000    -1.000000     0.000000     0.000000     0.000000
    4    -1.000000   180.000000    -0.000000     1.000000     0.000000     0.000000     0.000000     0.000000
    5    -1.000000   180.000000     0.866025    -0.500000     0.000000     0.000000     0.000000     0.000000
    6    -1.000000   180.000000     0.866025     0.500000     0.000000     0.000000     0.000000     0.000000
    7    -1.000000     0.000000     1.000000     0.000000     0.000000     0.333333    -0.666667    -0.785000
    8     1.000000    60.000000     0.000000     0.000000     1.000000     0.333333    -0.666667     0.000000
    9    -1.000000    60.000000     0.000000     0.000000     1.000000    -0.000001    -0.000000    -0.785000
   10    -1.000000   120.000000     0.000000     0.000000     1.000000     0.333333    -0.666667    -0.785000
   11     1.000000   180.000000     0.000000     0.000000     1.000000     0.333333    -0.666667     0.000000
   12    -1.000000   180.000000     0.000000     0.000000     1.000000     0.000000     0.000000    -0.785000
   13    -1.000000   120.000000     0.000000     0.000000    -1.000000     0.333333    -0.666667    -0.785000
   14     1.000000    60.000000     0.000000     0.000000    -1.000000     0.333333    -0.666667     0.000000
   15    -1.000000    60.000000     0.000000     0.000000    -1.000000    -0.000000    -0.000001    -0.785000
   16     1.000000   180.000000    -0.000000     1.000000     0.000000     0.333333    -0.666667    -0.785000
   17     1.000000   180.000000     0.500000    -0.866025     0.000000    -0.000000    -0.000001    -0.785000
   18    -1.000000   180.000000     0.500000    -0.866025     0.000000     0.333333    -0.666667     0.000000
   19     1.000000   180.000000     0.866025    -0.500000     0.000000     0.333333    -0.666667    -0.785000
   20     1.000000   180.000000     1.000000     0.000000     0.000000     0.000000     0.000000    -0.785000
   21    -1.000000   180.000000     1.000000     0.000000     0.000000     0.333333    -0.666667     0.000000
   22     1.000000   180.000000     0.866025     0.500000     0.000000     0.333333    -0.666667    -0.785000
   23     1.000000   180.000000    -0.500000    -0.866025     0.000000    -0.000001    -0.000000    -0.785000
   24    -1.000000   180.000000    -0.500000    -0.866025     0.000000     0.333333    -0.666667     0.000000
 
 Subroutine IBZKPT returns following result:
 ===========================================
 
 Found     48 irreducible k-points:
 
 Following reciprocal coordinates:
            Coordinates               Weight
  0.000000  0.000000  0.000000      1.000000
  0.047619  0.000000  0.000000      6.000000
  0.095238  0.000000  0.000000      6.000000
  0.142857  0.000000  0.000000      6.000000
  0.190476  0.000000  0.000000      6.000000
  0.238095  0.000000  0.000000      6.000000
  0.285714  0.000000  0.000000      6.000000
  0.333333  0.000000  0.000000      6.000000
  0.380952  0.000000  0.000000      6.000000
  0.428571  0.000000  0.000000      6.000000
  0.476190  0.000000  0.000000      6.000000
  0.095238  0.047619  0.000000      6.000000
  0.142857  0.047619  0.000000     12.000000
  0.190476  0.047619  0.000000     12.000000
  0.238095  0.047619  0.000000     12.000000
  0.285714  0.047619  0.000000     12.000000
  0.333333  0.047619  0.000000     12.000000
  0.380952  0.047619  0.000000     12.000000
  0.428571  0.047619  0.000000     12.000000
  0.476190  0.047619  0.000000     12.000000
 -0.476190  0.047619  0.000000      6.000000
  0.190476  0.095238  0.000000      6.000000
  0.238095  0.095238  0.000000     12.000000
  0.285714  0.095238  0.000000     12.000000
  0.333333  0.095238  0.000000     12.000000
  0.380952  0.095238  0.000000     12.000000
  0.428571  0.095238  0.000000     12.000000
  0.476190  0.095238  0.000000     12.000000
 -0.476190  0.095238  0.000000     12.000000
  0.285714  0.142857  0.000000      6.000000
  0.333333  0.142857  0.000000     12.000000
  0.380952  0.142857  0.000000     12.000000
  0.428571  0.142857  0.000000     12.000000
  0.476190  0.142857  0.000000     12.000000
 -0.476190  0.142857  0.000000     12.000000
 -0.428571  0.142857  0.000000      6.000000
  0.380952  0.190476  0.000000      6.000000
  0.428571  0.190476  0.000000     12.000000
  0.476190  0.190476  0.000000     12.000000
 -0.476190  0.190476  0.000000     12.000000
 -0.428571  0.190476  0.000000     12.000000
  0.476190  0.238095  0.000000      6.000000
 -0.476190  0.238095  0.000000     12.000000
 -0.428571  0.238095  0.000000     12.000000
 -0.380952  0.238095  0.000000      6.000000
 -0.428571  0.285714  0.000000      6.000000
 -0.380952  0.285714  0.000000     12.000000
 -0.333333  0.333333  0.000000      2.000000
 
 Following cartesian coordinates:
            Coordinates               Weight
  0.000000  0.000000  0.000000      1.000000
  0.011178 -0.019361  0.000000      6.000000
  0.022356 -0.038722  0.000000      6.000000
  0.033535 -0.058084  0.000000      6.000000
  0.044713 -0.077445  0.000000      6.000000
  0.055891 -0.096806  0.000000      6.000000
  0.067069 -0.116167  0.000000      6.000000
  0.078247 -0.135528  0.000000      6.000000
  0.089425 -0.154889  0.000000      6.000000
  0.100604 -0.174251  0.000000      6.000000
  0.111782 -0.193612  0.000000      6.000000
  0.033535 -0.019361  0.000000      6.000000
  0.044713 -0.038722  0.000000     12.000000
  0.055891 -0.058084  0.000000     12.000000
  0.067069 -0.077445  0.000000     12.000000
  0.078247 -0.096806  0.000000     12.000000
  0.089425 -0.116167  0.000000     12.000000
  0.100604 -0.135528  0.000000     12.000000
  0.111782 -0.154889  0.000000     12.000000
  0.122960 -0.174251  0.000000     12.000000
 -0.100604  0.212973  0.000000      6.000000
  0.067069 -0.038722  0.000000      6.000000
  0.078247 -0.058084  0.000000     12.000000
  0.089425 -0.077445  0.000000     12.000000
  0.100604 -0.096806  0.000000     12.000000
  0.111782 -0.116167  0.000000     12.000000
  0.122960 -0.135528  0.000000     12.000000
  0.134138 -0.154889  0.000000     12.000000
 -0.089425  0.232334  0.000000     12.000000
  0.100604 -0.058084  0.000000      6.000000
  0.111782 -0.077445  0.000000     12.000000
  0.122960 -0.096806  0.000000     12.000000
  0.134138 -0.116167  0.000000     12.000000
  0.145316 -0.135528  0.000000     12.000000
 -0.078247  0.251695  0.000000     12.000000
 -0.067069  0.232334  0.000000      6.000000
  0.134138 -0.077445  0.000000      6.000000
  0.145316 -0.096806  0.000000     12.000000
  0.156495 -0.116167  0.000000     12.000000
 -0.067069  0.271056  0.000000     12.000000
 -0.055891  0.251695  0.000000     12.000000
  0.167673 -0.096806  0.000000      6.000000
 -0.055891  0.290418  0.000000     12.000000
 -0.044713  0.271056  0.000000     12.000000
 -0.033535  0.251695  0.000000      6.000000
 -0.033535  0.290418  0.000000      6.000000
 -0.022356  0.271056  0.000000     12.000000
  0.000000  0.271056  0.000000      2.000000
 


--------------------------------------------------------------------------------------------------------




 Dimension of arrays:
   k-points           NKPTS =     48   k-points in BZ     NKDIM =     48   number of bands    NBANDS=     12
   number of dos      NEDOS =    301   number of ions     NIONS =      4
   non local maximal  LDIM  =      4   non local SUM 2l+1 LMDIM =      8
   total plane-waves  NPLWV = 110592
   max r-space proj   IRMAX =      1   max aug-charges    IRDMAX=  99836
   dimension x,y,z NGX =    24 NGY =   24 NGZ =  192
   dimension x,y,z NGXF=    48 NGYF=   48 NGZF=  384
   support grid    NGXF=    96 NGYF=   96 NGZF=  768
   ions per type =               4
   NGX,Y,Z   is equivalent  to a cutoff of  16.22, 16.22, 15.96 a.u.
   NGXF,Y,Z  is equivalent  to a cutoff of  32.44, 32.44, 31.92 a.u.

 SYSTEM =  C:graphene                              
 POSCAR =  C2_bilayer                              

 Startparameter for this run:
   NWRITE =      2    write-flag & timer
   PREC   = accura    normal or accurate (medium, high low for compatibility)
   ISTART =      0    job   : 0-new  1-cont  2-samecut
   ICHARG =      2    charge: 1-file 2-atom 10-const
   ISPIN  =      1    spin polarized calculation?
   LNONCOLLINEAR =      F non collinear calculations
   LSORBIT =      F    spin-orbit coupling
   INIWAV =      1    electr: 0-lowe 1-rand  2-diag
   LASPH  =      F    aspherical Exc in radial PAW
   METAGGA=      F    non-selfconsistent MetaGGA calc.

 Electronic Relaxation 1
   ENCUT  =  800.0 eV  58.80 Ry    7.67 a.u.   5.67  5.67 46.12*2*pi/ulx,y,z
   ENINI  =  800.0     initial cutoff
   ENAUG  =  644.9 eV  augmentation charge cutoff
   NELM   =     60;   NELMIN=  5; NELMDL= -5     # of ELM steps 
   EDIFF  = 0.1E-07   stopping-criterion for ELM
   LREAL  =      F    real-space projection
   NLSPLINE    = F    spline interpolate recip. space projectors
   LCOMPAT=      F    compatible to vasp.4.4
   GGA_COMPAT  = T    GGA compatible to vasp.4.4-vasp.4.6
   LMAXPAW     = -100 max onsite density
   LMAXMIX     =    2 max onsite mixed and CHGCAR
   VOSKOWN=      0    Vosko Wilk Nusair interpolation
   ROPT   =    0.00000
 Ionic relaxation
   EDIFFG = 0.1E-06   stopping-criterion for IOM
   NSW    =      1    number of steps for IOM
   NBLOCK =      1;   KBLOCK =      1    inner block; outer block 
   IBRION =     -1    ionic relax: 0-MD 1-quasi-New 2-CG
   NFREE  =      0    steps in history (QN), initial steepest desc. (CG)
   ISIF   =      2    stress and relaxation
   IWAVPR =     10    prediction:  0-non 1-charg 2-wave 3-comb
   ISYM   =      2    0-nonsym 1-usesym 2-fastsym
   LCORR  =      T    Harris-Foulkes like correction to forces

   POTIM  = 0.5000    time-step for ionic-motion
   TEIN   =    0.0    initial temperature
   TEBEG  =    0.0;   TEEND  =   0.0 temperature during run
   SMASS  =  -3.00    Nose mass-parameter (am)
   estimated Nose-frequenzy (Omega)   =  0.10E-29 period in steps =****** mass=  -0.138E-27a.u.
   SCALEE = 1.0000    scale energy and forces
   NPACO  =    256;   APACO  = 16.0  distance and # of slots for P.C.
   PSTRESS=    0.0 pullay stress

  Mass of Ions in am
   POMASS =  12.01
  Ionic Valenz
   ZVAL   =   4.00
  Atomic Wigner-Seitz radii
   RWIGS  =  -1.00
  virtual crystal weights 
   VCA    =   1.00
   NELECT =      16.0000    total number of electrons
   NUPDOWN=      -1.0000    fix difference up-down

 DOS related values:
   EMIN   =  10.00;   EMAX   =-10.00  energy-range for DOS
   EFERMI =   0.00
   ISMEAR =     0;   SIGMA  =   0.01  broadening in eV -4-tet -1-fermi 0-gaus

 Electronic relaxation 2 (details)
   IALGO  =     38    algorithm
   LDIAG  =      T    sub-space diagonalisation (order eigenvalues)
   LSUBROT=      F    optimize rotation matrix (better conditioning)
   TURBO    =      0    0=normal 1=particle mesh
   IRESTART =      0    0=no restart 2=restart with 2 vectors
   NREBOOT  =      0    no. of reboots
   NMIN     =      0    reboot dimension
   EREF     =   0.00    reference energy to select bands
   IMIX   =      4    mixing-type and parameters
     AMIX     =   0.40;   BMIX     =  1.00
     AMIX_MAG =   1.60;   BMIX_MAG =  1.00
     AMIN     =   0.01
     WC   =   100.;   INIMIX=   1;  MIXPRE=   1;  MAXMIX= -45

 Intra band minimization:
   WEIMIN = 0.0000     energy-eigenvalue tresh-hold
   EBREAK =  0.21E-09  absolut break condition
   DEPER  =   0.30     relativ break condition  

   TIME   =   0.40     timestep for ELM

  volume/ion in A,a.u.               =      26.19       176.76
  Fermi-wavevector in a.u.,A,eV,Ry     =   0.875041  1.653589 10.417948  0.765698
  Thomas-Fermi vector in A             =   1.994657
 
 Write flags
   LWAVE        =      F    write WAVECAR
   LDOWNSAMPLE  =      F    k-point downsampling of WAVECAR
   LCHARG       =      T    write CHGCAR
   LVTOT        =      F    write LOCPOT, total local potential
   LVHAR        =      F    write LOCPOT, Hartree potential only
   LELF         =      F    write electronic localiz. function (ELF)
   LORBIT       =      0    0 simple, 1 ext, 2 COOP (PROOUT), +10 PAW based schemes


 Dipole corrections
   LMONO  =      F    monopole corrections only (constant potential shift)
   LDIPOL =      F    correct potential (dipole corrections)
   IDIPOL =      0    1-x, 2-y, 3-z, 4-all directions 
   EPSILON=  1.0000000 bulk dielectric constant

 Exchange correlation treatment:
   GGA     =    --    GGA type
   LEXCH   =     8    internal setting for exchange type
   VOSKOWN=      0    Vosko Wilk Nusair interpolation
   LHFCALC =     F    Hartree Fock is set to
   LHFONE  =     F    Hartree Fock one center treatment
   AEXX    =    0.0000 exact exchange contribution

 Linear response parameters
   LEPSILON=     F    determine dielectric tensor
   LRPA    =     F    only Hartree local field effects (RPA)
   LNABLA  =     F    use nabla operator in PAW spheres
   LVEL    =     F    velocity operator in full k-point grid
   LINTERFAST=   F  fast interpolation
   KINTER  =     0    interpolate to denser k-point grid
   CSHIFT  =0.1000    complex shift for real part using Kramers Kronig
   OMEGAMAX=  -1.0    maximum frequency
   DEG_THRESHOLD= 0.2000000E-02 threshold for treating states as degnerate
   RTIME   =   -0.100 relaxation time in fs
  (WPLASMAI=    0.000 imaginary part of plasma frequency in eV, 0.658/RTIME)
   DFIELD  = 0.0000000 0.0000000 0.0000000 field for delta impulse in time
 
 Orbital magnetization related:
   ORBITALMAG=     F  switch on orbital magnetization
   LCHIMAG   =     F  perturbation theory with respect to B field
   DQ        =  0.001000  dq finite difference perturbation B field
   LLRAUG    =     F  two centre corrections for induced B field



--------------------------------------------------------------------------------------------------------


 Static calculation
 charge density and potential will be updated during run
 non-spin polarized calculation
 Variant of blocked Davidson
 Davidson routine will perform the subspace rotation
 perform sub-space diagonalisation
    after iterative eigenvector-optimisation
 modified Broyden-mixing scheme, WC =      100.0
 initial mixing is a Kerker type mixing with AMIX =  0.4000 and BMIX =      1.0000
 Hartree-type preconditioning will be used
 using additional bands            4
 reciprocal scheme for non local part
 use partial core corrections
 calculate Harris-corrections to forces 
   (improved forces if not selfconsistent)
 use gradient corrections 
 use of overlap-Matrix (Vanderbilt PP)
 Gauss-broadening in eV      SIGMA  =   0.01


--------------------------------------------------------------------------------------------------------


  energy-cutoff  :      800.00
  volume of cell :      104.78
      direct lattice vectors                 reciprocal lattice vectors
     2.130000000 -1.229756000  0.000000000     0.234741784 -0.406584721  0.000000000
     2.130000000  1.229756000  0.000000000     0.234741784  0.406584721  0.000000000
     0.000000000  0.000000000 20.000000000     0.000000000  0.000000000  0.050000000

  length of vectors
     2.459512110  2.459512110 20.000000000     0.469483589  0.469483589  0.050000000


 
 k-points in units of 2pi/SCALE and weight: k grid                                  
   0.00000000  0.00000000  0.00000000       0.002
   0.01117818 -0.01936118  0.00000000       0.014
   0.02235636 -0.03872235  0.00000000       0.014
   0.03353454 -0.05808353  0.00000000       0.014
   0.04471272 -0.07744471  0.00000000       0.014
   0.05589090 -0.09680589  0.00000000       0.014
   0.06706908 -0.11616706  0.00000000       0.014
   0.07824726 -0.13552824  0.00000000       0.014
   0.08942544 -0.15488942  0.00000000       0.014
   0.10060362 -0.17425059  0.00000000       0.014
   0.11178180 -0.19361177  0.00000000       0.014
   0.03353454 -0.01936118  0.00000000       0.014
   0.04471272 -0.03872235  0.00000000       0.027
   0.05589090 -0.05808353  0.00000000       0.027
   0.06706908 -0.07744471  0.00000000       0.027
   0.07824726 -0.09680589  0.00000000       0.027
   0.08942544 -0.11616706  0.00000000       0.027
   0.10060362 -0.13552824  0.00000000       0.027
   0.11178180 -0.15488942  0.00000000       0.027
   0.12295998 -0.17425059  0.00000000       0.027
  -0.10060362  0.21297295  0.00000000       0.014
   0.06706908 -0.03872235  0.00000000       0.014
   0.07824726 -0.05808353  0.00000000       0.027
   0.08942544 -0.07744471  0.00000000       0.027
   0.10060362 -0.09680589  0.00000000       0.027
   0.11178180 -0.11616706  0.00000000       0.027
   0.12295998 -0.13552824  0.00000000       0.027
   0.13413816 -0.15488942  0.00000000       0.027
  -0.08942544  0.23233413  0.00000000       0.027
   0.10060362 -0.05808353  0.00000000       0.014
   0.11178180 -0.07744471  0.00000000       0.027
   0.12295998 -0.09680589  0.00000000       0.027
   0.13413816 -0.11616706  0.00000000       0.027
   0.14531634 -0.13552824  0.00000000       0.027
  -0.07824726  0.25169530  0.00000000       0.027
  -0.06706908  0.23233413  0.00000000       0.014
   0.13413816 -0.07744471  0.00000000       0.014
   0.14531634 -0.09680589  0.00000000       0.027
   0.15649452 -0.11616706  0.00000000       0.027
  -0.06706908  0.27105648  0.00000000       0.027
  -0.05589090  0.25169530  0.00000000       0.027
   0.16767270 -0.09680589  0.00000000       0.014
  -0.05589090  0.29041766  0.00000000       0.027
  -0.04471272  0.27105648  0.00000000       0.027
  -0.03353454  0.25169530  0.00000000       0.014
  -0.03353454  0.29041766  0.00000000       0.014
  -0.02235636  0.27105648  0.00000000       0.027
   0.00000000  0.27105648  0.00000000       0.005
 
 k-points in reciprocal lattice and weights: k grid                                  
   0.00000000  0.00000000  0.00000000       0.002
   0.04761905  0.00000000  0.00000000       0.014
   0.09523810  0.00000000  0.00000000       0.014
   0.14285714  0.00000000  0.00000000       0.014
   0.19047619  0.00000000  0.00000000       0.014
   0.23809524  0.00000000  0.00000000       0.014
   0.28571429  0.00000000  0.00000000       0.014
   0.33333333  0.00000000  0.00000000       0.014
   0.38095238  0.00000000  0.00000000       0.014
   0.42857143  0.00000000  0.00000000       0.014
   0.47619048  0.00000000  0.00000000       0.014
   0.09523810  0.04761905  0.00000000       0.014
   0.14285714  0.04761905  0.00000000       0.027
   0.19047619  0.04761905  0.00000000       0.027
   0.23809524  0.04761905  0.00000000       0.027
   0.28571429  0.04761905  0.00000000       0.027
   0.33333333  0.04761905  0.00000000       0.027
   0.38095238  0.04761905  0.00000000       0.027
   0.42857143  0.04761905  0.00000000       0.027
   0.47619048  0.04761905  0.00000000       0.027
  -0.47619048  0.04761905  0.00000000       0.014
   0.19047619  0.09523810  0.00000000       0.014
   0.23809524  0.09523810  0.00000000       0.027
   0.28571429  0.09523810  0.00000000       0.027
   0.33333333  0.09523810  0.00000000       0.027
   0.38095238  0.09523810  0.00000000       0.027
   0.42857143  0.09523810  0.00000000       0.027
   0.47619048  0.09523810  0.00000000       0.027
  -0.47619048  0.09523810  0.00000000       0.027
   0.28571429  0.14285714  0.00000000       0.014
   0.33333333  0.14285714  0.00000000       0.027
   0.38095238  0.14285714  0.00000000       0.027
   0.42857143  0.14285714  0.00000000       0.027
   0.47619048  0.14285714  0.00000000       0.027
  -0.47619048  0.14285714  0.00000000       0.027
  -0.42857143  0.14285714  0.00000000       0.014
   0.38095238  0.19047619  0.00000000       0.014
   0.42857143  0.19047619  0.00000000       0.027
   0.47619048  0.19047619  0.00000000       0.027
  -0.47619048  0.19047619  0.00000000       0.027
  -0.42857143  0.19047619  0.00000000       0.027
   0.47619048  0.23809524  0.00000000       0.014
  -0.47619048  0.23809524  0.00000000       0.027
  -0.42857143  0.23809524  0.00000000       0.027
  -0.38095238  0.23809524  0.00000000       0.014
  -0.42857143  0.28571429  0.00000000       0.014
  -0.38095238  0.28571429  0.00000000       0.027
  -0.33333333  0.33333333  0.00000000       0.005
 
 position of ions in fractional coordinates (direct lattice) 
   0.00000000  0.00000000  0.00000000
   0.33333300  0.33333300  0.00000000
   0.00000000  0.00000000  0.21500000
   0.33333300  0.33333300  0.21500000
 
 position of ions in cartesian coordinates  (Angst):
   0.00000000  0.00000000  0.00000000
   1.41999858  0.00000000  0.00000000
   0.00000000  0.00000000  4.30000000
   1.41999858  0.00000000  4.30000000
 


--------------------------------------------------------------------------------------------------------


 k-point  1 :   0.0000 0.0000 0.0000  plane waves:    5409
 k-point  2 :   0.0476 0.0000 0.0000  plane waves:    5413
 k-point  3 :   0.0952 0.0000 0.0000  plane waves:    5402
 k-point  4 :   0.1429 0.0000 0.0000  plane waves:    5398
 k-point  5 :   0.1905 0.0000 0.0000  plane waves:    5404
 k-point  6 :   0.2381 0.0000 0.0000  plane waves:    5408
 k-point  7 :   0.2857 0.0000 0.0000  plane waves:    5404
 k-point  8 :   0.3333 0.0000 0.0000  plane waves:    5394
 k-point  9 :   0.3810 0.0000 0.0000  plane waves:    5382
 k-point 10 :   0.4286 0.0000 0.0000  plane waves:    5396
 k-point 11 :   0.4762 0.0000 0.0000  plane waves:    5380
 k-point 12 :   0.0952 0.0476 0.0000  plane waves:    5411
 k-point 13 :   0.1429 0.0476 0.0000  plane waves:    5415
 k-point 14 :   0.1905 0.0476 0.0000  plane waves:    5413
 k-point 15 :   0.2381 0.0476 0.0000  plane waves:    5399
 k-point 16 :   0.2857 0.0476 0.0000  plane waves:    5396
 k-point 17 :   0.3333 0.0476 0.0000  plane waves:    5389
 k-point 18 :   0.3810 0.0476 0.0000  plane waves:    5378
 k-point 19 :   0.4286 0.0476 0.0000  plane waves:    5381
 k-point 20 :   0.4762 0.0476 0.0000  plane waves:    5391
 k-point 21 :  -0.4762 0.0476 0.0000  plane waves:    5394
 k-point 22 :   0.1905 0.0952 0.0000  plane waves:    5403
 k-point 23 :   0.2381 0.0952 0.0000  plane waves:    5409
 k-point 24 :   0.2857 0.0952 0.0000  plane waves:    5419
 k-point 25 :   0.3333 0.0952 0.0000  plane waves:    5384
 k-point 26 :   0.3810 0.0952 0.0000  plane waves:    5369
 k-point 27 :   0.4286 0.0952 0.0000  plane waves:    5364
 k-point 28 :   0.4762 0.0952 0.0000  plane waves:    5382
 k-point 29 :  -0.4762 0.0952 0.0000  plane waves:    5404
 k-point 30 :   0.2857 0.1429 0.0000  plane waves:    5405
 k-point 31 :   0.3333 0.1429 0.0000  plane waves:    5404
 k-point 32 :   0.3810 0.1429 0.0000  plane waves:    5382
 k-point 33 :   0.4286 0.1429 0.0000  plane waves:    5347
 k-point 34 :   0.4762 0.1429 0.0000  plane waves:    5367
 k-point 35 :  -0.4762 0.1429 0.0000  plane waves:    5376
 k-point 36 :  -0.4286 0.1429 0.0000  plane waves:    5400
 k-point 37 :   0.3810 0.1905 0.0000  plane waves:    5390
 k-point 38 :   0.4286 0.1905 0.0000  plane waves:    5358
 k-point 39 :   0.4762 0.1905 0.0000  plane waves:    5365
 k-point 40 :  -0.4762 0.1905 0.0000  plane waves:    5363
 k-point 41 :  -0.4286 0.1905 0.0000  plane waves:    5377
 k-point 42 :   0.4762 0.2381 0.0000  plane waves:    5364
 k-point 43 :  -0.4762 0.2381 0.0000  plane waves:    5368
 k-point 44 :  -0.4286 0.2381 0.0000  plane waves:    5360
 k-point 45 :  -0.3810 0.2381 0.0000  plane waves:    5366
 k-point 46 :  -0.4286 0.2857 0.0000  plane waves:    5362
 k-point 47 :  -0.3810 0.2857 0.0000  plane waves:    5326
 k-point 48 :  -0.3333 0.3333 0.0000  plane waves:    5334

 maximum and minimum number of plane-waves per node :      5419     5326

 maximum number of plane-waves:      5419
 maximum index in each direction: 
   IXMAX=    6   IYMAX=    5   IZMAX=   46
   IXMIN=   -6   IYMIN=   -5   IZMIN=  -46


 serial   3D FFT for wavefunctions
 parallel 3D FFT for charge:
    minimum data exchange during FFTs selected (reduces bandwidth)


 total amount of memory used by VASP MPI-rank0   107376. kBytes
=======================================================================

   base      :      30000. kBytes
   nonl-proj :      16997. kBytes
   fftplans  :      32720. kBytes
   grid      :      15086. kBytes
   one-center:         12. kBytes
   wavefun   :      12561. kBytes
 
     INWAV:  cpu time    0.0000: real time    0.0001
 Broyden mixing: mesh for mixing (old mesh)
   NGX = 11   NGY = 11   NGZ = 93
  (NGX  = 48   NGY  = 48   NGZ  =384)
  gives a total of  11253 points

 initial charge density was supplied:
 charge density of overlapping atoms calculated
 number of electron      16.0000000 magnetization 
 keeping initial charge density in first step


--------------------------------------------------------------------------------------------------------


 Maximum index for augmentation-charges        24149 (set IRDMAX)


--------------------------------------------------------------------------------------------------------


 First call to EWALD:  gamma=   0.376
 Maximum number of real-space cells 5x 5x 1
 Maximum number of reciprocal cells 2x 2x10

    FEWALD:  cpu time    0.0011: real time    0.0011


--------------------------------------- Iteration      1(   1)  ---------------------------------------


    POTLOK:  cpu time    0.0868: real time    0.1040
    SETDIJ:  cpu time    0.0439: real time    0.0440
     EDDAV:  cpu time    1.4868: real time    1.4916
       DOS:  cpu time    0.0003: real time    0.0003
    --------------------------------------------
      LOOP:  cpu time    1.6177: real time    1.6399

 eigenvalue-minimisations  :  1152
 total energy-change (2. order) : 0.1257723E+03  (-0.8017571E+03)
 number of electron      16.0000000 magnetization 
 augmentation part       16.0000000 magnetization 

 Free energy of the ion-electron system (eV)
  ---------------------------------------------------
  alpha Z        PSCENC =        12.54445055
  Ewald energy   TEWEN  =      2559.46048761
  -Hartree energ DENC   =     -3021.19987778
  -exchange      EXHF   =         0.00000000
  -V(xc)+E(xc)   XCENC  =        52.81199277
  PAW double counting   =       434.08818552     -436.36580876
  entropy T*S    EENTRO =        -0.00000000
  eigenvalues    EBANDS =       -64.18486057
  atomic energy  EATOM  =       588.61769381
  Solvation  Ediel_sol  =         0.00000000
  ---------------------------------------------------
  free energy    TOTEN  =       125.77226315 eV

  energy without entropy =      125.77226315  energy(sigma->0) =      125.77226315


--------------------------------------------------------------------------------------------------------




--------------------------------------- Iteration      1(   2)  ---------------------------------------


     EDDAV:  cpu time    2.0884: real time    2.0946
       DOS:  cpu time    0.0004: real time    0.0004
    --------------------------------------------
      LOOP:  cpu time    2.0888: real time    2.0950

 eigenvalue-minimisations  :  1900
 total energy-change (2. order) :-0.1513115E+03  (-0.1376409E+03)
 number of electron      16.0000000 magnetization 
 augmentation part       16.0000000 magnetization 

 Free energy of the ion-electron system (eV)
  ---------------------------------------------------
  alpha Z        PSCENC =        12.54445055
  Ewald energy   TEWEN  =      2559.46048761
  -Hartree energ DENC   =     -3021.19987778
  -exchange      EXHF   =         0.00000000
  -V(xc)+E(xc)   XCENC  =        52.81199277
  PAW double counting   =       434.08818552     -436.36580876
  entropy T*S    EENTRO =        -0.00009615
  eigenvalues    EBANDS =      -215.49621712
  atomic energy  EATOM  =       588.61769381
  Solvation  Ediel_sol  =         0.00000000
  ---------------------------------------------------
  free energy    TOTEN  =       -25.53918954 eV

  energy without entropy =      -25.53909340  energy(sigma->0) =      -25.53914147


--------------------------------------------------------------------------------------------------------




--------------------------------------- Iteration      1(   3)  ---------------------------------------


     EDDAV:  cpu time    1.6275: real time    1.6324
       DOS:  cpu time    0.0003: real time    0.0003
    --------------------------------------------
      LOOP:  cpu time    1.6278: real time    1.6327

 eigenvalue-minimisations  :  1404
 total energy-change (2. order) :-0.1365204E+02  (-0.1342509E+02)
 number of electron      16.0000000 magnetization 
 augmentation part       16.0000000 magnetization 

 Free energy of the ion-electron system (eV)
  ---------------------------------------------------
  alpha Z        PSCENC =        12.54445055
  Ewald energy   TEWEN  =      2559.46048761
  -Hartree energ DENC   =     -3021.19987778
  -exchange      EXHF   =         0.00000000
  -V(xc)+E(xc)   XCENC  =        52.81199277
  PAW double counting   =       434.08818552     -436.36580876
  entropy T*S    EENTRO =        -0.00000024
  eigenvalues    EBANDS =      -229.14835377
  atomic energy  EATOM  =       588.61769381
  Solvation  Ediel_sol  =         0.00000000
  ---------------------------------------------------
  free energy    TOTEN  =       -39.19123028 eV

  energy without entropy =      -39.19123004  energy(sigma->0) =      -39.19123016


--------------------------------------------------------------------------------------------------------




--------------------------------------- Iteration      1(   4)  ---------------------------------------


     EDDAV:  cpu time    1.7107: real time    1.7159
       DOS:  cpu time    0.0002: real time    0.0002
    --------------------------------------------
      LOOP:  cpu time    1.7109: real time    1.7161

 eigenvalue-minimisations  :  1504
 total energy-change (2. order) :-0.3163080E+00  (-0.3153992E+00)
 number of electron      16.0000000 magnetization 
 augmentation part       16.0000000 magnetization 

 Free energy of the ion-electron system (eV)
  ---------------------------------------------------
  alpha Z        PSCENC =        12.54445055
  Ewald energy   TEWEN  =      2559.46048761
  -Hartree energ DENC   =     -3021.19987778
  -exchange      EXHF   =         0.00000000
  -V(xc)+E(xc)   XCENC  =        52.81199277
  PAW double counting   =       434.08818552     -436.36580876
  entropy T*S    EENTRO =        -0.00000000
  eigenvalues    EBANDS =      -229.46466197
  atomic energy  EATOM  =       588.61769381
  Solvation  Ediel_sol  =         0.00000000
  ---------------------------------------------------
  free energy    TOTEN  =       -39.50753824 eV

  energy without entropy =      -39.50753824  energy(sigma->0) =      -39.50753824


--------------------------------------------------------------------------------------------------------




--------------------------------------- Iteration      1(   5)  ---------------------------------------


     EDDAV:  cpu time    1.6534: real time    1.6586
       DOS:  cpu time    0.0002: real time    0.0002
    CHARGE:  cpu time    0.1925: real time    0.1930
    MIXING:  cpu time    0.0025: real time    0.0025
    --------------------------------------------
      LOOP:  cpu time    1.8487: real time    1.8544

 eigenvalue-minimisations  :  1440
 total energy-change (2. order) :-0.9429432E-02  (-0.9411498E-02)
 number of electron      16.0000000 magnetization 
 augmentation part        0.4281861 magnetization 

 Broyden mixing:
  rms(total) = 0.90193E+00    rms(broyden)= 0.90192E+00
  rms(prec ) = 0.96436E+00
  weight for this iteration     100.00

 Free energy of the ion-electron system (eV)
  ---------------------------------------------------
  alpha Z        PSCENC =        12.54445055
  Ewald energy   TEWEN  =      2559.46048761
  -Hartree energ DENC   =     -3021.19987778
  -exchange      EXHF   =         0.00000000
  -V(xc)+E(xc)   XCENC  =        52.81199277
  PAW double counting   =       434.08818552     -436.36580876
  entropy T*S    EENTRO =        -0.00000000
  eigenvalues    EBANDS =      -229.47409140
  atomic energy  EATOM  =       588.61769381
  Solvation  Ediel_sol  =         0.00000000
  ---------------------------------------------------
  free energy    TOTEN  =       -39.51696767 eV

  energy without entropy =      -39.51696767  energy(sigma->0) =      -39.51696767


--------------------------------------------------------------------------------------------------------




--------------------------------------- Iteration      1(   6)  ---------------------------------------


    POTLOK:  cpu time    0.0740: real time    0.0743
    SETDIJ:  cpu time    0.0354: real time    0.0356
     EDDAV:  cpu time    1.6193: real time    1.6245
       DOS:  cpu time    0.0002: real time    0.0002
    CHARGE:  cpu time    0.1901: real time    0.1905
    MIXING:  cpu time    0.0027: real time    0.0027
    --------------------------------------------
      LOOP:  cpu time    1.9217: real time    1.9278

 eigenvalue-minimisations  :  1364
 total energy-change (2. order) : 0.1882284E+01  (-0.1741842E+00)
 number of electron      16.0000000 magnetization 
 augmentation part        0.4092733 magnetization 

 Broyden mixing:
  rms(total) = 0.52928E+00    rms(broyden)= 0.52928E+00
  rms(prec ) = 0.55997E+00
  weight for this iteration     100.00

 eigenvalues of (default mixing * dielectric matrix)
  average eigenvalue GAMMA=   2.2039
  2.2039

 Free energy of the ion-electron system (eV)
  ---------------------------------------------------
  alpha Z        PSCENC =        12.54445055
  Ewald energy   TEWEN  =      2559.46048761
  -Hartree energ DENC   =     -3041.61121975
  -exchange      EXHF   =         0.00000000
  -V(xc)+E(xc)   XCENC  =        53.80410118
  PAW double counting   =       803.46064831     -806.03729396
  entropy T*S    EENTRO =        -0.00000000
  eigenvalues    EBANDS =      -207.87355102
  atomic energy  EATOM  =       588.61769381
  Solvation  Ediel_sol  =         0.00000000
  ---------------------------------------------------
  free energy    TOTEN  =       -37.63468326 eV

  energy without entropy =      -37.63468326  energy(sigma->0) =      -37.63468326


--------------------------------------------------------------------------------------------------------




--------------------------------------- Iteration      1(   7)  ---------------------------------------


    POTLOK:  cpu time    0.0733: real time    0.0735
    SETDIJ:  cpu time    0.0364: real time    0.0365
     EDDAV:  cpu time    1.6536: real time    1.6590
       DOS:  cpu time    0.0002: real time    0.0002
    CHARGE:  cpu time    0.1773: real time    0.1777
    MIXING:  cpu time    0.0027: real time    0.0027
    --------------------------------------------
      LOOP:  cpu time    1.9435: real time    1.9496

 eigenvalue-minimisations  :  1416
 total energy-change (2. order) : 0.6920676E+00  (-0.2314156E+00)
 number of electron      16.0000000 magnetization 
 augmentation part        0.3869906 magnetization 

 Broyden mixing:
  rms(total) = 0.13787E+00    rms(broyden)= 0.13787E+00
  rms(prec ) = 0.14289E+00
  weight for this iteration     100.00

 eigenvalues of (default mixing * dielectric matrix)
  average eigenvalue GAMMA=   2.2791
  2.1759  2.3823

 Free energy of the ion-electron system (eV)
  ---------------------------------------------------
  alpha Z        PSCENC =        12.54445055
  Ewald energy   TEWEN  =      2559.46048761
  -Hartree energ DENC   =     -3068.04999841
  -exchange      EXHF   =         0.00000000
  -V(xc)+E(xc)   XCENC  =        55.10567305
  PAW double counting   =      1521.55256558    -1524.39367160
  entropy T*S    EENTRO =        -0.00000000
  eigenvalues    EBANDS =      -181.77981626
  atomic energy  EATOM  =       588.61769381
  Solvation  Ediel_sol  =         0.00000000
  ---------------------------------------------------
  free energy    TOTEN  =       -36.94261567 eV

  energy without entropy =      -36.94261567  energy(sigma->0) =      -36.94261567


--------------------------------------------------------------------------------------------------------




--------------------------------------- Iteration      1(   8)  ---------------------------------------


    POTLOK:  cpu time    0.0717: real time    0.0743
    SETDIJ:  cpu time    0.0351: real time    0.0352
     EDDAV:  cpu time    1.6457: real time    1.6510
       DOS:  cpu time    0.0002: real time    0.0001
    CHARGE:  cpu time    0.1812: real time    0.1817
    MIXING:  cpu time    0.0027: real time    0.0028
    --------------------------------------------
      LOOP:  cpu time    1.9365: real time    1.9451

 eigenvalue-minimisations  :  1412
 total energy-change (2. order) : 0.9227158E-03  (-0.7257703E-02)
 number of electron      16.0000000 magnetization 
 augmentation part        0.3859460 magnetization 

 Broyden mixing:
  rms(total) = 0.13122E-01    rms(broyden)= 0.13121E-01
  rms(prec ) = 0.27243E-01
  weight for this iteration     100.00

 eigenvalues of (default mixing * dielectric matrix)
  average eigenvalue GAMMA=   1.7857
  0.9037  2.2962  2.1573

 Free energy of the ion-electron system (eV)
  ---------------------------------------------------
  alpha Z        PSCENC =        12.54445055
  Ewald energy   TEWEN  =      2559.46048761
  -Hartree energ DENC   =     -3069.81471224
  -exchange      EXHF   =         0.00000000
  -V(xc)+E(xc)   XCENC  =        55.09305603
  PAW double counting   =      1709.74433932    -1712.46936274
  entropy T*S    EENTRO =        -0.00000000
  eigenvalues    EBANDS =      -180.11764530
  atomic energy  EATOM  =       588.61769381
  Solvation  Ediel_sol  =         0.00000000
  ---------------------------------------------------
  free energy    TOTEN  =       -36.94169295 eV

  energy without entropy =      -36.94169295  energy(sigma->0) =      -36.94169295


--------------------------------------------------------------------------------------------------------




--------------------------------------- Iteration      1(   9)  ---------------------------------------


    POTLOK:  cpu time    0.0717: real time    0.0745
    SETDIJ:  cpu time    0.0371: real time    0.0372
     EDDAV:  cpu time    1.6917: real time    1.6968
       DOS:  cpu time    0.0002: real time    0.0002
    CHARGE:  cpu time    0.1803: real time    0.1808
    MIXING:  cpu time    0.0028: real time    0.0028
    --------------------------------------------
      LOOP:  cpu time    1.9839: real time    1.9922

 eigenvalue-minimisations  :  1464
 total energy-change (2. order) : 0.1551975E-02  (-0.2209535E-03)
 number of electron      16.0000000 magnetization 
 augmentation part        0.3855174 magnetization 

 Broyden mixing:
  rms(total) = 0.91617E-02    rms(broyden)= 0.91617E-02
  rms(prec ) = 0.24091E-01
  weight for this iteration     100.00

 eigenvalues of (default mixing * dielectric matrix)
  average eigenvalue GAMMA=   2.1461
  1.0199  1.9525  2.8059  2.8059

 Free energy of the ion-electron system (eV)
  ---------------------------------------------------
  alpha Z        PSCENC =        12.54445055
  Ewald energy   TEWEN  =      2559.46048761
  -Hartree energ DENC   =     -3070.81299686
  -exchange      EXHF   =         0.00000000
  -V(xc)+E(xc)   XCENC  =        55.11613767
  PAW double counting   =      1703.53302692    -1706.26258025
  entropy T*S    EENTRO =        -0.00000000
  eigenvalues    EBANDS =      -179.13636044
  atomic energy  EATOM  =       588.61769381
  Solvation  Ediel_sol  =         0.00000000
  ---------------------------------------------------
  free energy    TOTEN  =       -36.94014098 eV

  energy without entropy =      -36.94014098  energy(sigma->0) =      -36.94014098


--------------------------------------------------------------------------------------------------------




--------------------------------------- Iteration      1(  10)  ---------------------------------------


    POTLOK:  cpu time    0.0718: real time    0.0745
    SETDIJ:  cpu time    0.0359: real time    0.0359
     EDDAV:  cpu time    1.6046: real time    1.6095
       DOS:  cpu time    0.0002: real time    0.0002
    CHARGE:  cpu time    0.1795: real time    0.1799
    MIXING:  cpu time    0.0029: real time    0.0029
    --------------------------------------------
      LOOP:  cpu time    1.8948: real time    1.9028

 eigenvalue-minimisations  :  1352
 total energy-change (2. order) : 0.6642118E-02  (-0.3999278E-03)
 number of electron      16.0000000 magnetization 
 augmentation part        0.3850107 magnetization 

 Broyden mixing:
  rms(total) = 0.99588E-02    rms(broyden)= 0.99588E-02
  rms(prec ) = 0.18313E-01
  weight for this iteration     100.00

 eigenvalues of (default mixing * dielectric matrix)
  average eigenvalue GAMMA=   1.8918
  3.1867  2.5063  1.9910  0.9955  0.7792

 Free energy of the ion-electron system (eV)
  ---------------------------------------------------
  alpha Z        PSCENC =        12.54445055
  Ewald energy   TEWEN  =      2559.46048761
  -Hartree energ DENC   =     -3075.28668734
  -exchange      EXHF   =         0.00000000
  -V(xc)+E(xc)   XCENC  =        55.17754342
  PAW double counting   =      1683.97898984    -1686.70078919
  entropy T*S    EENTRO =        -0.00000000
  eigenvalues    EBANDS =      -174.72518755
  atomic energy  EATOM  =       588.61769381
  Solvation  Ediel_sol  =         0.00000000
  ---------------------------------------------------
  free energy    TOTEN  =       -36.93349886 eV

  energy without entropy =      -36.93349886  energy(sigma->0) =      -36.93349886


--------------------------------------------------------------------------------------------------------




--------------------------------------- Iteration      1(  11)  ---------------------------------------


    POTLOK:  cpu time    0.0720: real time    0.0722
    SETDIJ:  cpu time    0.0353: real time    0.0354
     EDDAV:  cpu time    1.6029: real time    1.6080
       DOS:  cpu time    0.0002: real time    0.0002
    CHARGE:  cpu time    0.1804: real time    0.1808
    MIXING:  cpu time    0.0040: real time    0.0040
    --------------------------------------------
      LOOP:  cpu time    1.8947: real time    1.9007

 eigenvalue-minimisations  :  1368
 total energy-change (2. order) : 0.1041417E-02  (-0.4132490E-04)
 number of electron      16.0000000 magnetization 
 augmentation part        0.3848094 magnetization 

 Broyden mixing:
  rms(total) = 0.52261E-02    rms(broyden)= 0.52261E-02
  rms(prec ) = 0.14553E-01
  weight for this iteration     100.00

 eigenvalues of (default mixing * dielectric matrix)
  average eigenvalue GAMMA=   2.2471
  4.5435  2.6660  2.1769  2.0387  1.0287  1.0287

 Free energy of the ion-electron system (eV)
  ---------------------------------------------------
  alpha Z        PSCENC =        12.54445055
  Ewald energy   TEWEN  =      2559.46048761
  -Hartree energ DENC   =     -3076.41132334
  -exchange      EXHF   =         0.00000000
  -V(xc)+E(xc)   XCENC  =        55.18899622
  PAW double counting   =      1701.53822276    -1704.25905137
  entropy T*S    EENTRO =        -0.00000000
  eigenvalues    EBANDS =      -173.61193368
  atomic energy  EATOM  =       588.61769381
  Solvation  Ediel_sol  =         0.00000000
  ---------------------------------------------------
  free energy    TOTEN  =       -36.93245744 eV

  energy without entropy =      -36.93245744  energy(sigma->0) =      -36.93245744


--------------------------------------------------------------------------------------------------------




--------------------------------------- Iteration      1(  12)  ---------------------------------------


    POTLOK:  cpu time    0.0690: real time    0.0695
    SETDIJ:  cpu time    0.0350: real time    0.0351
     EDDAV:  cpu time    1.4914: real time    1.4964
       DOS:  cpu time    0.0002: real time    0.0002
    CHARGE:  cpu time    0.1884: real time    0.1889
    MIXING:  cpu time    0.0032: real time    0.0032
    --------------------------------------------
      LOOP:  cpu time    1.7872: real time    1.7932

 eigenvalue-minimisations  :  1212
 total energy-change (2. order) : 0.3849896E-02  (-0.1972820E-03)
 number of electron      16.0000000 magnetization 
 augmentation part        0.3847981 magnetization 

 Broyden mixing:
  rms(total) = 0.34989E-02    rms(broyden)= 0.34989E-02
  rms(prec ) = 0.90193E-02
  weight for this iteration     100.00

 eigenvalues of (default mixing * dielectric matrix)
  average eigenvalue GAMMA=   2.3534
  5.7121  2.7998  2.3854  2.0694  1.4668  1.0203  1.0203

 Free energy of the ion-electron system (eV)
  ---------------------------------------------------
  alpha Z        PSCENC =        12.54445055
  Ewald energy   TEWEN  =      2559.46048761
  -Hartree energ DENC   =     -3079.74893268
  -exchange      EXHF   =         0.00000000
  -V(xc)+E(xc)   XCENC  =        55.18508267
  PAW double counting   =      1696.25234121    -1698.97711831
  entropy T*S    EENTRO =        -0.00000000
  eigenvalues    EBANDS =      -170.26261241
  atomic energy  EATOM  =       588.61769381
  Solvation  Ediel_sol  =         0.00000000
  ---------------------------------------------------
  free energy    TOTEN  =       -36.92860754 eV

  energy without entropy =      -36.92860754  energy(sigma->0) =      -36.92860754


--------------------------------------------------------------------------------------------------------




--------------------------------------- Iteration      1(  13)  ---------------------------------------


    POTLOK:  cpu time    0.0685: real time    0.0688
    SETDIJ:  cpu time    0.0387: real time    0.0388
     EDDAV:  cpu time    1.5960: real time    1.6008
       DOS:  cpu time    0.0002: real time    0.0002
    CHARGE:  cpu time    0.1802: real time    0.1806
    MIXING:  cpu time    0.0032: real time    0.0032
    --------------------------------------------
      LOOP:  cpu time    1.8867: real time    1.8923

 eigenvalue-minimisations  :  1300
 total energy-change (2. order) : 0.2166558E-03  (-0.1903768E-04)
 number of electron      16.0000000 magnetization 
 augmentation part        0.3847699 magnetization 

 Broyden mixing:
  rms(total) = 0.39079E-02    rms(broyden)= 0.39079E-02
  rms(prec ) = 0.73721E-02
  weight for this iteration     100.00

 eigenvalues of (default mixing * dielectric matrix)
  average eigenvalue GAMMA=   2.6081
  7.9431  3.2871  2.4863  2.0300  2.0300  1.1369  0.9758  0.9758

 Free energy of the ion-electron system (eV)
  ---------------------------------------------------
  alpha Z        PSCENC =        12.54445055
  Ewald energy   TEWEN  =      2559.46048761
  -Hartree energ DENC   =     -3081.31714348
  -exchange      EXHF   =         0.00000000
  -V(xc)+E(xc)   XCENC  =        55.18644215
  PAW double counting   =      1699.36642141    -1702.08969113
  entropy T*S    EENTRO =        -0.00000000
  eigenvalues    EBANDS =      -168.69705182
  atomic energy  EATOM  =       588.61769381
  Solvation  Ediel_sol  =         0.00000000
  ---------------------------------------------------
  free energy    TOTEN  =       -36.92839089 eV

  energy without entropy =      -36.92839089  energy(sigma->0) =      -36.92839089


--------------------------------------------------------------------------------------------------------




--------------------------------------- Iteration      1(  14)  ---------------------------------------


    POTLOK:  cpu time    0.0662: real time    0.0664
    SETDIJ:  cpu time    0.0382: real time    0.0383
     EDDAV:  cpu time    1.5553: real time    1.5601
       DOS:  cpu time    0.0002: real time    0.0002
    CHARGE:  cpu time    0.1812: real time    0.1817
    MIXING:  cpu time    0.0032: real time    0.0033
    --------------------------------------------
      LOOP:  cpu time    1.8443: real time    1.8498

 eigenvalue-minimisations  :  1252
 total energy-change (2. order) :-0.1196181E-02  (-0.3408703E-04)
 number of electron      16.0000000 magnetization 
 augmentation part        0.3847288 magnetization 

 Broyden mixing:
  rms(total) = 0.20872E-02    rms(broyden)= 0.20872E-02
  rms(prec ) = 0.38732E-02
  weight for this iteration     100.00

 eigenvalues of (default mixing * dielectric matrix)
  average eigenvalue GAMMA=   2.9422
 10.1268  4.3266  2.7045  2.7045  1.9425  1.5591  1.1321  1.0299  0.9541

 Free energy of the ion-electron system (eV)
  ---------------------------------------------------
  alpha Z        PSCENC =        12.54445055
  Ewald energy   TEWEN  =      2559.46048761
  -Hartree energ DENC   =     -3082.69453796
  -exchange      EXHF   =         0.00000000
  -V(xc)+E(xc)   XCENC  =        55.18469247
  PAW double counting   =      1696.92097163    -1699.64455033
  entropy T*S    EENTRO =        -0.00000000
  eigenvalues    EBANDS =      -167.31879486
  atomic energy  EATOM  =       588.61769381
  Solvation  Ediel_sol  =         0.00000000
  ---------------------------------------------------
  free energy    TOTEN  =       -36.92958707 eV

  energy without entropy =      -36.92958707  energy(sigma->0) =      -36.92958707


--------------------------------------------------------------------------------------------------------




--------------------------------------- Iteration      1(  15)  ---------------------------------------


    POTLOK:  cpu time    0.0664: real time    0.0666
    SETDIJ:  cpu time    0.0380: real time    0.0381
     EDDAV:  cpu time    1.6241: real time    1.6290
       DOS:  cpu time    0.0002: real time    0.0002
    CHARGE:  cpu time    0.1759: real time    0.1763
    MIXING:  cpu time    0.0033: real time    0.0033
    --------------------------------------------
      LOOP:  cpu time    1.9078: real time    1.9135

 eigenvalue-minimisations  :  1332
 total energy-change (2. order) :-0.9248798E-03  (-0.1545838E-04)
 number of electron      16.0000000 magnetization 
 augmentation part        0.3847294 magnetization 

 Broyden mixing:
  rms(total) = 0.25279E-02    rms(broyden)= 0.25279E-02
  rms(prec ) = 0.26996E-02
  weight for this iteration     100.00

 eigenvalues of (default mixing * dielectric matrix)
  average eigenvalue GAMMA=   3.5229
 15.5574  5.8021  2.9574  2.3290  2.1945  2.0634  0.9452  1.0142  1.0142  1.3521

 Free energy of the ion-electron system (eV)
  ---------------------------------------------------
  alpha Z        PSCENC =        12.54445055
  Ewald energy   TEWEN  =      2559.46048761
  -Hartree energ DENC   =     -3083.66472382
  -exchange      EXHF   =         0.00000000
  -V(xc)+E(xc)   XCENC  =        55.18629616
  PAW double counting   =      1692.60089637    -1695.32215999
  entropy T*S    EENTRO =        -0.00000000
  eigenvalues    EBANDS =      -166.35345263
  atomic energy  EATOM  =       588.61769381
  Solvation  Ediel_sol  =         0.00000000
  ---------------------------------------------------
  free energy    TOTEN  =       -36.93051195 eV

  energy without entropy =      -36.93051195  energy(sigma->0) =      -36.93051195


--------------------------------------------------------------------------------------------------------




--------------------------------------- Iteration      1(  16)  ---------------------------------------


    POTLOK:  cpu time    0.0651: real time    0.0654
    SETDIJ:  cpu time    0.0346: real time    0.0346
     EDDAV:  cpu time    1.5898: real time    1.5946
       DOS:  cpu time    0.0002: real time    0.0001
    CHARGE:  cpu time    0.1808: real time    0.1812
    MIXING:  cpu time    0.0035: real time    0.0035
    --------------------------------------------
      LOOP:  cpu time    1.8740: real time    1.8795

 eigenvalue-minimisations  :  1368
 total energy-change (2. order) :-0.1909764E-03  (-0.1502244E-05)
 number of electron      16.0000000 magnetization 
 augmentation part        0.3846954 magnetization 

 Broyden mixing:
  rms(total) = 0.48332E-03    rms(broyden)= 0.48332E-03
  rms(prec ) = 0.62851E-03
  weight for this iteration     100.00

 eigenvalues of (default mixing * dielectric matrix)
  average eigenvalue GAMMA=   4.1755
 22.7429  6.8995  3.3721  2.6925  2.4309  1.9804  1.7076  1.1157  0.9801  0.9801
  1.0281

 Free energy of the ion-electron system (eV)
  ---------------------------------------------------
  alpha Z        PSCENC =        12.54445055
  Ewald energy   TEWEN  =      2559.46048761
  -Hartree energ DENC   =     -3083.80141465
  -exchange      EXHF   =         0.00000000
  -V(xc)+E(xc)   XCENC  =        55.18799481
  PAW double counting   =      1696.14082425    -1698.86312030
  entropy T*S    EENTRO =        -0.00000000
  eigenvalues    EBANDS =      -166.21761902
  atomic energy  EATOM  =       588.61769381
  Solvation  Ediel_sol  =         0.00000000
  ---------------------------------------------------
  free energy    TOTEN  =       -36.93070293 eV

  energy without entropy =      -36.93070293  energy(sigma->0) =      -36.93070293


--------------------------------------------------------------------------------------------------------




--------------------------------------- Iteration      1(  17)  ---------------------------------------


    POTLOK:  cpu time    0.0648: real time    0.0651
    SETDIJ:  cpu time    0.0342: real time    0.0343
     EDDAV:  cpu time    1.5223: real time    1.5268
       DOS:  cpu time    0.0002: real time    0.0002
    CHARGE:  cpu time    0.1792: real time    0.1797
    MIXING:  cpu time    0.0036: real time    0.0036
    --------------------------------------------
      LOOP:  cpu time    1.8043: real time    1.8096

 eigenvalue-minimisations  :  1288
 total energy-change (2. order) :-0.1046719E-03  (-0.3800755E-06)
 number of electron      16.0000000 magnetization 
 augmentation part        0.3846859 magnetization 

 Broyden mixing:
  rms(total) = 0.23995E-03    rms(broyden)= 0.23995E-03
  rms(prec ) = 0.27637E-03
  weight for this iteration     100.00

 eigenvalues of (default mixing * dielectric matrix)
  average eigenvalue GAMMA=   4.1179
 23.5653  6.9413  3.3109  2.7396  2.7396  2.4743  1.9615  1.6516  1.0373  1.0373
  0.9781  0.9781

 Free energy of the ion-electron system (eV)
  ---------------------------------------------------
  alpha Z        PSCENC =        12.54445055
  Ewald energy   TEWEN  =      2559.46048761
  -Hartree energ DENC   =     -3083.83612502
  -exchange      EXHF   =         0.00000000
  -V(xc)+E(xc)   XCENC  =        55.18794084
  PAW double counting   =      1695.70559886    -1698.42845427
  entropy T*S    EENTRO =        -0.00000000
  eigenvalues    EBANDS =      -166.18239999
  atomic energy  EATOM  =       588.61769381
  Solvation  Ediel_sol  =         0.00000000
  ---------------------------------------------------
  free energy    TOTEN  =       -36.93080760 eV

  energy without entropy =      -36.93080760  energy(sigma->0) =      -36.93080760


--------------------------------------------------------------------------------------------------------




--------------------------------------- Iteration      1(  18)  ---------------------------------------


    POTLOK:  cpu time    0.0658: real time    0.0660
    SETDIJ:  cpu time    0.0352: real time    0.0353
     EDDAV:  cpu time    1.5707: real time    1.5757
       DOS:  cpu time    0.0002: real time    0.0002
    CHARGE:  cpu time    0.1788: real time    0.1792
    MIXING:  cpu time    0.0037: real time    0.0037
    --------------------------------------------
      LOOP:  cpu time    1.8543: real time    1.8600

 eigenvalue-minimisations  :  1332
 total energy-change (2. order) :-0.1948697E-04  (-0.8741359E-07)
 number of electron      16.0000000 magnetization 
 augmentation part        0.3846916 magnetization 

 Broyden mixing:
  rms(total) = 0.95125E-04    rms(broyden)= 0.95123E-04
  rms(prec ) = 0.10646E-03
  weight for this iteration     100.00

 eigenvalues of (default mixing * dielectric matrix)
  average eigenvalue GAMMA=   3.9858
 23.7966  7.0291  3.9398  3.1600  2.4205  2.4205  2.0566  1.6248  1.3705  1.0169
  1.0169  0.9816  0.9816

 Free energy of the ion-electron system (eV)
  ---------------------------------------------------
  alpha Z        PSCENC =        12.54445055
  Ewald energy   TEWEN  =      2559.46048761
  -Hartree energ DENC   =     -3083.83531215
  -exchange      EXHF   =         0.00000000
  -V(xc)+E(xc)   XCENC  =        55.18751328
  PAW double counting   =      1695.68229385    -1698.40485135
  entropy T*S    EENTRO =        -0.00000000
  eigenvalues    EBANDS =      -166.18310269
  atomic energy  EATOM  =       588.61769381
  Solvation  Ediel_sol  =         0.00000000
  ---------------------------------------------------
  free energy    TOTEN  =       -36.93082708 eV

  energy without entropy =      -36.93082708  energy(sigma->0) =      -36.93082708


--------------------------------------------------------------------------------------------------------




--------------------------------------- Iteration      1(  19)  ---------------------------------------


    POTLOK:  cpu time    0.0664: real time    0.0667
    SETDIJ:  cpu time    0.0354: real time    0.0354
     EDDAV:  cpu time    1.5459: real time    1.5507
       DOS:  cpu time    0.0002: real time    0.0002
    CHARGE:  cpu time    0.1792: real time    0.1797
    MIXING:  cpu time    0.0039: real time    0.0039
    --------------------------------------------
      LOOP:  cpu time    1.8309: real time    1.8365

 eigenvalue-minimisations  :  1296
 total energy-change (2. order) :-0.5000606E-05  (-0.1558250E-07)
 number of electron      16.0000000 magnetization 
 augmentation part        0.3846889 magnetization 

 Broyden mixing:
  rms(total) = 0.45105E-04    rms(broyden)= 0.45102E-04
  rms(prec ) = 0.46503E-04
  weight for this iteration     100.00

 eigenvalues of (default mixing * dielectric matrix)
  average eigenvalue GAMMA=   3.8765
 23.8504  7.0594  4.1364  3.1470  2.6775  2.3567  2.3567  1.9850  1.6782  1.0506
  1.0140  1.0140  0.9729  0.9729

 Free energy of the ion-electron system (eV)
  ---------------------------------------------------
  alpha Z        PSCENC =        12.54445055
  Ewald energy   TEWEN  =      2559.46048761
  -Hartree energ DENC   =     -3083.83887021
  -exchange      EXHF   =         0.00000000
  -V(xc)+E(xc)   XCENC  =        55.18761889
  PAW double counting   =      1695.62545237    -1698.34813255
  entropy T*S    EENTRO =        -0.00000000
  eigenvalues    EBANDS =      -166.17953257
  atomic energy  EATOM  =       588.61769381
  Solvation  Ediel_sol  =         0.00000000
  ---------------------------------------------------
  free energy    TOTEN  =       -36.93083209 eV

  energy without entropy =      -36.93083209  energy(sigma->0) =      -36.93083209


--------------------------------------------------------------------------------------------------------




--------------------------------------- Iteration      1(  20)  ---------------------------------------


    POTLOK:  cpu time    0.0690: real time    0.0692
    SETDIJ:  cpu time    0.0356: real time    0.0357
     EDDAV:  cpu time    1.5222: real time    1.5272
       DOS:  cpu time    0.0002: real time    0.0002
    CHARGE:  cpu time    0.1767: real time    0.1772
    MIXING:  cpu time    0.0040: real time    0.0040
    --------------------------------------------
      LOOP:  cpu time    1.8077: real time    1.8135

 eigenvalue-minimisations  :  1260
 total energy-change (2. order) :-0.4351514E-06  (-0.2009080E-08)
 number of electron      16.0000000 magnetization 
 augmentation part        0.3846884 magnetization 

 Broyden mixing:
  rms(total) = 0.77156E-05    rms(broyden)= 0.76979E-05
  rms(prec ) = 0.83811E-05
  weight for this iteration     100.00

 eigenvalues of (default mixing * dielectric matrix)
  average eigenvalue GAMMA=   3.7289
 23.8639  7.0518  4.2701  3.0476  3.0476  2.4737  2.2832  2.0457  1.6581  1.2411
  1.0119  1.0119  1.0028  0.9618  0.9618

 Free energy of the ion-electron system (eV)
  ---------------------------------------------------
  alpha Z        PSCENC =        12.54445055
  Ewald energy   TEWEN  =      2559.46048761
  -Hartree energ DENC   =     -3083.83751156
  -exchange      EXHF   =         0.00000000
  -V(xc)+E(xc)   XCENC  =        55.18763742
  PAW double counting   =      1695.65432011    -1698.37697869
  entropy T*S    EENTRO =        -0.00000000
  eigenvalues    EBANDS =      -166.18093176
  atomic energy  EATOM  =       588.61769381
  Solvation  Ediel_sol  =         0.00000000
  ---------------------------------------------------
  free energy    TOTEN  =       -36.93083252 eV

  energy without entropy =      -36.93083252  energy(sigma->0) =      -36.93083252


--------------------------------------------------------------------------------------------------------




--------------------------------------- Iteration      1(  21)  ---------------------------------------


    POTLOK:  cpu time    0.0687: real time    0.0690
    SETDIJ:  cpu time    0.0354: real time    0.0354
     EDDAV:  cpu time    1.2719: real time    1.2763
       DOS:  cpu time    0.0002: real time    0.0002
    --------------------------------------------
      LOOP:  cpu time    1.3761: real time    1.3809

 eigenvalue-minimisations  :   956
 total energy-change (2. order) :-0.4249841E-08  (-0.1052908E-09)
 number of electron      16.0000000 magnetization 
 augmentation part        0.3846884 magnetization 

 Free energy of the ion-electron system (eV)
  ---------------------------------------------------
  alpha Z        PSCENC =        12.54445055
  Ewald energy   TEWEN  =      2559.46048761
  -Hartree energ DENC   =     -3083.83753793
  -exchange      EXHF   =         0.00000000
  -V(xc)+E(xc)   XCENC  =        55.18762546
  PAW double counting   =      1695.65548406    -1698.37813102
  entropy T*S    EENTRO =        -0.00000000
  eigenvalues    EBANDS =      -166.18090506
  atomic energy  EATOM  =       588.61769381
  Solvation  Ediel_sol  =         0.00000000
  ---------------------------------------------------
  free energy    TOTEN  =       -36.93083252 eV

  energy without entropy =      -36.93083252  energy(sigma->0) =      -36.93083252


--------------------------------------------------------------------------------------------------------




 average (electrostatic) potential at core
  the test charge radii are     0.6991
  (the norm of the test charge is              1.0000)
       1 -56.6476       2 -56.6476       3 -56.6476       4 -56.6476
 
 
 
 E-fermi :  -1.2064     XC(G=0):  -4.0200     alpha+bet : -3.8262


 k-point     1 :       0.0000    0.0000    0.0000
  band No.  band energies     occupation 
      1     -20.8027      2.00000
      2     -20.7864      2.00000
      3      -9.0018      2.00000
      4      -8.7756      2.00000
      5      -4.2483      2.00000
      6      -4.2482      2.00000
      7      -4.2474      2.00000
      8      -4.2473      2.00000
      9       1.9575      0.00000
     10       2.4923      0.00000
     11       3.1455      0.00000
     12       4.0485      0.00000

 k-point     2 :       0.0476    0.0000    0.0000
  band No.  band energies     occupation 
      1     -20.7489      2.00000
      2     -20.7326      2.00000
      3      -8.9371      2.00000
      4      -8.7115      2.00000
      5      -4.4692      2.00000
      6      -4.4681      2.00000
      7      -4.3651      2.00000
      8      -4.3642      2.00000
      9       2.0296      0.00000
     10       2.5655      0.00000
     11       3.2190      0.00000
     12       4.1204      0.00000

 k-point     3 :       0.0952    0.0000    0.0000
  band No.  band energies     occupation 
      1     -20.5874      2.00000
      2     -20.5714      2.00000
      3      -8.7434      2.00000
      4      -8.5197      2.00000
      5      -5.0893      2.00000
      6      -5.0877      2.00000
      7      -4.6849      2.00000
      8      -4.6839      2.00000
      9       2.2459      0.00000
     10       2.7852      0.00000
     11       3.4392      0.00000
     12       4.3359      0.00000

 k-point     4 :       0.1429    0.0000    0.0000
  band No.  band energies     occupation 
      1     -20.3190      2.00000
      2     -20.3033      2.00000
      3      -8.4225      2.00000
      4      -8.2020      2.00000
      5      -6.0090      2.00000
      6      -6.0067      2.00000
      7      -5.1366      2.00000
      8      -5.1354      2.00000
      9       2.6064      0.00000
     10       3.1509      0.00000
     11       3.8058      0.00000
     12       4.6941      0.00000

 k-point     5 :       0.1905    0.0000    0.0000
  band No.  band energies     occupation 
      1     -19.9446      2.00000
      2     -19.9294      2.00000
      3      -7.9773      2.00000
      4      -7.7616      2.00000
      5      -7.1220      2.00000
      6      -7.1189      2.00000
      7      -5.6454      2.00000
      8      -5.6441      2.00000
      9       3.1105      0.00000
     10       3.6619      0.00000
     11       4.3177      0.00000
     12       5.1914      0.00000

 k-point     6 :       0.2381    0.0000    0.0000
  band No.  band energies     occupation 
      1     -19.4657      2.00000
      2     -19.4511      2.00000
      3      -8.3421      2.00000
      4      -8.3381      2.00000
      5      -7.4132      2.00000
      6      -7.2038      2.00000
      7      -6.1525      2.00000
      8      -6.1510      2.00000
      9       3.7571      0.00000
     10       4.3146      0.00000
     11       4.9681      0.00000
     12       5.7858      0.00000

 k-point     7 :       0.2857    0.0000    0.0000
  band No.  band energies     occupation 
      1     -18.8846      2.00000
      2     -18.8707      2.00000
      3      -9.6064      2.00000
      4      -9.6015      2.00000
      5      -6.7391      2.00000
      6      -6.6169      2.00000
      7      -6.6153      2.00000
      8      -6.5381      2.00000
      9       4.5426      0.00000
     10       4.9676      0.00000
     11       4.9747      0.00000
     12       5.2759      0.00000

 k-point     8 :       0.3333    0.0000    0.0000
  band No.  band energies     occupation 
      1     -18.2048      2.00000
      2     -18.1916      2.00000
      3     -10.8705      2.00000
      4     -10.8646      2.00000
      5      -7.0118      2.00000
      6      -7.0102      2.00000
      7      -5.9714      2.00000
      8      -5.7813      2.00000
      9       3.6455      0.00000
     10       3.7863      0.00000
     11       5.4649      0.00000
     12       6.0694      0.00000

 k-point     9 :       0.3810    0.0000    0.0000
  band No.  band energies     occupation 
      1     -17.4324      2.00000
      2     -17.4201      2.00000
      3     -12.1008      2.00000
      4     -12.0939      2.00000
      5      -7.3200      2.00000
      6      -7.3183      2.00000
      7      -5.1434      2.00000
      8      -4.9676      2.00000
      9       2.3525      0.00000
     10       2.5157      0.00000
     11       6.3095      0.00000
     12       6.4040      0.00000

 k-point    10 :       0.4286    0.0000    0.0000
  band No.  band energies     occupation 
      1     -16.5825      2.00000
      2     -16.5711      2.00000
      3     -13.2646      2.00000
      4     -13.2567      2.00000
      5      -7.5306      2.00000
      6      -7.5289      2.00000
      7      -4.3348      2.00000
      8      -4.1775      2.00000
      9       1.2161      0.00000
     10       1.4038      0.00000
     11       6.2782      0.00000
     12       6.3062      0.00000

 k-point    11 :       0.4762    0.0000    0.0000
  band No.  band energies     occupation 
      1     -15.7373      2.00000
      2     -15.7267      2.00000
      3     -14.2692      2.00000
      4     -14.2605      2.00000
      5      -7.6374      2.00000
      6      -7.6356      2.00000
      7      -3.7527      2.00000
      8      -3.6144      2.00000
      9       0.4652      0.00000
     10       0.6749      0.00000
     11       6.2286      0.00000
     12       6.2531      0.00000

 k-point    12 :       0.0952    0.0476    0.0000
  band No.  band energies     occupation 
      1     -20.6412      2.00000
      2     -20.6251      2.00000
      3      -8.8079      2.00000
      4      -8.5836      2.00000
      5      -4.8743      2.00000
      6      -4.8729      2.00000
      7      -4.5990      2.00000
      8      -4.5979      2.00000
      9       2.1738      0.00000
     10       2.7120      0.00000
     11       3.3658      0.00000
     12       4.2641      0.00000

 k-point    13 :       0.1429    0.0476    0.0000
  band No.  band energies     occupation 
      1     -20.4263      2.00000
      2     -20.4104      2.00000
      3      -8.5506      2.00000
      4      -8.3288      2.00000
      5      -5.6114      2.00000
      6      -5.6095      2.00000
      7      -5.0181      2.00000
      8      -5.0169      2.00000
      9       2.4623      0.00000
     10       3.0047      0.00000
     11       3.6593      0.00000
     12       4.5511      0.00000

 k-point    14 :       0.1905    0.0476    0.0000
  band No.  band energies     occupation 
      1     -20.1049      2.00000
      2     -20.0894      2.00000
      3      -8.1674      2.00000
      4      -7.9496      2.00000
      5      -6.5978      2.00000
      6      -6.5952      2.00000
      7      -5.5291      2.00000
      8      -5.5277      2.00000
      9       2.8948      0.00000
     10       3.4433      0.00000
     11       4.0988      0.00000
     12       4.9797      0.00000

 k-point    15 :       0.2381    0.0476    0.0000
  band No.  band energies     occupation 
      1     -19.6782      2.00000
      2     -19.6633      2.00000
      3      -7.7430      2.00000
      4      -7.7395      2.00000
      5      -7.6624      2.00000
      6      -7.4501      2.00000
      7      -6.0591      2.00000
      8      -6.0574      2.00000
      9       3.4706      0.00000
     10       4.0261      0.00000
     11       4.6821      0.00000
     12       5.5415      0.00000

 k-point    16 :       0.2857    0.0476    0.0000
  band No.  band energies     occupation 
      1     -19.1482      2.00000
      2     -19.1340      2.00000
      3      -8.9714      2.00000
      4      -8.9670      2.00000
      5      -7.0424      2.00000
      6      -6.8375      2.00000
      7      -6.5590      2.00000
      8      -6.5572      2.00000
      9       4.1878      0.00000
     10       4.7426      0.00000
     11       5.3515      0.00000
     12       5.6511      0.00000

 k-point    17 :       0.3333    0.0476    0.0000
  band No.  band energies     occupation 
      1     -18.5177      2.00000
      2     -18.5042      2.00000
      3     -10.2271      2.00000
      4     -10.2217      2.00000
      5      -6.9973      2.00000
      6      -6.9955      2.00000
      7      -6.3193      2.00000
      8      -6.1240      2.00000
      9       4.2771      0.00000
     10       4.4008      0.00000
     11       5.0454      0.00000
     12       5.6486      0.00000

 k-point    18 :       0.3810    0.0476    0.0000
  band No.  band energies     occupation 
      1     -17.7912      2.00000
      2     -17.7785      2.00000
      3     -11.4694      2.00000
      4     -11.4630      2.00000
      5      -7.3540      2.00000
      6      -7.3521      2.00000
      7      -5.5159      2.00000
      8      -5.3329      2.00000
      9       2.9657      0.00000
     10       3.1129      0.00000
     11       6.0242      0.00000
     12       6.5981      0.00000

 k-point    19 :       0.4286    0.0476    0.0000
  band No.  band energies     occupation 
      1     -16.9778      2.00000
      2     -16.9660      2.00000
      3     -12.6655      2.00000
      4     -12.6581      2.00000
      5      -7.6163      2.00000
      6      -7.6144      2.00000
      7      -4.6823      2.00000
      8      -4.5156      2.00000
      9       1.7411      0.00000
     10       1.9119      0.00000
     11       6.5508      0.00000
     12       6.5940      0.00000

 k-point    20 :       0.4762    0.0476    0.0000
  band No.  band energies     occupation 
      1     -16.1083      2.00000
      2     -16.0973      2.00000
      3     -13.7701      2.00000
      4     -13.7617      2.00000
      5      -7.7765      2.00000
      6      -7.7745      2.00000
      7      -3.9465      2.00000
      8      -3.7997      2.00000
      9       0.7606      0.00000
     10       0.9561      0.00000
     11       6.4899      0.00000
     12       6.5170      0.00000

 k-point    21 :      -0.4762    0.0476    0.0000
  band No.  band energies     occupation 
      1     -15.4891      2.00000
      2     -15.4787      2.00000
      3     -14.4684      2.00000
      4     -14.4596      2.00000
      5      -7.8303      2.00000
      6      -7.8283      2.00000
      7      -3.6143      2.00000
      8      -3.4798      2.00000
      9       0.3452      0.00000
     10       0.5546      0.00000
     11       6.4644      0.00000
[...]
      7      -6.1676      2.00000
      8      -6.1656      2.00000
      9       3.3275      0.00000
     10       3.8815      0.00000
     11       4.5379      0.00000
     12       5.4072      0.00000

 k-point    24 :       0.2857    0.0952    0.0000
  band No.  band energies     occupation 
      1     -19.3070      2.00000
      2     -19.2925      2.00000
      3      -8.3971      2.00000
      4      -8.3933      2.00000
      5      -7.2258      2.00000
      6      -7.0185      2.00000
      7      -6.7447      2.00000
      8      -6.7425      2.00000
      9       3.9746      0.00000
     10       4.5349      0.00000
     11       5.1893      0.00000
     12       5.9525      0.00000

 k-point    25 :       0.3333    0.0952    0.0000
  band No.  band energies     occupation 
      1     -18.7275      2.00000
      2     -18.7137      2.00000
      3      -9.5853      2.00000
      4      -9.5805      2.00000
      5      -7.2506      2.00000
      6      -7.2482      2.00000
      7      -6.5542      2.00000
      8      -6.3553      2.00000
      9       4.7533      0.00000
     10       4.8082      0.00000
     11       4.8889      0.00000
     12       5.3640      0.00000

 k-point    26 :       0.3810    0.0952    0.0000
  band No.  band energies     occupation 
      1     -18.0499      2.00000
      2     -18.0369      2.00000
      3     -10.8015      2.00000
      4     -10.7958      2.00000
      5      -7.6688      2.00000
      6      -7.6663      2.00000
      7      -5.7888      2.00000
      8      -5.6008      2.00000
      9       3.5222      0.00000
     10       3.6454      0.00000
     11       5.6876      0.00000
     12       6.2846      0.00000

 k-point    27 :       0.4286    0.0952    0.0000
  band No.  band energies     occupation 
      1     -17.2806      2.00000
      2     -17.2685      2.00000
      3     -12.0013      2.00000
      4     -11.9946      2.00000
      5      -7.9896      2.00000
      6      -7.9870      2.00000
      7      -4.9616      2.00000
      8      -4.7876      2.00000
      9       2.2744      0.00000
     10       2.4207      0.00000
     11       6.7313      0.00000
     12       7.2744      0.00000

 k-point    28 :       0.4762    0.0952    0.0000
  band No.  band energies     occupation 
      1     -16.4352      2.00000
      2     -16.4240      2.00000
      3     -13.1451      2.00000
      4     -13.1373      2.00000
      5      -8.2067      2.00000
      6      -8.2041      2.00000
      7      -4.1494      2.00000
      8      -3.9934      2.00000
      9       1.1650      0.00000
     10       1.3359      0.00000
     11       7.1973      0.00000
     12       7.2386      0.00000

 k-point    29 :      -0.4762    0.0952    0.0000
  band No.  band energies     occupation 
      1     -15.5965      2.00000
      2     -15.5861      2.00000
      3     -14.1362      2.00000
      4     -14.1276      2.00000
      5      -8.3162      2.00000
      6      -8.3136      2.00000
      7      -3.5579      2.00000
      8      -3.4205      2.00000
      9       0.4200      0.00000
     10       0.6128      0.00000
     11       7.1549      0.00000
     12       7.1865      0.00000

 k-point    30 :       0.2857    0.1429    0.0000
  band No.  band energies     occupation 
      1     -19.3600      2.00000
      2     -19.3455      2.00000
      3      -8.1123      2.00000
      4      -8.1087      2.00000
      5      -7.2871      2.00000
      6      -7.0791      2.00000
      7      -6.9068      2.00000
      8      -6.9043      2.00000
      9       3.9035      0.00000
     10       4.4644      0.00000
     11       5.1215      0.00000
     12       5.9745      0.00000

 k-point    31 :       0.3333    0.1429    0.0000
  band No.  band energies     occupation 
      1     -18.8327      2.00000
      2     -18.8188      2.00000
      3      -9.0791      2.00000
      4      -9.0748      2.00000
      5      -7.5837      2.00000
      6      -7.5807      2.00000
      7      -6.6725      2.00000
      8      -6.4719      2.00000
      9       4.6209      0.00000
     10       5.1146      0.00000
     11       5.1542      0.00000
     12       5.2336      0.00000

 k-point    32 :       0.3810    0.1429    0.0000
  band No.  band energies     occupation 
      1     -18.2060      2.00000
      2     -18.1929      2.00000
      3     -10.1711      2.00000
      4     -10.1660      2.00000
      5      -8.1267      2.00000
      6      -8.1235      2.00000
      7      -5.9551      2.00000
      8      -5.7640      2.00000
      9       3.9316      0.00000
     10       4.0293      0.00000
     11       5.4777      0.00000
     12       6.0600      0.00000

 k-point    33 :       0.4286    0.1429    0.0000
  band No.  band energies     occupation 
      1     -17.4849      2.00000
      2     -17.4725      2.00000
      3     -11.3170      2.00000
      4     -11.3109      2.00000
      5      -8.5378      2.00000
      6      -8.5345      2.00000
      7      -5.1558      2.00000
      8      -4.9769      2.00000
      9       2.7311      0.00000
     10       2.8492      0.00000
     11       6.4685      0.00000
     12       7.0621      0.00000

 k-point    34 :       0.4762    0.1429    0.0000
  band No.  band energies     occupation 
      1     -16.6792      2.00000
      2     -16.6677      2.00000
      3     -12.4548      2.00000
      4     -12.4477      2.00000
      5      -8.8276      2.00000
      6      -8.8242      2.00000
      7      -4.3204      2.00000
      8      -4.1569      2.00000
      9       1.5861      0.00000
     10       1.7268      0.00000
     11       7.5782      0.00000
     12       8.1644      0.00000

 k-point    35 :      -0.4762    0.1429    0.0000
  band No.  band energies     occupation 
      1     -15.8205      2.00000
      2     -15.8099      2.00000
      3     -13.5228      2.00000
      4     -13.5147      2.00000
      5      -9.0006      2.00000
      6      -8.9971      2.00000
      7      -3.5695      2.00000
      8      -3.4249      2.00000
      9       0.6399      0.00000
     10       0.8040      0.00000
     11       8.1863      0.00000
     12       8.2399      0.00000

 k-point    36 :      -0.4286    0.1429    0.0000
  band No.  band energies     occupation 
      1     -15.2127      2.00000
      2     -15.2026      2.00000
      3     -14.2018      2.00000
      4     -14.1933      2.00000
      5      -9.0582      2.00000
      6      -9.0547      2.00000
      7      -3.2205      2.00000
      8      -3.0880      2.00000
      9       0.2241      0.00000
     10       0.4019      0.00000
     11       8.1689      0.00000
     12       8.2138      0.00000

 k-point    37 :       0.3810    0.1905    0.0000
  band No.  band energies     occupation 
      1     -18.2582      2.00000
      2     -18.2450      2.00000
      3      -9.8415      2.00000
      4      -9.8368      2.00000
      5      -8.4061      2.00000
      6      -8.4025      2.00000
      7      -6.0109      2.00000
      8      -5.8188      2.00000
      9       4.0865      0.00000
     10       4.1722      0.00000
     11       5.4071      0.00000
     12       5.9823      0.00000

 k-point    38 :       0.4286    0.1905    0.0000
  band No.  band energies     occupation 
      1     -17.5876      2.00000
      2     -17.5752      2.00000
      3     -10.7516      2.00000
      4     -10.7462      2.00000
      5      -9.0543      2.00000
      6      -9.0503      2.00000
      7      -5.2552      2.00000
      8      -5.0737      2.00000
      9       3.0036      0.00000
     10       3.1009      0.00000
     11       6.3289      0.00000
     12       6.9095      0.00000

 k-point    39 :       0.4762    0.1905    0.0000
  band No.  band energies     occupation 
      1     -16.8284      2.00000
      2     -16.8168      2.00000
      3     -11.7779      2.00000
      4     -11.7715      2.00000
      5      -9.4943      2.00000
      6      -9.4900      2.00000
      7      -4.4326      2.00000
      8      -4.2645      2.00000
      9       1.9136      0.00000
     10       2.0267      0.00000
     11       7.3785      0.00000
     12       7.9598      0.00000

 k-point    40 :      -0.4762    0.1905    0.0000
  band No.  band energies     occupation 
      1     -15.9972      2.00000
      2     -15.9865      2.00000
      3     -12.8266      2.00000
      4     -12.8193      2.00000
      5      -9.7656      2.00000
      6      -9.7612      2.00000
      7      -3.6087      2.00000
      8      -3.4570      2.00000
      9       0.8988      0.00000
     10       1.0314      0.00000
     11       8.5345      0.00000
     12       9.0978      0.00000

 k-point    41 :      -0.4286    0.1905    0.0000
  band No.  band energies     occupation 
      1     -15.1769      2.00000
      2     -15.1669      2.00000
      3     -13.7658      2.00000
      4     -13.7576      2.00000
      5      -9.8961      2.00000
      6      -9.8917      2.00000
      7      -2.9797      2.00000
      8      -2.8452      2.00000
      9       0.1700      0.00000
     10       0.3217      0.00000
     11       9.3840      0.00000
     12       9.4746      0.00000

 k-point    42 :       0.4762    0.2381    0.0000
  band No.  band energies     occupation 
      1     -16.8785      2.00000
      2     -16.8669      2.00000
      3     -11.4068      2.00000
      4     -11.4009      2.00000
      5      -9.8671      2.00000
      6      -9.8624      2.00000
      7      -4.4716      2.00000
      8      -4.3018      2.00000
      9       2.0391      0.00000
     10       2.1406      0.00000
     11       7.3086      0.00000
     12       7.8803      0.00000

 k-point    43 :      -0.4762    0.2381    0.0000
  band No.  band energies     occupation 
      1     -16.0900      2.00000
      2     -16.0792      2.00000
      3     -12.2214      2.00000
      4     -12.2147      2.00000
      5     -10.4151      2.00000
      6     -10.4100      2.00000
      7      -3.6382      2.00000
      8      -3.4825      2.00000
      9       1.0726      0.00000
     10       1.1837      0.00000
     11       8.3952      0.00000
     12       8.9284      0.00000

 k-point    44 :      -0.4286    0.2381    0.0000
  band No.  band energies     occupation 
      1     -15.2547      2.00000
      2     -15.2447      2.00000
      3     -13.1277      2.00000
      4     -13.1201      2.00000
      5     -10.7003      2.00000
      6     -10.6950      2.00000
      7      -2.8479      2.00000
      8      -2.7082      2.00000
      9       0.1997      0.00000
     10       0.3248      0.00000
     11       9.2845      0.00000
     12       9.6845      0.00000

 k-point    45 :      -0.3810    0.2381    0.0000
  band No.  band energies     occupation 
      1     -14.6612      2.00000
      2     -14.6518      2.00000
      3     -13.7546      2.00000
      4     -13.7464      2.00000
      5     -10.7876      2.00000
      6     -10.7822      2.00000
      7      -2.4389      2.00000
      8      -2.3102      2.00000
      9      -0.2375      0.00000
     10      -0.1019      0.00000
     11       9.3675      0.00000
     12      10.2266      0.00000

 k-point    46 :      -0.4286    0.2857    0.0000
  band No.  band energies     occupation 
      1     -15.2893      2.00000
      2     -15.2793      2.00000
      3     -12.7482      2.00000
      4     -12.7409      2.00000
      5     -11.1305      2.00000
      6     -11.1247      2.00000
      7      -2.8080      2.00000
      8      -2.6656      2.00000
      9       0.2243      0.00000
     10       0.3379      0.00000
     11       9.1274      0.00000
     12       9.6078      0.00000

 k-point    47 :      -0.3810    0.2857    0.0000
  band No.  band energies     occupation 
      1     -14.4974      2.00000
      2     -14.4882      2.00000
      3     -13.4125      2.00000
      4     -13.4045      2.00000
      5     -11.4855      2.00000
      6     -11.4795      2.00000
      7      -2.0637      2.00000
      8      -1.9344      2.00000
      9      -0.5253      0.00000
     10      -0.4042      0.00000
     11       9.0758      0.00000
     12       9.9812      0.00000

 k-point    48 :      -0.3333    0.3333    0.0000
  band No.  band energies     occupation 
      1     -13.8374      2.00000
      2     -13.8374      2.00000
      3     -13.8290      2.00000
      4     -13.8290      2.00000
      5     -11.8273      2.00000
      6     -11.8210      2.00000
      7      -1.2825      2.00000
      8      -1.2825      2.00000
      9      -1.1601      0.00000
     10      -1.1600      0.00000
     11       8.9591      0.00000
     12       9.8997      0.00000


--------------------------------------------------------------------------------------------------------


 soft charge-density along one line, spin component           1
         0         1         2         3         4         5         6         7         8         9
 total charge-density along one line
 
 pseudopotential strength for first ion, spin component:           1
 10.124  13.461  -0.000  -0.000   0.000   0.000   0.000  -0.000
 13.461  17.898  -0.000  -0.000   0.000   0.000   0.000  -0.000
 -0.000  -0.000  -4.266  -0.000  -0.000   8.344   0.000   0.000
 -0.000  -0.000  -0.000  -4.258  -0.000   0.000   8.334   0.000
  0.000   0.000  -0.000  -0.000  -4.266   0.000   0.000   8.344
  0.000   0.000   8.344   0.000   0.000 -18.452  -0.000  -0.000
  0.000   0.000   0.000   8.334   0.000  -0.000 -18.443  -0.000
 -0.000  -0.000   0.000   0.000   8.344  -0.000  -0.000 -18.452
 total augmentation occupancy for first ion, spin component:           1
  8.117  -3.602   0.000  -0.000   0.000   0.000   0.000   0.000
 -3.602   1.656   0.000   0.000  -0.000   0.000  -0.000   0.000
  0.000   0.000   1.837   0.000   0.000   0.173   0.000   0.000
 -0.000   0.000  -0.000   1.199  -0.000  -0.000   0.073  -0.000
 -0.000  -0.000   0.000  -0.000   1.837   0.000  -0.000   0.173
 -0.000   0.000   0.173   0.000   0.000   0.018  -0.000   0.000
  0.000  -0.000  -0.000   0.073   0.000  -0.000   0.005   0.000
  0.000   0.000   0.000  -0.000   0.173   0.000   0.000   0.018


------------------------ aborting loop because EDIFF is reached ----------------------------------------


    CHARGE:  cpu time    0.1756: real time    0.1760
    FORLOC:  cpu time    0.0058: real time    0.0058
    FORNL :  cpu time    0.3377: real time    0.3386
    STRESS:  cpu time    1.3514: real time    1.3547
    FORCOR:  cpu time    0.0730: real time    0.0733
    FORHAR:  cpu time    0.0193: real time    0.0193
    MIXING:  cpu time    0.0043: real time    0.0043
    OFIELD:  cpu time    0.0000: real time    0.0000

  FORCE on cell =-STRESS in cart. coord.  units (eV):
  Direction    XX          YY          ZZ          XY          YZ          ZX
  --------------------------------------------------------------------------------------
  Alpha Z    12.54445    12.54445    12.54445
  Ewald    3098.61298  3098.61174 -3637.76465    -0.00000    -0.00000     0.00000
  Hartree  3061.30131  3061.30130 -3038.76521     0.00000    -0.00000    -0.00000
  E(xc)     -59.52170   -59.52170   -61.75010    -0.00000    -0.00000     0.00000
  Local   -6337.22143 -6337.22082  6464.82104    -0.00000     0.00000     0.00000
  n-local   -14.82504   -13.75026   -13.00723     0.71038    -0.00000    -0.00000
  augment    -1.57107    -1.57107    -1.44411     0.00000     0.00000    -0.00000
  Kinetic   245.07376   236.87204   275.33299    -6.59873     0.00000     0.00000
  Fock        0.00000     0.00000     0.00000     0.00000     0.00000     0.00000
  -------------------------------------------------------------------------------------
  Total       0.82947     0.82947    -0.03283     0.00000     0.00000    -0.00000
  in kB      12.68389    12.68389    -0.50197     0.00000     0.00000    -0.00000
  external pressure =        8.29 kB  Pullay stress =        0.00 kB


 VOLUME and BASIS-vectors are now :
 -----------------------------------------------------------------------------
  energy-cutoff  :      800.00
  volume of cell :      104.78
      direct lattice vectors                 reciprocal lattice vectors
     2.130000000 -1.229756000  0.000000000     0.234741784 -0.406584721  0.000000000
     2.130000000  1.229756000  0.000000000     0.234741784  0.406584721  0.000000000
     0.000000000  0.000000000 20.000000000     0.000000000  0.000000000  0.050000000

  length of vectors
     2.459512110  2.459512110 20.000000000     0.469483589  0.469483589  0.050000000


 FORCES acting on ions
    electron-ion (+dipol)            ewald-force                    non-local-force                 convergence-correction
 -----------------------------------------------------------------------------------------------
   -.879E-05 0.118E-11 0.315E+03   -.241E-03 0.682E-14 -.315E+03   -.866E-16 -.194E-16 -.221E-02   -.190E-09 0.272E-14 -.314E-04
   0.262E-03 0.599E-12 0.315E+03   0.241E-03 -.439E-14 -.315E+03   0.399E-16 0.793E-16 -.221E-02   0.327E-09 -.109E-14 -.314E-04
   -.880E-05 0.661E-12 -.315E+03   -.241E-03 0.667E-14 0.315E+03   -.252E-16 0.136E-16 0.221E-02   -.189E-09 0.158E-14 0.314E-04
   0.262E-03 0.241E-13 -.315E+03   0.241E-03 -.454E-14 0.315E+03   0.210E-16 0.311E-16 0.221E-02   0.326E-09 -.106E-14 0.314E-04
 -----------------------------------------------------------------------------------------------
   0.506E-03 0.247E-11 -.130E-03   0.858E-14 0.456E-14 0.000E+00   -.509E-16 0.105E-15 0.000E+00   0.274E-09 0.215E-14 -.118E-09
 
 
 POSITION                                       TOTAL-FORCE (eV/Angst)
 -----------------------------------------------------------------------------------
      0.00000      0.00000      0.00000         0.000000     -0.000000     -0.001335
      1.42000      0.00000      0.00000         0.000000      0.000000     -0.001335
      0.00000      0.00000      4.30000        -0.000000      0.000000      0.001335
      1.42000      0.00000      4.30000        -0.000000     -0.000000      0.001335
 -----------------------------------------------------------------------------------
    total drift:                                0.000506      0.000000     -0.000130


--------------------------------------------------------------------------------------------------------



  FREE ENERGIE OF THE ION-ELECTRON SYSTEM (eV)
  ---------------------------------------------------
  free  energy   TOTEN  =       -36.93083252 eV

  energy  without entropy=      -36.93083252  energy(sigma->0) =      -36.93083252
 


--------------------------------------------------------------------------------------------------------


    POTLOK:  cpu time    0.1053: real time    0.1056


--------------------------------------------------------------------------------------------------------


     LOOP+:  cpu time   41.1050: real time   41.4043
    4ORBIT:  cpu time    0.0000: real time    0.0000

 total amount of memory used by VASP MPI-rank0   107376. kBytes
=======================================================================

   base      :      30000. kBytes
   nonl-proj :      16997. kBytes
   fftplans  :      32720. kBytes
   grid      :      15086. kBytes
   one-center:         12. kBytes
   wavefun   :      12561. kBytes
 
  
  
 General timing and accounting informations for this job:
 ========================================================
  
                  Total CPU time used (sec):       43.090
                            User time (sec):       42.323
                          System time (sec):        0.767
                         Elapsed time (sec):       43.782
  
                   Maximum memory used (kb):      172620.
                   Average memory used (kb):           0.
  
                          Minor page faults:       178904
                          Major page faults:            0
                 Voluntary context switches:         3471
