<?xml version="1.0" encoding="ISO-8859-1"?>
<modeling>
 <generator>
  <i name="program" type="string">vasp </i>
  <i name="version" type="string">5.4.4.18Apr17-6-g9f103f2a35  </i>
  <i name="subversion" type="string">(build May 31 2018 21:15:54) complex            parallel </i>
  <i name="platform" type="string">c7_intel_O1 </i>
  <i name="date" type="string">2020 07 23 </i>
  <i name="time" type="string">19:26:11 </i>
 </generator>
 <incar>
  <i type="string" name="SYSTEM"> C:graphene</i>
  <i type="int" name="ISTART">     0</i>
  <i type="string" name="PREC">accurate</i>
  <i type="string" name="ALGO"> N</i>
  <i type="logical" name="ADDGRID"> T  </i>
  <i name="AMIN">      0.01000000</i>
  <i type="int" name="NELMIN">     5</i>
  <i type="int" name="IBRION">    -1</i>
  <i name="EDIFF">      0.00000001</i>
  <i name="EDIFFG">      0.00000010</i>
  <i type="int" name="NSW">     1</i>
  <i name="SYMPREC">      0.00010000</i>
  <i name="ENCUT">    800.00000000</i>
  <i type="logical" name="LREAL"> F  </i>
  <i type="int" name="ISMEAR">     0</i>
  <i name="SIGMA">      0.01000000</i>
  <i type="logical" name="LWAVE"> F  </i>
  <v type="int" name="KPOINT_BSE">    -1     0     0     0</v>
 </incar>
 <structure name="primitive_cell" >
  <crystal>
   <varray name="basis" >
    <v>       2.13000000      -1.22975600       0.00000000 </v>
    <v>       2.13000000       1.22975600       0.00000000 </v>
    <v>       0.00000000       0.00000000      20.00000000 </v>
   </varray>
   <i name="volume">    104.77521120 </i>
   <varray name="rec_basis" >
    <v>       0.23474178      -0.40658472       0.00000000 </v>
    <v>       0.23474178       0.40658472       0.00000000 </v>
    <v>       0.00000000       0.00000000       0.05000000 </v>
   </varray>
  </crystal>
  <varray name="positions" >
   <v>       0.00000000       0.00000000       0.00000000 </v>
   <v>       0.33333300       0.33333300       0.00000000 </v>
   <v>       0.00000000       0.00000000       0.25000000 </v>
   <v>       0.33333300       0.33333300       0.25000000 </v>
  </varray>
 </structure>
 <varray name="primitive_index" >
  <v type="int" >        1 </v>
  <v type="int" >        2 </v>
  <v type="int" >        3 </v>
  <v type="int" >        4 </v>
 </varray>
 <kpoints>
  <generation param="Gamma">
   <v type="int" name="divisions">      21       21        1 </v>
   <v name="usershift">      0.00000000       0.00000000       0.00000000 </v>
   <v name="genvec1">      0.04761905       0.00000000       0.00000000 </v>
   <v name="genvec2">      0.00000000       0.04761905       0.00000000 </v>
   <v name="genvec3">      0.00000000       0.00000000       1.00000000 </v>
   <v name="shift">      0.00000000       0.00000000       0.00000000 </v>
  </generation>
  <varray name="kpointlist" >
   <v>       0.00000000       0.00000000       0.00000000 </v>
   <v>       0.04761905       0.00000000       0.00000000 </v>
   <v>       0.09523810       0.00000000       0.00000000 </v>
   <v>       0.14285714       0.00000000       0.00000000 </v>
   <v>       0.19047619       0.00000000       0.00000000 </v>
   <v>       0.23809524       0.00000000       0.00000000 </v>
   <v>       0.28571429       0.00000000       0.00000000 </v>
   <v>       0.33333333       0.00000000       0.00000000 </v>
   <v>       0.38095238       0.00000000       0.00000000 </v>
   <v>       0.42857143       0.00000000       0.00000000 </v>
   <v>       0.47619048       0.00000000       0.00000000 </v>
   <v>       0.09523810       0.04761905       0.00000000 </v>
   <v>       0.14285714       0.04761905       0.00000000 </v>
   <v>       0.19047619       0.04761905       0.00000000 </v>
   <v>       0.23809524       0.04761905       0.00000000 </v>
   <v>       0.28571429       0.04761905       0.00000000 </v>
   <v>       0.33333333       0.04761905       0.00000000 </v>
   <v>       0.38095238       0.04761905       0.00000000 </v>
   <v>       0.42857143       0.04761905       0.00000000 </v>
   <v>       0.47619048       0.04761905       0.00000000 </v>
   <v>      -0.47619048       0.04761905       0.00000000 </v>
   <v>       0.19047619       0.09523810       0.00000000 </v>
   <v>       0.23809524       0.09523810       0.00000000 </v>
   <v>       0.28571429       0.09523810       0.00000000 </v>
   <v>       0.33333333       0.09523810       0.00000000 </v>
   <v>       0.38095238       0.09523810       0.00000000 </v>
   <v>       0.42857143       0.09523810       0.00000000 </v>
   <v>       0.47619048       0.09523810       0.00000000 </v>
   <v>      -0.47619048       0.09523810       0.00000000 </v>
   <v>       0.28571429       0.14285714       0.00000000 </v>
   <v>       0.33333333       0.14285714       0.00000000 </v>
   <v>       0.38095238       0.14285714       0.00000000 </v>
   <v>       0.42857143       0.14285714       0.00000000 </v>
   <v>       0.47619048       0.14285714       0.00000000 </v>
   <v>      -0.47619048       0.14285714       0.00000000 </v>
   <v>      -0.42857143       0.14285714       0.00000000 </v>
   <v>       0.38095238       0.19047619       0.00000000 </v>
   <v>       0.42857143       0.19047619       0.00000000 </v>
   <v>       0.47619048       0.19047619       0.00000000 </v>
   <v>      -0.47619048       0.19047619       0.00000000 </v>
   <v>      -0.42857143       0.19047619       0.00000000 </v>
   <v>       0.47619048       0.23809524       0.00000000 </v>
   <v>      -0.47619048       0.23809524       0.00000000 </v>
   <v>      -0.42857143       0.23809524       0.00000000 </v>
   <v>      -0.38095238       0.23809524       0.00000000 </v>
   <v>      -0.42857143       0.28571429       0.00000000 </v>
   <v>      -0.38095238       0.28571429       0.00000000 </v>
   <v>      -0.33333333       0.33333333       0.00000000 </v>
  </varray>
  <varray name="weights" >
   <v>       0.00226757 </v>
   <v>       0.01360544 </v>
   <v>       0.01360544 </v>
   <v>       0.01360544 </v>
   <v>       0.01360544 </v>
   <v>       0.01360544 </v>
   <v>       0.01360544 </v>
   <v>       0.01360544 </v>
   <v>       0.01360544 </v>
   <v>       0.01360544 </v>
   <v>       0.01360544 </v>
   <v>       0.01360544 </v>
   <v>       0.02721088 </v>
   <v>       0.02721088 </v>
   <v>       0.02721088 </v>
   <v>       0.02721088 </v>
   <v>       0.02721088 </v>
   <v>       0.02721088 </v>
   <v>       0.02721088 </v>
   <v>       0.02721088 </v>
   <v>       0.01360544 </v>
   <v>       0.01360544 </v>
   <v>       0.02721088 </v>
   <v>       0.02721088 </v>
   <v>       0.02721088 </v>
   <v>       0.02721088 </v>
   <v>       0.02721088 </v>
   <v>       0.02721088 </v>
   <v>       0.02721088 </v>
   <v>       0.01360544 </v>
   <v>       0.02721088 </v>
   <v>       0.02721088 </v>
   <v>       0.02721088 </v>
   <v>       0.02721088 </v>
   <v>       0.02721088 </v>
   <v>       0.01360544 </v>
   <v>       0.01360544 </v>
   <v>       0.02721088 </v>
   <v>       0.02721088 </v>
   <v>       0.02721088 </v>
   <v>       0.02721088 </v>
   <v>       0.01360544 </v>
   <v>       0.02721088 </v>
   <v>       0.02721088 </v>
   <v>       0.01360544 </v>
   <v>       0.01360544 </v>
   <v>       0.02721088 </v>
   <v>       0.00453515 </v>
  </varray>
 </kpoints>
 <parameters>
  <separator name="general" >
   <i type="string" name="SYSTEM">C:graphene</i>
   <i type="logical" name="LCOMPAT"> F  </i>
  </separator>
  <separator name="electronic" >
   <i type="string" name="PREC">accura</i>
   <i name="ENMAX">    800.00000000</i>
   <i name="ENAUG">    644.87300000</i>
   <i name="EDIFF">      0.00000001</i>
   <i type="int" name="IALGO">    38</i>
   <i type="int" name="IWAVPR">    10</i>
   <i type="int" name="NBANDS">    12</i>
   <i name="NELECT">     16.00000000</i>
   <i type="int" name="TURBO">     0</i>
   <i type="int" name="IRESTART">     0</i>
   <i type="int" name="NREBOOT">     0</i>
   <i type="int" name="NMIN">     0</i>
   <i name="EREF">      0.00000000</i>
   <separator name="electronic smearing" >
    <i type="int" name="ISMEAR">     0</i>
    <i name="SIGMA">      0.01000000</i>
    <i name="KSPACING">      0.50000000</i>
    <i type="logical" name="KGAMMA"> T  </i>
   </separator>
   <separator name="electronic projectors" >
    <i type="logical" name="LREAL"> F  </i>
    <v name="ROPT">      0.00000000</v>
    <i type="int" name="LMAXPAW">  -100</i>
    <i type="int" name="LMAXMIX">     2</i>
    <i type="logical" name="NLSPLINE"> F  </i>
   </separator>
   <separator name="electronic startup" >
    <i type="int" name="ISTART">     0</i>
    <i type="int" name="ICHARG">     2</i>
    <i type="int" name="INIWAV">     1</i>
   </separator>
   <separator name="electronic spin" >
    <i type="int" name="ISPIN">     1</i>
    <i type="logical" name="LNONCOLLINEAR"> F  </i>
    <v name="MAGMOM">      1.00000000      1.00000000      1.00000000      1.00000000</v>
    <i name="NUPDOWN">     -1.00000000</i>
    <i type="logical" name="LSORBIT"> F  </i>
    <v name="SAXIS">      0.00000000      0.00000000      1.00000000</v>
    <i type="logical" name="LSPIRAL"> F  </i>
    <v name="QSPIRAL">      0.00000000      0.00000000      0.00000000</v>
    <i type="logical" name="LZEROZ"> F  </i>
   </separator>
   <separator name="electronic exchange-correlation" >
    <i type="logical" name="LASPH"> F  </i>
    <i type="logical" name="LMETAGGA"> F  </i>
   </separator>
   <separator name="electronic convergence" >
    <i type="int" name="NELM">    60</i>
    <i type="int" name="NELMDL">    -5</i>
    <i type="int" name="NELMIN">     5</i>
    <i name="ENINI">    800.00000000</i>
    <separator name="electronic convergence detail" >
     <i type="logical" name="LDIAG"> T  </i>
     <i type="logical" name="LSUBROT"> F  </i>
     <i name="WEIMIN">      0.00000000</i>
     <i name="EBREAK">      0.00000000</i>
     <i name="DEPER">      0.30000000</i>
     <i type="int" name="NRMM">     4</i>
     <i name="TIME">      0.40000000</i>
    </separator>
   </separator>
   <separator name="electronic mixer" >
    <i name="AMIX">      0.40000000</i>
    <i name="BMIX">      1.00000000</i>
    <i name="AMIN">      0.01000000</i>
    <i name="AMIX_MAG">      1.60000000</i>
    <i name="BMIX_MAG">      1.00000000</i>
    <separator name="electronic mixer details" >
     <i type="int" name="IMIX">     4</i>
     <i type="logical" name="MIXFIRST"> F  </i>
     <i type="int" name="MAXMIX">   -45</i>
     <i name="WC">    100.00000000</i>
     <i type="int" name="INIMIX">     1</i>
     <i type="int" name="MIXPRE">     1</i>
     <i type="int" name="MREMOVE">     5</i>
    </separator>
   </separator>
   <separator name="electronic dipolcorrection" >
    <i type="logical" name="LDIPOL"> F  </i>
    <i type="logical" name="LMONO"> F  </i>
    <i type="int" name="IDIPOL">     0</i>
    <i name="EPSILON">      1.00000000</i>
    <v name="DIPOL">   -100.00000000   -100.00000000   -100.00000000</v>
    <i name="EFIELD">      0.00000000</i>
   </separator>
  </separator>
  <separator name="grids" >
   <i type="int" name="NGX">    24</i>
   <i type="int" name="NGY">    24</i>
   <i type="int" name="NGZ">   192</i>
   <i type="int" name="NGXF">    48</i>
   <i type="int" name="NGYF">    48</i>
   <i type="int" name="NGZF">   384</i>
   <i type="logical" name="ADDGRID"> T  </i>
  </separator>
  <separator name="ionic" >
   <i type="int" name="NSW">     1</i>
   <i type="int" name="IBRION">    -1</i>
   <i type="int" name="MDALGO">     0</i>
   <i type="int" name="ISIF">     2</i>
   <i name="PSTRESS">      0.00000000</i>
   <i name="EDIFFG">      0.00000010</i>
   <i type="int" name="NFREE">     0</i>
   <i name="POTIM">      0.50000000</i>
   <i name="SMASS">     -3.00000000</i>
   <i name="SCALEE">      1.00000000</i>
  </separator>
  <separator name="ionic md" >
   <i name="TEBEG">      0.00010000</i>
   <i name="TEEND">      0.00010000</i>
   <i type="int" name="NBLOCK">     1</i>
   <i type="int" name="KBLOCK">     1</i>
   <i type="int" name="NPACO">   256</i>
   <i name="APACO">     16.00000000</i>
  </separator>
  <separator name="symmetry" >
   <i type="int" name="ISYM">     2</i>
   <i name="SYMPREC">      0.00010000</i>
  </separator>
  <separator name="dos" >
   <i type="int" name="LORBIT">     0</i>
   <v name="RWIGS">     -1.00000000</v>
   <i type="int" name="NEDOS">   301</i>
   <i name="EMIN">     10.00000000</i>
   <i name="EMAX">    -10.00000000</i>
   <i name="EFERMI">      0.00000000</i>
  </separator>
  <separator name="writing" >
   <i type="int" name="NWRITE">     2</i>
   <i type="logical" name="LWAVE"> F  </i>
   <i type="logical" name="LDOWNSAMPLE"> F  </i>
   <i type="logical" name="LCHARG"> T  </i>
   <i type="logical" name="LPARD"> F  </i>
   <i type="logical" name="LVTOT"> F  </i>
   <i type="logical" name="LVHAR"> F  </i>
   <i type="logical" name="LELF"> F  </i>
   <i type="logical" name="LOPTICS"> F  </i>
   <v name="STM">      0.00000000      0.00000000      0.00000000      0.00000000      0.00000000      0.00000000      0.00000000</v>
  </separator>
  <separator name="performance" >
   <i type="int" name="NPAR">     4</i>
   <i type="int" name="NSIM">     4</i>
   <i type="int" name="NBLK">    -1</i>
   <i type="logical" name="LPLANE"> T  </i>
   <i type="logical" name="LSCALAPACK"> T  </i>
   <i type="logical" name="LSCAAWARE"> F  </i>
   <i type="logical" name="LSCALU"> F  </i>
   <i type="logical" name="LASYNC"> F  </i>
   <i type="logical" name="LORBITALREAL"> F  </i>
  </separator>
  <separator name="miscellaneous" >
   <i type="int" name="IDIOT">     3</i>
   <i type="int" name="ISPECIAL">     0</i>
   <i type="logical" name="LMUSIC"> F  </i>
   <v name="POMASS">     12.01100000</v>
   <v name="DARWINR">      0.00000000</v>
   <v name="DARWINV">      1.00000000</v>
   <i type="logical" name="LCORR"> T  </i>
  </separator>
  <i type="logical" name="GGA_COMPAT"> T  </i>
  <i type="logical" name="LBERRY"> F  </i>
  <i type="int" name="ICORELEVEL">     0</i>
  <i type="logical" name="LDAU"> F  </i>
  <i type="int" name="I_CONSTRAINED_M">     0</i>
  <separator name="electronic exchange-correlation" >
   <i type="string" name="GGA">--</i>
   <i type="int" name="VOSKOWN">     0</i>
   <i type="logical" name="LHFCALC"> F  </i>
   <i type="string" name="PRECFOCK"></i>
   <i type="logical" name="LSYMGRAD"> F  </i>
   <i type="logical" name="LHFONE"> F  </i>
   <i type="logical" name="LRHFCALC"> F  </i>
   <i type="logical" name="LTHOMAS"> F  </i>
   <i type="logical" name="LMODELHF"> F  </i>
   <i name="ENCUT4O">     -1.00000000</i>
   <i type="int" name="EXXOEP">     0</i>
   <i type="int" name="FOURORBIT">     0</i>
   <i name="AEXX">      0.00000000</i>
   <i name="HFALPHA">      0.00000000</i>
   <i name="MCALPHA">      0.00000000</i>
   <i name="ALDAX">      1.00000000</i>
   <i name="AGGAX">      1.00000000</i>
   <i name="ALDAC">      1.00000000</i>
   <i name="AGGAC">      1.00000000</i>
   <i type="int" name="NKREDX">     1</i>
   <i type="int" name="NKREDY">     1</i>
   <i type="int" name="NKREDZ">     1</i>
   <i type="logical" name="SHIFTRED"> F  </i>
   <i type="logical" name="ODDONLY"> F  </i>
   <i type="logical" name="EVENONLY"> F  </i>
   <i type="int" name="LMAXFOCK">     0</i>
   <i type="int" name="NMAXFOCKAE">     0</i>
   <i type="logical" name="LFOCKAEDFT"> F  </i>
   <i name="HFSCREEN">      0.00000000</i>
   <i name="HFSCREENC">      0.00000000</i>
   <i type="int" name="NBANDSGWLOW">     0</i>
  </separator>
  <separator name="vdW DFT" >
   <i type="logical" name="LUSE_VDW"> F  </i>
   <i name="Zab_VDW">     -0.84910000</i>
   <i name="PARAM1">      0.12340000</i>
   <i name="PARAM2">      1.00000000</i>
   <i name="PARAM3">      0.00000000</i>
  </separator>
  <separator name="model GW" >
   <i type="int" name="MODEL_GW">     0</i>
   <i name="MODEL_EPS0">     15.71628168</i>
   <i name="MODEL_ALPHA">      1.00000000</i>
  </separator>
  <separator name="linear response parameters" >
   <i type="logical" name="LEPSILON"> F  </i>
   <i type="logical" name="LRPA"> F  </i>
   <i type="logical" name="LNABLA"> F  </i>
   <i type="logical" name="LVEL"> F  </i>
   <i type="int" name="KINTER">     0</i>
   <i name="CSHIFT">      0.10000000</i>
   <i name="OMEGAMAX">     -1.00000000</i>
   <i name="DEG_THRESHOLD">      0.00200000</i>
   <i name="RTIME">     -0.10000000</i>
   <i name="WPLASMAI">      0.00000000</i>
   <v name="DFIELD">      0.00000000      0.00000000      0.00000000</v>
   <v name="WPLASMA">      0.00000000      0.00000000      0.00000000      0.00000000      0.00000000      0.00000000      0.00000000      0.00000000      0.00000000</v>
  </separator>
  <separator name="orbital magnetization" >
   <i type="logical" name="NUCIND"> F  </i>
   <v name="MAGPOS">      0.00000000      0.00000000      0.00000000</v>
   <i type="logical" name="LNICSALL"> T  </i>
   <i type="logical" name="ORBITALMAG"> F  </i>
   <i type="logical" name="LMAGBLOCH"> F  </i>
   <i type="logical" name="LCHIMAG"> F  </i>
   <i type="logical" name="LGAUGE"> T  </i>
   <i type="int" name="MAGATOM">     0</i>
   <v name="MAGDIPOL">      0.00000000      0.00000000      0.00000000</v>
   <v name="AVECCONST">      0.00000000      0.00000000      0.00000000</v>
  </separator>
  <separator name="response functions" >
   <i type="logical" name="LADDER"> F  </i>
   <i type="logical" name="LRPAFORCE"> F  </i>
   <i type="logical" name="LFXC"> F  </i>
   <i type="logical" name="LHARTREE"> T  </i>
   <i type="int" name="IBSE">     0</i>
   <v type="int" name="KPOINT">    -1     0     0     0</v>
   <i type="logical" name="LTCTE"> F  </i>
   <i type="logical" name="LTETE"> F  </i>
   <i type="logical" name="LTRIPLET"> F  </i>
   <i type="logical" name="LFXCEPS"> F  </i>
   <i type="logical" name="LFXHEG"> F  </i>
   <i type="int" name="NATURALO">     2</i>
   <i type="logical" name="L2ORDER"> F  </i>
   <i type="logical" name="LMP2LT"> F  </i>
   <i type="logical" name="LUSEW"> F  </i>
   <i name="ENCUTGW">     -2.00000000</i>
   <i name="ENCUTGWSOFT">     -2.00000000</i>
   <i name="ENCUTLF">     -1.00000000</i>
   <i type="int" name="LMAXMP2">    -1</i>
   <i name="SCISSOR">      0.00000000</i>
   <i type="int" name="NOMEGA">     0</i>
   <i type="int" name="NOMEGAR">     0</i>
   <i type="int" name="NBANDSGW">    -1</i>
   <i type="int" name="NBANDSO">    -1</i>
   <i type="int" name="NBANDSV">    -1</i>
   <i type="int" name="NELM">     1</i>
   <i type="int" name="NELMHF">     1</i>
   <i type="int" name="DIM">     3</i>
   <i type="int" name="ANTIRES">     0</i>
   <i name="OMEGAMAX">    -30.00000000</i>
   <i name="OMEGAMIN">    -30.00000000</i>
   <i name="OMEGATL">   -200.00000000</i>
   <i type="int" name="OMEGAGRID">   140</i>
   <i name="CSHIFT">     -0.10000000</i>
   <i type="logical" name="SELFENERGY"> F  </i>
   <i type="logical" name="LSPECTRAL"> F  </i>
   <i type="logical" name="LSPECTRALGW"> F  </i>
   <i type="logical" name="LSINGLES"> F  </i>
   <i type="logical" name="LFERMIGW"> F  </i>
   <i type="logical" name="ODDONLYGW"> F  </i>
   <i type="logical" name="EVENONLYGW"> F  </i>
   <i type="int" name="NKREDLFX">     1</i>
   <i type="int" name="NKREDLFY">     1</i>
   <i type="int" name="NKREDLFZ">     1</i>
   <i type="int" name="MAXMEM">  2800</i>
   <i type="int" name="TELESCOPE">     0</i>
   <i type="int" name="TAUPAR">     1</i>
   <i type="int" name="OMEGAPAR">    -1</i>
   <i name="LAMBDA">      1.00000000</i>
  </separator>
  <separator name="External order field" >
   <i name="OFIELD_KAPPA">      0.00000000</i>
   <v name="OFIELD_K">      0.00000000      0.00000000      0.00000000</v>
   <i name="OFIELD_Q6_NEAR">      0.00000000</i>
   <i name="OFIELD_Q6_FAR">      0.00000000</i>
   <i name="OFIELD_A">      0.00000000</i>
  </separator>
 </parameters>
 <atominfo>
  <atoms>       4 </atoms>
  <types>       1 </types>
  <array name="atoms" >
   <dimension dim="1">ion</dimension>
   <field type="string">element</field>
   <field type="int">atomtype</field>
   <set>
    <rc><c>C </c><c>   1</c></rc>
    <rc><c>C </c><c>   1</c></rc>
    <rc><c>C </c><c>   1</c></rc>
    <rc><c>C </c><c>   1</c></rc>
   </set>
  </array>
  <array name="atomtypes" >
   <dimension dim="1">type</dimension>
   <field type="int">atomspertype</field>
   <field type="string">element</field>
   <field>mass</field>
   <field>valence</field>
   <field type="string">pseudopotential</field>
   <set>
    <rc><c>   4</c><c>C </c><c>     12.01100000</c><c>      4.00000000</c><c>  PAW_PBE C 08Apr2002                   </c></rc>
   </set>
  </array>
 </atominfo>
 <structure name="initialpos" >
  <crystal>
   <varray name="basis" >
    <v>       2.13000000      -1.22975600       0.00000000 </v>
    <v>       2.13000000       1.22975600       0.00000000 </v>
    <v>       0.00000000       0.00000000      20.00000000 </v>
   </varray>
   <i name="volume">    104.77521120 </i>
   <varray name="rec_basis" >
    <v>       0.23474178      -0.40658472       0.00000000 </v>
    <v>       0.23474178       0.40658472       0.00000000 </v>
    <v>       0.00000000       0.00000000       0.05000000 </v>
   </varray>
  </crystal>
  <varray name="positions" >
   <v>       0.00000000       0.00000000       0.00000000 </v>
   <v>       0.33333300       0.33333300       0.00000000 </v>
   <v>       0.00000000       0.00000000       0.25000000 </v>
   <v>       0.33333300       0.33333300       0.25000000 </v>
  </varray>
  <varray name="velocities" >
   <v>       0.00000000       0.00000000       0.00000000 </v>
   <v>       0.00000000       0.00000000       0.00000000 </v>
   <v>       0.00000000       0.00000000       0.00000000 </v>
   <v>       0.00000000       0.00000000       0.00000000 </v>
  </varray>
 </structure>
 <calculation>
  <scstep>
   <time name="dav">    1.45    1.45</time>
   <time name="total">    1.57    1.59</time>
   <energy>
    <i name="alphaZ">     12.54445055 </i>
    <i name="ewald">   2145.51726299 </i>
    <i name="hartreedc">  -2607.28434386 </i>
    <i name="XCdc">     52.79485799 </i>
    <i name="pawpsdc">    434.08818552 </i>
    <i name="pawaedc">   -436.36580876 </i>
    <i name="eentropy">     -0.00012301 </i>
    <i name="bandstr">    -65.27918029 </i>
    <i name="atom">    588.61769381 </i>
    <i name="e_fr_energy">    124.63299494 </i>
    <i name="e_wo_entrp">    124.63311795 </i>
    <i name="e_0_energy">    124.63305644 </i>
   </energy>
  </scstep>
  <scstep>
   <time name="dav">    2.06    2.07</time>
   <time name="total">    2.06    2.07</time>
   <energy>
    <i name="e_fr_energy">    -25.65663328 </i>
    <i name="e_wo_entrp">    -25.65660770 </i>
    <i name="e_0_energy">    -25.65662049 </i>
   </energy>
  </scstep>
  <scstep>
   <time name="dav">    1.70    1.70</time>
   <time name="total">    1.70    1.70</time>
   <energy>
    <i name="e_fr_energy">    -39.23026367 </i>
    <i name="e_wo_entrp">    -39.23021039 </i>
    <i name="e_0_energy">    -39.23023703 </i>
   </energy>
  </scstep>
  <scstep>
   <time name="dav">    1.70    1.71</time>
   <time name="total">    1.70    1.71</time>
   <energy>
    <i name="e_fr_energy">    -39.52366384 </i>
    <i name="e_wo_entrp">    -39.52361326 </i>
    <i name="e_0_energy">    -39.52363855 </i>
   </energy>
  </scstep>
  <scstep>
   <time name="dav">    1.69    1.69</time>
   <time name="total">    1.88    1.88</time>
   <energy>
    <i name="e_fr_energy">    -39.53255363 </i>
    <i name="e_wo_entrp">    -39.53250357 </i>
    <i name="e_0_energy">    -39.53252860 </i>
   </energy>
  </scstep>
  <scstep>
   <time name="dav">    1.64    1.65</time>
   <time name="total">    1.95    1.95</time>
   <energy>
    <i name="e_fr_energy">    -37.65217336 </i>
    <i name="e_wo_entrp">    -37.65214764 </i>
    <i name="e_0_energy">    -37.65216050 </i>
   </energy>
  </scstep>
  <scstep>
   <time name="dav">    1.67    1.67</time>
   <time name="total">    1.96    1.96</time>
   <energy>
    <i name="e_fr_energy">    -36.93873383 </i>
    <i name="e_wo_entrp">    -36.93872856 </i>
    <i name="e_0_energy">    -36.93873120 </i>
   </energy>
  </scstep>
  <scstep>
   <time name="dav">    1.65    1.65</time>
   <time name="total">    1.94    1.94</time>
   <energy>
    <i name="e_fr_energy">    -36.93861475 </i>
    <i name="e_wo_entrp">    -36.93860868 </i>
    <i name="e_0_energy">    -36.93861172 </i>
   </energy>
  </scstep>
  <scstep>
   <time name="dav">    1.73    1.73</time>
   <time name="total">    2.02    2.02</time>
   <energy>
    <i name="e_fr_energy">    -36.93737826 </i>
    <i name="e_wo_entrp">    -36.93737238 </i>
    <i name="e_0_energy">    -36.93737532 </i>
   </energy>
  </scstep>
  <scstep>
   <time name="dav">    1.62    1.62</time>
   <time name="total">    1.91    1.91</time>
   <energy>
    <i name="e_fr_energy">    -36.93281786 </i>
    <i name="e_wo_entrp">    -36.93281277 </i>
    <i name="e_0_energy">    -36.93281532 </i>
   </energy>
  </scstep>
  <scstep>
   <time name="dav">    1.66    1.67</time>
   <time name="total">    1.96    1.96</time>
   <energy>
    <i name="e_fr_energy">    -36.93184350 </i>
    <i name="e_wo_entrp">    -36.93183837 </i>
    <i name="e_0_energy">    -36.93184093 </i>
   </energy>
  </scstep>
  <scstep>
   <time name="dav">    1.52    1.52</time>
   <time name="total">    1.81    1.82</time>
   <energy>
    <i name="e_fr_energy">    -36.92775210 </i>
    <i name="e_wo_entrp">    -36.92774633 </i>
    <i name="e_0_energy">    -36.92774921 </i>
   </energy>
  </scstep>
  <scstep>
   <time name="dav">    1.57    1.58</time>
   <time name="total">    1.86    1.87</time>
   <energy>
    <i name="e_fr_energy">    -36.92785579 </i>
    <i name="e_wo_entrp">    -36.92784980 </i>
    <i name="e_0_energy">    -36.92785279 </i>
   </energy>
  </scstep>
  <scstep>
   <time name="dav">    1.54    1.55</time>
   <time name="total">    1.82    1.83</time>
   <energy>
    <i name="e_fr_energy">    -36.92878484 </i>
    <i name="e_wo_entrp">    -36.92877868 </i>
    <i name="e_0_energy">    -36.92878176 </i>
   </energy>
  </scstep>
  <scstep>
   <time name="dav">    1.53    1.53</time>
   <time name="total">    1.81    1.81</time>
   <energy>
    <i name="e_fr_energy">    -36.92971383 </i>
    <i name="e_wo_entrp">    -36.92970770 </i>
    <i name="e_0_energy">    -36.92971077 </i>
   </energy>
  </scstep>
  <scstep>
   <time name="dav">    1.56    1.56</time>
   <time name="total">    1.85    1.85</time>
   <energy>
    <i name="e_fr_energy">    -36.92991325 </i>
    <i name="e_wo_entrp">    -36.92990719 </i>
    <i name="e_0_energy">    -36.92991022 </i>
   </energy>
  </scstep>
  <scstep>
   <time name="dav">    1.59    1.60</time>
   <time name="total">    1.88    1.89</time>
   <energy>
    <i name="e_fr_energy">    -36.92996126 </i>
    <i name="e_wo_entrp">    -36.92995522 </i>
    <i name="e_0_energy">    -36.92995824 </i>
   </energy>
  </scstep>
  <scstep>
   <time name="dav">    1.60    1.60</time>
   <time name="total">    1.88    1.89</time>
   <energy>
    <i name="e_fr_energy">    -36.92996644 </i>
    <i name="e_wo_entrp">    -36.92996041 </i>
    <i name="e_0_energy">    -36.92996342 </i>
   </energy>
  </scstep>
  <scstep>
   <time name="dav">    1.54    1.54</time>
   <time name="total">    1.82    1.83</time>
   <energy>
    <i name="e_fr_energy">    -36.92996804 </i>
    <i name="e_wo_entrp">    -36.92996201 </i>
    <i name="e_0_energy">    -36.92996503 </i>
   </energy>
  </scstep>
  <scstep>
   <time name="dav">    1.47    1.48</time>
   <time name="total">    1.76    1.77</time>
   <energy>
    <i name="e_fr_energy">    -36.92996838 </i>
    <i name="e_wo_entrp">    -36.92996234 </i>
    <i name="e_0_energy">    -36.92996536 </i>
   </energy>
  </scstep>
  <scstep>
   <time name="dav">    1.39    1.40</time>
   <time name="total">    1.68    1.68</time>
   <energy>
    <i name="e_fr_energy">    -36.92996853 </i>
    <i name="e_wo_entrp">    -36.92996250 </i>
    <i name="e_0_energy">    -36.92996552 </i>
   </energy>
  </scstep>
  <scstep>
   <time name="dav">    1.26    1.26</time>
   <time name="total">    1.55    1.56</time>
   <energy>
    <i name="e_fr_energy">    -36.92996855 </i>
    <i name="e_wo_entrp">    -36.92996252 </i>
    <i name="e_0_energy">    -36.92996553 </i>
   </energy>
  </scstep>
  <scstep>
   <time name="dav">    1.25    1.25</time>
   <time name="total">    1.35    1.36</time>
   <energy>
    <i name="alphaZ">     12.54445055 </i>
    <i name="ewald">   2145.51726299 </i>
    <i name="hartreedc">  -2669.89774744 </i>
    <i name="XCdc">     55.18498094 </i>
    <i name="pawpsdc">   1695.61154688 </i>
    <i name="pawaedc">  -1698.33418814 </i>
    <i name="eentropy">     -0.00000603 </i>
    <i name="bandstr">   -166.17396212 </i>
    <i name="atom">    588.61769381 </i>
    <i name="e_fr_energy">    -36.92996855 </i>
    <i name="e_wo_entrp">    -36.92996252 </i>
    <i name="e_0_energy">    -36.92996554 </i>
   </energy>
  </scstep>
  <structure>
   <crystal>
    <varray name="basis" >
     <v>       2.13000000      -1.22975600       0.00000000 </v>
     <v>       2.13000000       1.22975600       0.00000000 </v>
     <v>       0.00000000       0.00000000      20.00000000 </v>
    </varray>
    <i name="volume">    104.77521120 </i>
    <varray name="rec_basis" >
     <v>       0.23474178      -0.40658472       0.00000000 </v>
     <v>       0.23474178       0.40658472       0.00000000 </v>
     <v>       0.00000000       0.00000000       0.05000000 </v>
    </varray>
   </crystal>
   <varray name="positions" >
    <v>       0.00000000       0.00000000       0.00000000 </v>
    <v>       0.33333300       0.33333300       0.00000000 </v>
    <v>       0.00000000       0.00000000       0.25000000 </v>
    <v>       0.33333300       0.33333300       0.25000000 </v>
   </varray>
  </structure>
  <varray name="forces" >
   <v>      -0.00000000       0.00000000       0.00120860 </v>
   <v>       0.00000000      -0.00000000       0.00120860 </v>
   <v>      -0.00000000      -0.00000000      -0.00120860 </v>
   <v>       0.00000000       0.00000000      -0.00120860 </v>
  </varray>
  <varray name="stress" >
   <v>      12.73902831       0.00000000       0.00000000 </v>
   <v>       0.00000000      12.73902679      -0.00000000 </v>
   <v>       0.00000000      -0.00000000      -0.86243164 </v>
  </varray>
  <energy>
   <i name="e_fr_energy">    -36.92996855 </i>
   <i name="e_wo_entrp">    -36.92996554 </i>
   <i name="e_0_energy">     -0.00000603 </i>
  </energy>
  <time name="totalsc">   44.44   44.75</time>
  <eigenvalues>
   <array>
    <dimension dim="1">band</dimension>
    <dimension dim="2">kpoint</dimension>
    <dimension dim="3">spin</dimension>
    <field>eigene</field>
    <field>occ</field>
    <set>
     <set comment="spin 1">
      <set comment="kpoint 1">
       <r>  -20.7957    1.0000 </r>
       <r>  -20.7926    1.0000 </r>
       <r>   -8.9255    1.0000 </r>
       <r>   -8.8510    1.0000 </r>
       <r>   -4.2478    1.0000 </r>
       <r>   -4.2477    1.0000 </r>
       <r>   -4.2477    1.0000 </r>
       <r>   -4.2476    1.0000 </r>
       <r>    1.7997    0.0000 </r>
       <r>    2.4504    0.0000 </r>
       <r>    2.9284    0.0000 </r>
       <r>    3.8889    0.0000 </r>
      </set>
      <set comment="kpoint 2">
       <r>  -20.7419    1.0000 </r>
       <r>  -20.7388    1.0000 </r>
       <r>   -8.8610    1.0000 </r>
       <r>   -8.7867    1.0000 </r>
       <r>   -4.4686    1.0000 </r>
       <r>   -4.4685    1.0000 </r>
       <r>   -4.3646    1.0000 </r>
       <r>   -4.3645    1.0000 </r>
       <r>    1.8719    0.0000 </r>
       <r>    2.5236    0.0000 </r>
       <r>    3.0018    0.0000 </r>
       <r>    3.9623    0.0000 </r>
      </set>
      <set comment="kpoint 3">
       <r>  -20.5806    1.0000 </r>
       <r>  -20.5775    1.0000 </r>
       <r>   -8.6678    1.0000 </r>
       <r>   -8.5943    1.0000 </r>
       <r>   -5.0885    1.0000 </r>
       <r>   -5.0884    1.0000 </r>
       <r>   -4.6844    1.0000 </r>
       <r>   -4.6843    1.0000 </r>
       <r>    2.0886    0.0000 </r>
       <r>    2.7429    0.0000 </r>
       <r>    3.2221    0.0000 </r>
       <r>    4.1821    0.0000 </r>
      </set>
      <set comment="kpoint 4">
       <r>  -20.3123    1.0000 </r>
       <r>  -20.3093    1.0000 </r>
       <r>   -8.3478    1.0000 </r>
       <r>   -8.2756    1.0000 </r>
       <r>   -6.0079    1.0000 </r>
       <r>   -6.0076    1.0000 </r>
       <r>   -5.1360    1.0000 </r>
       <r>   -5.1359    1.0000 </r>
       <r>    2.4498    0.0000 </r>
       <r>    3.1082    0.0000 </r>
       <r>    3.5886    0.0000 </r>
       <r>    4.5479    0.0000 </r>
      </set>
      <set comment="kpoint 5">
       <r>  -19.9381    1.0000 </r>
       <r>  -19.9352    1.0000 </r>
       <r>   -7.9040    1.0000 </r>
       <r>   -7.8337    1.0000 </r>
       <r>   -7.1206    1.0000 </r>
       <r>   -7.1201    1.0000 </r>
       <r>   -5.6447    1.0000 </r>
       <r>   -5.6446    1.0000 </r>
       <r>    2.9551    0.0000 </r>
       <r>    3.6186    0.0000 </r>
       <r>    4.0999    0.0000 </r>
       <r>    5.0574    0.0000 </r>
      </set>
      <set comment="kpoint 6">
       <r>  -19.4594    1.0000 </r>
       <r>  -19.4567    1.0000 </r>
       <r>   -8.3402    1.0000 </r>
       <r>   -8.3396    1.0000 </r>
       <r>   -7.3417    1.0000 </r>
       <r>   -7.2740    1.0000 </r>
       <r>   -6.1517    1.0000 </r>
       <r>   -6.1515    1.0000 </r>
       <r>    3.6032    0.0000 </r>
       <r>    4.2713    0.0000 </r>
       <r>    4.7482    0.0000 </r>
       <r>    5.6900    0.0000 </r>
      </set>
      <set comment="kpoint 7">
       <r>  -18.8786    1.0000 </r>
       <r>  -18.8760    1.0000 </r>
       <r>   -9.6042    1.0000 </r>
       <r>   -9.6034    1.0000 </r>
       <r>   -6.6700    1.0000 </r>
       <r>   -6.6161    1.0000 </r>
       <r>   -6.6159    1.0000 </r>
       <r>   -6.6057    1.0000 </r>
       <r>    4.3885    0.0000 </r>
       <r>    4.9488    0.0000 </r>
       <r>    4.9843    0.0000 </r>
       <r>    5.2179    0.0000 </r>
      </set>
      <set comment="kpoint 8">
       <r>  -18.1991    1.0000 </r>
       <r>  -18.1967    1.0000 </r>
       <r>  -10.8678    1.0000 </r>
       <r>  -10.8669    1.0000 </r>
       <r>   -7.0110    1.0000 </r>
       <r>   -7.0107    1.0000 </r>
       <r>   -5.9054    1.0000 </r>
       <r>   -5.8455    1.0000 </r>
       <r>    3.6886    0.0000 </r>
       <r>    3.7431    0.0000 </r>
       <r>    5.3238    0.0000 </r>
       <r>    6.0175    0.0000 </r>
      </set>
      <set comment="kpoint 9">
       <r>  -17.4270    1.0000 </r>
       <r>  -17.4248    1.0000 </r>
       <r>  -12.0977    1.0000 </r>
       <r>  -12.0966    1.0000 </r>
       <r>   -7.3191    1.0000 </r>
       <r>   -7.3189    1.0000 </r>
       <r>   -5.0817    1.0000 </r>
       <r>   -5.0274    1.0000 </r>
       <r>    2.4062    0.0000 </r>
       <r>    2.4634    0.0000 </r>
       <r>    6.2742    0.0000 </r>
       <r>    6.3917    0.0000 </r>
      </set>
      <set comment="kpoint 10">
       <r>  -16.5775    1.0000 </r>
       <r>  -16.5755    1.0000 </r>
       <r>  -13.2611    1.0000 </r>
       <r>  -13.2598    1.0000 </r>
       <r>   -7.5297    1.0000 </r>
       <r>   -7.5295    1.0000 </r>
       <r>   -4.2786    1.0000 </r>
       <r>   -4.2317    1.0000 </r>
       <r>    1.2785    0.0000 </r>
       <r>    1.3430    0.0000 </r>
       <r>    6.2884    0.0000 </r>
       <r>    6.2966    0.0000 </r>
      </set>
      <set comment="kpoint 11">
       <r>  -15.7326    1.0000 </r>
       <r>  -15.7308    1.0000 </r>
       <r>  -14.2653    1.0000 </r>
       <r>  -14.2638    1.0000 </r>
       <r>   -7.6365    1.0000 </r>
       <r>   -7.6363    1.0000 </r>
       <r>   -3.7021    1.0000 </r>
       <r>   -3.6628    1.0000 </r>
       <r>    0.5347    0.0000 </r>
       <r>    0.6071    0.0000 </r>
       <r>    6.2386    0.0000 </r>
       <r>    6.2439    0.0000 </r>
      </set>
      <set comment="kpoint 12">
       <r>  -20.6343    1.0000 </r>
       <r>  -20.6313    1.0000 </r>
       <r>   -8.7321    1.0000 </r>
       <r>   -8.6584    1.0000 </r>
       <r>   -4.8736    1.0000 </r>
       <r>   -4.8735    1.0000 </r>
       <r>   -4.5984    1.0000 </r>
       <r>   -4.5983    1.0000 </r>
       <r>    2.0164    0.0000 </r>
       <r>    2.6698    0.0000 </r>
       <r>    3.1487    0.0000 </r>
       <r>    4.1089    0.0000 </r>
      </set>
      <set comment="kpoint 13">
       <r>  -20.4195    1.0000 </r>
       <r>  -20.4165    1.0000 </r>
       <r>   -8.4755    1.0000 </r>
       <r>   -8.4028    1.0000 </r>
       <r>   -5.6104    1.0000 </r>
       <r>   -5.6102    1.0000 </r>
       <r>   -5.0175    1.0000 </r>
       <r>   -5.0173    1.0000 </r>
       <r>    2.3055    0.0000 </r>
       <r>    2.9622    0.0000 </r>
       <r>    3.4421    0.0000 </r>
       <r>    4.4017    0.0000 </r>
      </set>
      <set comment="kpoint 14">
       <r>  -20.0982    1.0000 </r>
       <r>  -20.0954    1.0000 </r>
       <r>   -8.0934    1.0000 </r>
       <r>   -8.0223    1.0000 </r>
       <r>   -6.5965    1.0000 </r>
       <r>   -6.5962    1.0000 </r>
       <r>   -5.5284    1.0000 </r>
       <r>   -5.5282    1.0000 </r>
       <r>    2.7389    0.0000 </r>
       <r>    3.4003    0.0000 </r>
       <r>    3.8813    0.0000 </r>
       <r>    4.8398    0.0000 </r>
      </set>
      <set comment="kpoint 15">
       <r>  -19.6718    1.0000 </r>
       <r>  -19.6690    1.0000 </r>
       <r>   -7.7414    1.0000 </r>
       <r>   -7.7408    1.0000 </r>
       <r>   -7.5900    1.0000 </r>
       <r>   -7.5212    1.0000 </r>
       <r>   -6.0582    1.0000 </r>
       <r>   -6.0580    1.0000 </r>
       <r>    3.3159    0.0000 </r>
       <r>    3.9826    0.0000 </r>
       <r>    4.4633    0.0000 </r>
       <r>    5.4184    0.0000 </r>
      </set>
      <set comment="kpoint 16">
       <r>  -19.1421    1.0000 </r>
       <r>  -19.1394    1.0000 </r>
       <r>   -8.9694    1.0000 </r>
       <r>   -8.9687    1.0000 </r>
       <r>   -6.9722    1.0000 </r>
       <r>   -6.9063    1.0000 </r>
       <r>   -6.5581    1.0000 </r>
       <r>   -6.5578    1.0000 </r>
       <r>    4.0346    0.0000 </r>
       <r>    4.7008    0.0000 </r>
       <r>    5.1481    0.0000 </r>
       <r>    5.7063    0.0000 </r>
      </set>
      <set comment="kpoint 17">
       <r>  -18.5118    1.0000 </r>
       <r>  -18.5094    1.0000 </r>
       <r>  -10.2246    1.0000 </r>
       <r>  -10.2238    1.0000 </r>
       <r>   -6.9964    1.0000 </r>
       <r>   -6.9961    1.0000 </r>
       <r>   -6.2519    1.0000 </r>
       <r>   -6.1898    1.0000 </r>
       <r>    4.3100    0.0000 </r>
       <r>    4.3639    0.0000 </r>
       <r>    4.9026    0.0000 </r>
       <r>    5.5981    0.0000 </r>
      </set>
      <set comment="kpoint 18">
       <r>  -17.7856    1.0000 </r>
       <r>  -17.7834    1.0000 </r>
       <r>  -11.4665    1.0000 </r>
       <r>  -11.4655    1.0000 </r>
       <r>   -7.3531    1.0000 </r>
       <r>   -7.3528    1.0000 </r>
       <r>   -5.4521    1.0000 </r>
       <r>   -5.3950    1.0000 </r>
       <r>    3.0138    0.0000 </r>
       <r>    3.0661    0.0000 </r>
       <r>    5.8885    0.0000 </r>
       <r>    6.5485    0.0000 </r>
      </set>
      <set comment="kpoint 19">
       <r>  -16.9726    1.0000 </r>
       <r>  -16.9705    1.0000 </r>
       <r>  -12.6622    1.0000 </r>
       <r>  -12.6610    1.0000 </r>
       <r>   -7.6153    1.0000 </r>
       <r>   -7.6151    1.0000 </r>
       <r>   -4.6232    1.0000 </r>
       <r>   -4.5726    1.0000 </r>
       <r>    1.7982    0.0000 </r>
       <r>    1.8565    0.0000 </r>
       <r>    6.5580    0.0000 </r>
       <r>    6.5831    0.0000 </r>
      </set>
      <set comment="kpoint 20">
       <r>  -16.1035    1.0000 </r>
       <r>  -16.1016    1.0000 </r>
       <r>  -13.7663    1.0000 </r>
       <r>  -13.7650    1.0000 </r>
       <r>   -7.7755    1.0000 </r>
       <r>   -7.7752    1.0000 </r>
       <r>   -3.8934    1.0000 </r>
       <r>   -3.8507    1.0000 </r>
       <r>    0.8259    0.0000 </r>
       <r>    0.8926    0.0000 </r>
       <r>    6.5005    0.0000 </r>
       <r>    6.5072    0.0000 </r>
      </set>
      <set comment="kpoint 21">
       <r>  -15.4845    1.0000 </r>
       <r>  -15.4827    1.0000 </r>
       <r>  -14.4645    1.0000 </r>
       <r>  -14.4630    1.0000 </r>
       <r>   -7.8293    1.0000 </r>
       <r>   -7.8290    1.0000 </r>
       <r>   -3.5648    1.0000 </r>
       <r>   -3.5271    1.0000 </r>
       <r>    0.4149    0.0000 </r>
       <r>    0.4868    0.0000 </r>
       <r>    6.4749    0.0000 </r>
       <r>    6.4805    0.0000 </r>
      </set>
      <set comment="kpoint 22">
       <r>  -20.1517    1.0000 </r>
       <r>  -20.1488    1.0000 </r>
       <r>   -8.1568    1.0000 </r>
       <r>   -8.0854    1.0000 </r>
       <r>   -6.3526    1.0000 </r>
       <r>   -6.3523    1.0000 </r>
       <r>   -5.5579    1.0000 </r>
       <r>   -5.5578    1.0000 </r>
       <r>    2.6669    0.0000 </r>
       <r>    3.3275    0.0000 </r>
       <r>    3.8084    0.0000 </r>
       <r>    4.7672    0.0000 </r>
      </set>
      <set comment="kpoint 23">
       <r>  -19.7783    1.0000 </r>
       <r>  -19.7755    1.0000 </r>
       <r>   -7.7148    1.0000 </r>
       <r>   -7.6454    1.0000 </r>
       <r>   -7.2955    1.0000 </r>
       <r>   -7.2950    1.0000 </r>
       <r>   -6.1666    1.0000 </r>
       <r>   -6.1664    1.0000 </r>
       <r>    3.1724    0.0000 </r>
       <r>    3.8381    0.0000 </r>
       <r>    4.3196    0.0000 </r>
       <r>    5.2771    0.0000 </r>
      </set>
      <set comment="kpoint 24">
       <r>  -19.3007    1.0000 </r>
       <r>  -19.2981    1.0000 </r>
       <r>   -8.3953    1.0000 </r>
       <r>   -8.3947    1.0000 </r>
       <r>   -7.1549    1.0000 </r>
       <r>   -7.0880    1.0000 </r>
       <r>   -6.7436    1.0000 </r>
       <r>   -6.7433    1.0000 </r>
       <r>    3.8209    0.0000 </r>
       <r>    4.4915    0.0000 </r>
       <r>    4.9691    0.0000 </r>
       <r>    5.8968    0.0000 </r>
      </set>
      <set comment="kpoint 25">
       <r>  -18.7215    1.0000 </r>
       <r>  -18.7190    1.0000 </r>
       <r>   -9.5831    1.0000 </r>
       <r>   -9.5824    1.0000 </r>
       <r>   -7.2494    1.0000 </r>
       <r>   -7.2491    1.0000 </r>
       <r>   -6.4858    1.0000 </r>
       <r>   -6.4223    1.0000 </r>
       <r>    4.6033    0.0000 </r>
       <r>    4.8367    0.0000 </r>
       <r>    4.8596    0.0000 </r>
       <r>    5.3146    0.0000 </r>
      </set>
      <set comment="kpoint 26">
       <r>  -18.0442    1.0000 </r>
       <r>  -18.0419    1.0000 </r>
       <r>  -10.7989    1.0000 </r>
       <r>  -10.7980    1.0000 </r>
       <r>   -7.6675    1.0000 </r>
       <r>   -7.6672    1.0000 </r>
       <r>   -5.7235    1.0000 </r>
       <r>   -5.6643    1.0000 </r>
       <r>    3.5632    0.0000 </r>
       <r>    3.6056    0.0000 </r>
       <r>    5.5426    0.0000 </r>
       <r>    6.2369    0.0000 </r>
      </set>
      <set comment="kpoint 27">
       <r>  -17.2753    1.0000 </r>
       <r>  -17.2732    1.0000 </r>
       <r>  -11.9983    1.0000 </r>
       <r>  -11.9972    1.0000 </r>
       <r>   -7.9883    1.0000 </r>
       <r>   -7.9880    1.0000 </r>
       <r>   -4.9004    1.0000 </r>
       <r>   -4.8469    1.0000 </r>
       <r>    2.3242    0.0000 </r>
       <r>    2.3727    0.0000 </r>
       <r>    6.5987    0.0000 </r>
       <r>    7.2321    0.0000 </r>
      </set>
      <set comment="kpoint 28">
       <r>  -16.4303    1.0000 </r>
       <r>  -16.4283    1.0000 </r>
       <r>  -13.1416    1.0000 </r>
       <r>  -13.1403    1.0000 </r>
       <r>   -8.2054    1.0000 </r>
       <r>   -8.2051    1.0000 </r>
       <r>   -4.0935    1.0000 </r>
       <r>   -4.0471    1.0000 </r>
       <r>    1.2230    0.0000 </r>
       <r>    1.2798    0.0000 </r>
       <r>    7.2082    0.0000 </r>
       <r>    7.2265    0.0000 </r>
      </set>
      <set comment="kpoint 29">
       <r>  -15.5919    1.0000 </r>
       <r>  -15.5901    1.0000 </r>
       <r>  -14.1324    1.0000 </r>
       <r>  -14.1309    1.0000 </r>
       <r>   -8.3149    1.0000 </r>
       <r>   -8.3146    1.0000 </r>
       <r>   -3.5076    1.0000 </r>
       <r>   -3.4686    1.0000 </r>
       <r>    0.4849    0.0000 </r>
       <r>    0.5498    0.0000 </r>
       <r>    7.1672    0.0000 </r>
       <r>    7.1752    0.0000 </r>
      </set>
      <set comment="kpoint 30">
       <r>  -19.3537    1.0000 </r>
       <r>  -19.3510    1.0000 </r>
       <r>   -8.1106    1.0000 </r>
       <r>   -8.1101    1.0000 </r>
       <r>   -7.2160    1.0000 </r>
       <r>   -7.1488    1.0000 </r>
       <r>   -6.9055    1.0000 </r>
       <r>   -6.9052    1.0000 </r>
       <r>    3.7496    0.0000 </r>
       <r>    4.4207    0.0000 </r>
       <r>    4.9018    0.0000 </r>
       <r>    5.8583    0.0000 </r>
      </set>
      <set comment="kpoint 31">
       <r>  -18.8267    1.0000 </r>
       <r>  -18.8242    1.0000 </r>
       <r>   -9.0771    1.0000 </r>
       <r>   -9.0764    1.0000 </r>
       <r>   -7.5822    1.0000 </r>
       <r>   -7.5819    1.0000 </r>
       <r>   -6.6035    1.0000 </r>
       <r>   -6.5393    1.0000 </r>
       <r>    4.4687    0.0000 </r>
       <r>    5.1204    0.0000 </r>
       <r>    5.1427    0.0000 </r>
       <r>    5.1949    0.0000 </r>
      </set>
      <set comment="kpoint 32">
       <r>  -18.2003    1.0000 </r>
       <r>  -18.1979    1.0000 </r>
       <r>  -10.1688    1.0000 </r>
       <r>  -10.1680    1.0000 </r>
       <r>   -8.1251    1.0000 </r>
       <r>   -8.1247    1.0000 </r>
       <r>   -5.8889    1.0000 </r>
       <r>   -5.8285    1.0000 </r>
       <r>    3.9666    0.0000 </r>
       <r>    3.9958    0.0000 </r>
       <r>    5.3293    0.0000 </r>
       <r>    6.0153    0.0000 </r>
      </set>
      <set comment="kpoint 33">
       <r>  -17.4795    1.0000 </r>
       <r>  -17.4773    1.0000 </r>
       <r>  -11.3142    1.0000 </r>
       <r>  -11.3133    1.0000 </r>
       <r>   -8.5363    1.0000 </r>
       <r>   -8.5358    1.0000 </r>
       <r>   -5.0932    1.0000 </r>
       <r>   -5.0376    1.0000 </r>
       <r>    2.7731    0.0000 </r>
       <r>    2.8091    0.0000 </r>
       <r>    6.3248    0.0000 </r>
       <r>    7.0173    0.0000 </r>
      </set>
      <set comment="kpoint 34">
       <r>  -16.6741    1.0000 </r>
       <r>  -16.6721    1.0000 </r>
       <r>  -12.4516    1.0000 </r>
       <r>  -12.4505    1.0000 </r>
       <r>   -8.8260    1.0000 </r>
       <r>   -8.8255    1.0000 </r>
       <r>   -4.2623    1.0000 </r>
       <r>   -4.2130    1.0000 </r>
       <r>    1.6355    0.0000 </r>
       <r>    1.6795    0.0000 </r>
       <r>    7.4456    0.0000 </r>
       <r>    8.1169    0.0000 </r>
      </set>
      <set comment="kpoint 35">
       <r>  -15.8159    1.0000 </r>
       <r>  -15.8140    1.0000 </r>
       <r>  -13.5192    1.0000 </r>
       <r>  -13.5178    1.0000 </r>
       <r>   -8.9990    1.0000 </r>
       <r>   -8.9985    1.0000 </r>
       <r>   -3.5170    1.0000 </r>
       <r>   -3.4752    1.0000 </r>
       <r>    0.6966    0.0000 </r>
       <r>    0.7494    0.0000 </r>
       <r>    8.2011    0.0000 </r>
       <r>    8.2240    0.0000 </r>
      </set>
      <set comment="kpoint 36">
       <r>  -15.2083    1.0000 </r>
       <r>  -15.2066    1.0000 </r>
       <r>  -14.1981    1.0000 </r>
       <r>  -14.1966    1.0000 </r>
       <r>   -9.0566    1.0000 </r>
       <r>   -9.0561    1.0000 </r>
       <r>   -3.1717    1.0000 </r>
       <r>   -3.1346    1.0000 </r>
       <r>    0.2850    0.0000 </r>
       <r>    0.3431    0.0000 </r>
       <r>    8.1854    0.0000 </r>
       <r>    8.1986    0.0000 </r>
      </set>
      <set comment="kpoint 37">
       <r>  -18.2525    1.0000 </r>
       <r>  -18.2501    1.0000 </r>
       <r>   -9.8393    1.0000 </r>
       <r>   -9.8386    1.0000 </r>
       <r>   -8.4044    1.0000 </r>
       <r>   -8.4039    1.0000 </r>
       <r>   -5.9444    1.0000 </r>
       <r>   -5.8836    1.0000 </r>
       <r>    4.1194    0.0000 </r>
       <r>    4.1413    0.0000 </r>
       <r>    5.2572    0.0000 </r>
       <r>    5.9389    0.0000 </r>
      </set>
      <set comment="kpoint 38">
       <r>  -17.5822    1.0000 </r>
       <r>  -17.5800    1.0000 </r>
       <r>  -10.7491    1.0000 </r>
       <r>  -10.7483    1.0000 </r>
       <r>   -9.0525    1.0000 </r>
       <r>   -9.0519    1.0000 </r>
       <r>   -5.1918    1.0000 </r>
       <r>   -5.1353    1.0000 </r>
       <r>    3.0402    0.0000 </r>
       <r>    3.0663    0.0000 </r>
       <r>    6.1823    0.0000 </r>
       <r>    6.8673    0.0000 </r>
      </set>
      <set comment="kpoint 39">
       <r>  -16.8233    1.0000 </r>
       <r>  -16.8213    1.0000 </r>
       <r>  -11.7750    1.0000 </r>
       <r>  -11.7739    1.0000 </r>
       <r>   -9.4923    1.0000 </r>
       <r>   -9.4916    1.0000 </r>
       <r>   -4.3732    1.0000 </r>
       <r>   -4.3219    1.0000 </r>
       <r>    1.9552    0.0000 </r>
       <r>    1.9873    0.0000 </r>
       <r>    7.2372    0.0000 </r>
       <r>    7.9200    0.0000 </r>
      </set>
      <set comment="kpoint 40">
       <r>  -15.9925    1.0000 </r>
       <r>  -15.9906    1.0000 </r>
       <r>  -12.8233    1.0000 </r>
       <r>  -12.8221    1.0000 </r>
       <r>   -9.7635    1.0000 </r>
       <r>   -9.7629    1.0000 </r>
       <r>   -3.5542    1.0000 </r>
       <r>   -3.5094    1.0000 </r>
       <r>    0.9464    0.0000 </r>
       <r>    0.9859    0.0000 </r>
       <r>    8.4028    0.0000 </r>
       <r>    9.0598    0.0000 </r>
      </set>
      <set comment="kpoint 41">
       <r>  -15.1725    1.0000 </r>
       <r>  -15.1708    1.0000 </r>
       <r>  -13.7622    1.0000 </r>
       <r>  -13.7608    1.0000 </r>
       <r>   -9.8940    1.0000 </r>
       <r>   -9.8934    1.0000 </r>
       <r>   -2.9303    1.0000 </r>
       <r>   -2.8924    1.0000 </r>
       <r>    0.2236    0.0000 </r>
       <r>    0.2704    0.0000 </r>
       <r>    9.4031    0.0000 </r>
       <r>    9.4499    0.0000 </r>
      </set>
      <set comment="kpoint 42">
       <r>  -16.8734    1.0000 </r>
       <r>  -16.8714    1.0000 </r>
       <r>  -11.4041    1.0000 </r>
       <r>  -11.4032    1.0000 </r>
       <r>   -9.8650    1.0000 </r>
       <r>   -9.8642    1.0000 </r>
       <r>   -4.4117    1.0000 </r>
       <r>   -4.3598    1.0000 </r>
       <r>    2.0775    0.0000 </r>
       <r>    2.1044    0.0000 </r>
       <r>    7.1653    0.0000 </r>
       <r>    7.8422    0.0000 </r>
      </set>
      <set comment="kpoint 43">
       <r>  -16.0853    1.0000 </r>
       <r>  -16.0834    1.0000 </r>
       <r>  -12.2184    1.0000 </r>
       <r>  -12.2173    1.0000 </r>
       <r>  -10.4128    1.0000 </r>
       <r>  -10.4119    1.0000 </r>
       <r>   -3.5825    1.0000 </r>
       <r>   -3.5361    1.0000 </r>
       <r>    1.1141    0.0000 </r>
       <r>    1.1444    0.0000 </r>
       <r>    8.2563    0.0000 </r>
       <r>    8.8965    0.0000 </r>
      </set>
      <set comment="kpoint 44">
       <r>  -15.2503    1.0000 </r>
       <r>  -15.2486    1.0000 </r>
       <r>  -13.1243    1.0000 </r>
       <r>  -13.1231    1.0000 </r>
       <r>  -10.6979    1.0000 </r>
       <r>  -10.6971    1.0000 </r>
       <r>   -2.7970    1.0000 </r>
       <r>   -2.7569    1.0000 </r>
       <r>    0.2456    0.0000 </r>
       <r>    0.2812    0.0000 </r>
       <r>    9.2737    0.0000 </r>
       <r>    9.7016    0.0000 </r>
      </set>
      <set comment="kpoint 45">
       <r>  -14.6570    1.0000 </r>
       <r>  -14.6554    1.0000 </r>
       <r>  -13.7509    1.0000 </r>
       <r>  -13.7496    1.0000 </r>
       <r>  -10.7852    1.0000 </r>
       <r>  -10.7843    1.0000 </r>
       <r>   -2.3913    1.0000 </r>
       <r>   -2.3556    1.0000 </r>
       <r>   -0.1884    0.0000 </r>
       <r>   -0.1487    0.0000 </r>
       <r>    9.5032    0.0000 </r>
       <r>   10.0829    0.0000 </r>
      </set>
      <set comment="kpoint 46">
       <r>  -15.2849    1.0000 </r>
       <r>  -15.2832    1.0000 </r>
       <r>  -12.7449    1.0000 </r>
       <r>  -12.7438    1.0000 </r>
       <r>  -11.1279    1.0000 </r>
       <r>  -11.1269    1.0000 </r>
       <r>   -2.7564    1.0000 </r>
       <r>   -2.7151    1.0000 </r>
       <r>    0.2668    0.0000 </r>
       <r>    0.2976    0.0000 </r>
       <r>    9.1443    0.0000 </r>
       <r>    9.6075    0.0000 </r>
      </set>
      <set comment="kpoint 47">
       <r>  -14.4933    1.0000 </r>
       <r>  -14.4918    1.0000 </r>
       <r>  -13.4089    1.0000 </r>
       <r>  -13.4076    1.0000 </r>
       <r>  -11.4828    1.0000 </r>
       <r>  -11.4817    1.0000 </r>
       <r>   -2.0160    1.0000 </r>
       <r>   -1.9799    1.0000 </r>
       <r>   -0.4804    0.0000 </r>
       <r>   -0.4469    0.0000 </r>
       <r>    9.2416    0.0000 </r>
       <r>    9.7983    0.0000 </r>
      </set>
      <set comment="kpoint 48">
       <r>  -13.8337    1.0000 </r>
       <r>  -13.8336    1.0000 </r>
       <r>  -13.8323    1.0000 </r>
       <r>  -13.8323    1.0000 </r>
       <r>  -11.8245    1.0000 </r>
       <r>  -11.8234    1.0000 </r>
       <r>   -1.2370    0.9914 </r>
       <r>   -1.2370    0.9913 </r>
       <r>   -1.2034    0.0087 </r>
       <r>   -1.2033    0.0086 </r>
       <r>    9.1477    0.0000 </r>
       <r>    9.6865    0.0000 </r>
      </set>
     </set>
    </set>
   </array>
  </eigenvalues>
  <separator name="orbital magnetization" >
   <v name="MAGDIPOLOUT">      0.00000000      0.00000000      0.00000000</v>
  </separator>
  <dos>
   <i name="efermi">     -1.22018220 </i>
   <total>
    <array>
     <dimension dim="1">gridpoints</dimension>
     <dimension dim="2">spin</dimension>
     <field>energy</field>
     <field>total</field>
     <field>integrated</field>
     <set>
      <set comment="spin 1">
       <r>   -22.3397     0.0000     0.0000 </r>
       <r>   -22.2265     0.0000     0.0000 </r>
       <r>   -22.1132     0.0000     0.0000 </r>
       <r>   -22.0000     0.0000     0.0000 </r>
       <r>   -21.8868     0.0000     0.0000 </r>
       <r>   -21.7736     0.0000     0.0000 </r>
       <r>   -21.6603     0.0000     0.0000 </r>
       <r>   -21.5471     0.0000     0.0000 </r>
       <r>   -21.4339     0.0000     0.0000 </r>
       <r>   -21.3207     0.0000     0.0000 </r>
       <r>   -21.2075     0.0000     0.0000 </r>
       <r>   -21.0942     0.0000     0.0000 </r>
       <r>   -20.9810     0.0000     0.0000 </r>
       <r>   -20.8678     0.0000     0.0000 </r>
       <r>   -20.7546     0.0920     0.0104 </r>
       <r>   -20.6414     0.0568     0.0699 </r>
       <r>   -20.5281     0.4807     0.1723 </r>
       <r>   -20.4149     0.6400     0.2448 </r>
       <r>   -20.3017     0.4308     0.3300 </r>
       <r>   -20.1885     0.0000     0.3356 </r>
       <r>   -20.0752     1.4407     0.4987 </r>
       <r>   -19.9620     0.0001     0.4989 </r>
       <r>   -19.8488     0.0000     0.5533 </r>
       <r>   -19.7356     0.9613     0.6621 </r>
       <r>   -19.6224     0.9613     0.7710 </r>
       <r>   -19.5091     0.0000     0.7710 </r>
       <r>   -19.3959     0.4807     0.8254 </r>
       <r>   -19.2827     1.4323     0.9876 </r>
       <r>   -19.1695     0.0000     0.9887 </r>
       <r>   -19.0562     0.0000     1.0975 </r>
       <r>   -18.9430     0.0000     1.0975 </r>
       <r>   -18.8298     0.7416     1.1815 </r>
       <r>   -18.7166     0.6689     1.3365 </r>
       <r>   -18.6034     0.0000     1.3696 </r>
       <r>   -18.4901     0.9592     1.4782 </r>
       <r>   -18.3769     0.0000     1.4785 </r>
       <r>   -18.2637     0.0199     1.4807 </r>
       <r>   -18.1505     1.4420     1.6961 </r>
       <r>   -18.0373     0.7613     1.7823 </r>
       <r>   -17.9240     0.0000     1.8050 </r>
       <r>   -17.8108     0.0001     1.8050 </r>
       <r>   -17.6976     0.0000     1.9138 </r>
       <r>   -17.5844     0.3121     1.9492 </r>
       <r>   -17.4711     0.8117     2.1146 </r>
       <r>   -17.3579     0.4807     2.1859 </r>
       <r>   -17.2447     0.9613     2.2948 </r>
       <r>   -17.1315     0.0000     2.2948 </r>
       <r>   -17.0183     0.0000     2.2948 </r>
       <r>   -16.9050     0.9613     2.4036 </r>
       <r>   -16.7918     1.2017     2.5669 </r>
       <r>   -16.6786     0.2135     2.5911 </r>
       <r>   -16.5654     0.4519     2.7269 </r>
       <r>   -16.4521     0.0007     2.7302 </r>
       <r>   -16.3389     0.0000     2.8390 </r>
       <r>   -16.2257     0.0000     2.8390 </r>
       <r>   -16.1125     0.0783     2.8479 </r>
       <r>   -15.9993     0.1337     3.0718 </r>
       <r>   -15.8860     0.0000     3.1655 </r>
       <r>   -15.7728     0.9613     3.2744 </r>
       <r>   -15.6596     0.4807     3.3288 </r>
       <r>   -15.5464     0.9613     3.4376 </r>
       <r>   -15.4332     0.4807     3.4921 </r>
       <r>   -15.3199     0.0000     3.4921 </r>
       <r>   -15.2067     1.7013     3.6847 </r>
       <r>   -15.0935     0.9613     3.8186 </r>
       <r>   -14.9803     0.0000     3.8186 </r>
       <r>   -14.8670     0.0000     3.8186 </r>
       <r>   -14.7538     0.0000     3.8186 </r>
       <r>   -14.6406     0.4738     3.8722 </r>
       <r>   -14.5274     0.0000     3.8730 </r>
       <r>   -14.4142     1.4420     4.0363 </r>
       <r>   -14.3009     0.0000     4.0363 </r>
       <r>   -14.1877     0.9187     4.1403 </r>
       <r>   -14.0745     0.9613     4.2540 </r>
       <r>   -13.9613     0.0000     4.2540 </r>
       <r>   -13.8481     0.0054     4.2546 </r>
       <r>   -13.7348     2.3960     4.5615 </r>
       <r>   -13.6216     0.0000     4.5624 </r>
       <r>   -13.5084     0.8867     4.6628 </r>
       <r>   -13.3952     0.9299     4.7765 </r>
       <r>   -13.2819     0.0006     4.7801 </r>
       <r>   -13.1687     0.0000     4.8345 </r>
       <r>   -13.0555     0.9613     5.0522 </r>
       <r>   -12.9423     0.0000     5.0522 </r>
       <r>   -12.8291     0.1788     5.0724 </r>
       <r>   -12.7158     0.4807     5.2154 </r>
       <r>   -12.6026     0.9613     5.3243 </r>
       <r>   -12.4894     0.0000     5.3243 </r>
       <r>   -12.3762     0.9613     5.4331 </r>
       <r>   -12.2629     0.0000     5.4331 </r>
       <r>   -12.1497     0.9613     5.5420 </r>
       <r>   -12.0365     0.4807     5.5964 </r>
       <r>   -11.9233     0.9613     5.7052 </r>
       <r>   -11.8101     0.1562     5.7229 </r>
       <r>   -11.6968     0.9613     5.8322 </r>
       <r>   -11.5836     0.0000     5.8322 </r>
       <r>   -11.4704     1.1717     5.9649 </r>
       <r>   -11.3572     0.4807     6.1043 </r>
       <r>   -11.2440     0.9613     6.2132 </r>
       <r>   -11.1307     0.1537     6.2306 </r>
       <r>   -11.0175     0.0000     6.2676 </r>
       <r>   -10.9043     0.0000     6.2676 </r>
       <r>   -10.7911     1.3888     6.4248 </r>
       <r>   -10.6778     1.9200     6.7026 </r>
       <r>   -10.5646     0.0000     6.7029 </r>
       <r>   -10.4514     0.0000     6.7029 </r>
       <r>   -10.3382     0.9613     6.8118 </r>
       <r>   -10.2250     0.4381     6.8614 </r>
       <r>   -10.1117     0.9613     7.0295 </r>
       <r>    -9.9985     0.0000     7.0295 </r>
       <r>    -9.8853     0.8493     7.1256 </r>
       <r>    -9.7721     0.5816     7.2586 </r>
       <r>    -9.6588     0.0000     7.3560 </r>
       <r>    -9.5456     1.4420     7.5193 </r>
       <r>    -9.4324     0.9613     7.6281 </r>
       <r>    -9.3192     0.0000     7.6281 </r>
       <r>    -9.2060     0.0000     7.6281 </r>
       <r>    -9.0927     0.0115     7.6294 </r>
       <r>    -8.9795     2.4664     8.0162 </r>
       <r>    -8.8663     0.0948     8.1286 </r>
       <r>    -8.7531     1.2020     8.2903 </r>
       <r>    -8.6399     0.4796     8.3718 </r>
       <r>    -8.5266     1.1131     8.4979 </r>
       <r>    -8.4134     0.5632     8.5717 </r>
       <r>    -8.3002     1.6634     8.9684 </r>
       <r>    -8.1870     0.9567     9.1060 </r>
       <r>    -8.0737     2.1498     9.3772 </r>
       <r>    -7.9605     1.4420     9.5419 </r>
       <r>    -7.8473     0.2493     9.5702 </r>
       <r>    -7.7341     1.7699     9.8512 </r>
       <r>    -7.6209     2.1196    10.1629 </r>
       <r>    -7.5076     1.9088    10.5200 </r>
       <r>    -7.3944     0.0000    10.5215 </r>
       <r>    -7.2812     2.6578    10.8225 </r>
       <r>    -7.1680     0.2565    10.9860 </r>
       <r>    -7.0548     0.9613    11.1746 </r>
       <r>    -6.9415     1.9227    11.3923 </r>
       <r>    -6.8283     0.9613    11.5011 </r>
       <r>    -6.7151     0.9613    11.6100 </r>
       <r>    -6.6019     1.3740    11.7655 </r>
       <r>    -6.4886     1.6063    12.0639 </r>
       <r>    -6.3754     0.4809    12.1542 </r>
       <r>    -6.2622     0.0349    12.2126 </r>
       <r>    -6.1490     1.7462    12.4608 </r>
       <r>    -6.0358     0.9606    12.5895 </r>
       <r>    -5.9225     0.2420    12.6714 </r>
       <r>    -5.8093     1.4404    12.8615 </r>
       <r>    -5.6961     0.4806    12.9161 </r>
       <r>    -5.5829     1.4420    13.1338 </r>
       <r>    -5.4696     0.9645    13.2974 </r>
       <r>    -5.3564     0.4807    13.4059 </r>
       <r>    -5.2432     0.0000    13.4059 </r>
       <r>    -5.1300     1.2366    13.5459 </r>
       <r>    -5.0168     2.4214    13.8433 </r>
       <r>    -4.9035     0.1580    13.9136 </r>
       <r>    -4.7903     0.4807    14.0590 </r>
       <r>    -4.6771     0.4070    14.1050 </r>
       <r>    -4.5639     1.3901    14.2708 </r>
       <r>    -4.4507     0.4780    14.3308 </r>
       <r>    -4.3374     1.4486    14.4951 </r>
       <r>    -4.2242     1.1138    14.6749 </r>
       <r>    -4.1110     0.0032    14.7305 </r>
       <r>    -3.9978     0.4807    14.8390 </r>
       <r>    -3.8845     0.4300    14.8877 </r>
       <r>    -3.7713     0.4807    14.9478 </r>
       <r>    -3.6581     0.4204    14.9954 </r>
       <r>    -3.5449     1.2083    15.1391 </r>
       <r>    -3.4317     1.9227    15.4921 </r>
       <r>    -3.3184     0.0000    15.4921 </r>
       <r>    -3.2052     0.0000    15.4921 </r>
       <r>    -3.0920     0.4807    15.5465 </r>
       <r>    -2.9788     0.0000    15.5465 </r>
       <r>    -2.8655     0.9613    15.6553 </r>
       <r>    -2.7523     1.0089    15.7696 </r>
       <r>    -2.6391     0.2403    15.8186 </r>
       <r>    -2.5259     0.0000    15.8186 </r>
       <r>    -2.4127     0.0003    15.8186 </r>
       <r>    -2.2994     0.2403    15.8730 </r>
       <r>    -2.1862     0.0000    15.8730 </r>
       <r>    -2.0730     0.0000    15.8730 </r>
       <r>    -1.9598     0.9602    15.9817 </r>
       <r>    -1.8466     0.0000    15.9819 </r>
       <r>    -1.7333     0.0000    15.9819 </r>
       <r>    -1.6201     0.0000    15.9819 </r>
       <r>    -1.5069     0.0000    15.9819 </r>
       <r>    -1.3937     0.0000    15.9819 </r>
       <r>    -1.2804     0.0000    15.9819 </r>
       <r>    -1.1672     0.3204    16.0181 </r>
       <r>    -1.0540     0.0000    16.0181 </r>
       <r>    -0.9408     0.0000    16.0181 </r>
       <r>    -0.8276     0.0000    16.0181 </r>
       <r>    -0.7143     0.0000    16.0181 </r>
       <r>    -0.6011     0.0000    16.0181 </r>
       <r>    -0.4879     0.0693    16.0260 </r>
       <r>    -0.3747     0.4807    16.1270 </r>
       <r>    -0.2615     0.0000    16.1270 </r>
       <r>    -0.1482     0.3674    16.1686 </r>
       <r>    -0.0350     0.0000    16.1814 </r>
       <r>     0.0782     0.0000    16.1814 </r>
       <r>     0.1914     0.0000    16.1814 </r>
       <r>     0.3047     2.1242    16.4763 </r>
       <r>     0.4179     0.4003    16.5261 </r>
       <r>     0.5311     0.7960    16.6253 </r>
       <r>     0.6443     0.2403    16.7256 </r>
       <r>     0.7575     0.9018    16.8277 </r>
       <r>     0.8708     0.4811    16.8889 </r>
       <r>     0.9840     0.6706    17.0192 </r>
       <r>     1.0972     0.0040    17.0526 </r>
       <r>     1.2104     0.4988    17.1631 </r>
       <r>     1.3237     0.7218    17.2971 </r>
       <r>     1.4369     0.0000    17.3243 </r>
       <r>     1.5501     0.0000    17.3243 </r>
       <r>     1.6633     0.4859    17.3793 </r>
       <r>     1.7765     0.0006    17.4332 </r>
       <r>     1.8898     0.7196    17.5735 </r>
       <r>     2.0030     0.9620    17.6826 </r>
       <r>     2.1162     0.7097    17.7901 </r>
       <r>     2.2294     0.0000    17.7914 </r>
       <r>     2.3426     0.9592    17.9000 </r>
       <r>     2.4559     0.4990    18.0111 </r>
       <r>     2.5691     0.2403    18.0680 </r>
       <r>     2.6823     0.4679    18.1210 </r>
       <r>     2.7955     1.2144    18.2599 </r>
       <r>     2.9088     0.0001    18.3129 </r>
       <r>     3.0220     1.3846    18.4742 </r>
       <r>     3.1352     1.2084    18.6720 </r>
       <r>     3.2484     0.7210    18.7800 </r>
       <r>     3.3616     0.7210    18.8617 </r>
       <r>     3.4749     0.9613    18.9705 </r>
       <r>     3.5881     0.6005    19.0385 </r>
       <r>     3.7013     0.2317    19.1872 </r>
       <r>     3.8145     0.7627    19.2746 </r>
       <r>     3.9278     0.5207    19.4376 </r>
       <r>     4.0410     2.0750    19.6726 </r>
       <r>     4.1542     0.9531    19.7904 </r>
       <r>     4.2674     0.0700    19.8265 </r>
       <r>     4.3806     1.4706    20.0123 </r>
       <r>     4.4939     1.5046    20.2611 </r>
       <r>     4.6071     0.5774    20.3466 </r>
       <r>     4.7203     0.4793    20.4171 </r>
       <r>     4.8335     0.4859    20.4995 </r>
       <r>     4.9467     0.8144    20.7271 </r>
       <r>     5.0600     0.3945    20.8428 </r>
       <r>     5.1732     1.4424    21.0159 </r>
       <r>     5.2864     0.9166    21.1741 </r>
       <r>     5.3996     0.7229    21.3154 </r>
       <r>     5.5129     0.0000    21.3696 </r>
       <r>     5.6261     0.4806    21.4785 </r>
       <r>     5.7393     0.7210    21.5601 </r>
       <r>     5.8525     0.0502    21.5658 </r>
       <r>     5.9657     1.2016    21.7234 </r>
       <r>     6.0790     0.7210    21.8050 </r>
       <r>     6.1922     0.4413    21.8550 </r>
       <r>     6.3054     1.6560    22.0469 </r>
       <r>     6.4186     0.2403    22.1315 </r>
       <r>     6.5318     1.4464    22.2953 </r>
       <r>     6.6451     0.9613    22.5125 </r>
       <r>     6.7583     0.0000    22.5125 </r>
       <r>     6.8715     0.3477    22.5518 </r>
       <r>     6.9847     0.0000    22.5669 </r>
       <r>     7.0980     0.0000    22.6213 </r>
       <r>     7.2112     1.5273    22.7942 </r>
       <r>     7.3244     0.0000    22.9751 </r>
       <r>     7.4376     0.0620    22.9821 </r>
       <r>     7.5508     0.0000    23.0295 </r>
       <r>     7.6641     0.0000    23.0295 </r>
       <r>     7.7773     0.0000    23.0295 </r>
       <r>     7.8905     0.2403    23.0567 </r>
       <r>     8.0037     0.0000    23.1111 </r>
       <r>     8.1170     0.2408    23.1384 </r>
       <r>     8.2302     1.3500    23.3184 </r>
       <r>     8.3434     0.0000    23.3832 </r>
       <r>     8.4566     0.4807    23.4376 </r>
       <r>     8.5698     0.0000    23.4376 </r>
       <r>     8.6831     0.0000    23.4376 </r>
       <r>     8.7963     0.0000    23.4376 </r>
       <r>     8.9095     0.4647    23.4903 </r>
       <r>     9.0227     0.0000    23.4921 </r>
       <r>     9.1359     0.5128    23.5501 </r>
       <r>     9.2492     0.4132    23.6295 </r>
       <r>     9.3624     0.0000    23.6916 </r>
       <r>     9.4756     0.9613    23.8004 </r>
       <r>     9.5888     0.0010    23.8278 </r>
       <r>     9.7021     0.3313    23.8924 </r>
       <r>     9.8153     0.4767    23.9723 </r>
       <r>     9.9285     0.0000    23.9728 </r>
       <r>    10.0417     0.0000    23.9728 </r>
       <r>    10.1549     0.2403    24.0000 </r>
       <r>    10.2682     0.0000    24.0000 </r>
       <r>    10.3814     0.0000    24.0000 </r>
       <r>    10.4946     0.0000    24.0000 </r>
       <r>    10.6078     0.0000    24.0000 </r>
       <r>    10.7211     0.0000    24.0000 </r>
       <r>    10.8343     0.0000    24.0000 </r>
       <r>    10.9475     0.0000    24.0000 </r>
       <r>    11.0607     0.0000    24.0000 </r>
       <r>    11.1739     0.0000    24.0000 </r>
       <r>    11.2872     0.0000    24.0000 </r>
       <r>    11.4004     0.0000    24.0000 </r>
       <r>    11.5136     0.0000    24.0000 </r>
       <r>    11.6268     0.0000    24.0000 </r>
      </set>
     </set>
    </array>
   </total>
  </dos>
 </calculation>
 <structure name="finalpos" >
  <crystal>
   <varray name="basis" >
    <v>       2.13000000      -1.22975600       0.00000000 </v>
    <v>       2.13000000       1.22975600       0.00000000 </v>
    <v>       0.00000000       0.00000000      20.00000000 </v>
   </varray>
   <i name="volume">    104.77521120 </i>
   <varray name="rec_basis" >
    <v>       0.23474178      -0.40658472       0.00000000 </v>
    <v>       0.23474178       0.40658472       0.00000000 </v>
    <v>       0.00000000       0.00000000       0.05000000 </v>
   </varray>
  </crystal>
  <varray name="positions" >
   <v>       0.00000000       0.00000000       0.00000000 </v>
   <v>       0.33333300       0.33333300       0.00000000 </v>
   <v>       0.00000000       0.00000000       0.25000000 </v>
   <v>       0.33333300       0.33333300       0.25000000 </v>
  </varray>
  <varray name="velocities" >
   <v>       0.00000000       0.00000000       0.00000000 </v>
   <v>       0.00000000       0.00000000       0.00000000 </v>
   <v>       0.00000000       0.00000000       0.00000000 </v>
   <v>       0.00000000       0.00000000       0.00000000 </v>
  </varray>
 </structure>
</modeling>
