18   
1    

1    
  0.0029975141742964  -0.0017306155121718   0.0093818909993627
  -0.1897885100    0.1084494500   -0.1379848400
   0.0233787500   -0.0148572800   -0.0035002100
   0.0106174500    0.0024859800   -0.0033237000
   0.0156352600    0.0175727200   -0.0034290700
   0.0082186500   -0.0047647800    0.0021112300
  -0.0137970600   -0.0027781700   -0.0033941300
  -0.0054508200    0.0003727800   -0.0033399000
  -0.0095117100   -0.0150567100   -0.0034824000
   0.0082347300   -0.0047730400    0.0021143200
   0.0739645700   -0.0205947500    0.0570696900
   0.0059921000    0.0097637800   -0.0091321400
   0.0527144400   -0.0497710300    0.0578263300
   0.0029597200   -0.0047964500   -0.0091126000
  -0.0172438800   -0.0001422400   -0.0091541600
   0.0025653900   -0.0127405100    0.0030918200
   0.0351537900   -0.0218417200    0.0574547900
  -0.0052129700    0.0177189100    0.0030850200
   0.0015701200   -0.0042469300    0.0030999400