 vasp.5.4.4.18Apr17-6-g9f103f2a35 (build May 31 2018 21:15:54) complex          
  
 executed on          c7_intel_O1 date 2020.07.28  15:13:29
 running on    4 total cores
 distrk:  each k-point on    4 cores,    1 groups
 distr:  one band on NCORES_PER_BAND=   1 cores,    4 groups


--------------------------------------------------------------------------------------------------------


 INCAR:
 POTCAR:    PAW_PBE C 08Apr2002                   
 POTCAR:    PAW_PBE C 08Apr2002                   
   VRHFIN =C: s2p2                                                              
   LEXCH  = PE                                                                  
   EATOM  =   147.1560 eV,   10.8157 Ry                                         
                                                                                
   TITEL  = PAW_PBE C 08Apr2002                                                 
   LULTRA =        F    use ultrasoft PP ?                                      
   IUNSCR =        1    unscreen: 0-lin 1-nonlin 2-no                           
   RPACOR =    1.200    partial core radius                                     
   POMASS =   12.011; ZVAL   =    4.000    mass and valenz                      
   RCORE  =    1.500    outmost cutoff radius                                   
   RWIGS  =    1.630; RWIGS  =    0.863    wigner-seitz radius (au A)           
   ENMAX  =  400.000; ENMIN  =  300.000 eV                                      
   ICORE  =        2    local potential                                         
   LCOR   =        T    correct aug charges                                     
   LPAW   =        T    paw PP                                                  
   EAUG   =  644.873                                                            
   DEXC   =    0.000                                                            
   RMAX   =    1.529    core radius for proj-oper                               
   RAUG   =    1.300    factor for augmentation sphere                          
   RDEP   =    1.501    radius for radial grids                                 
   RDEPT  =    1.300    core radius for aug-charge                              
                                                                                
   Atomic configuration                                                         
    4 entries                                                                   
     n  l   j            E        occ.                                          
     1  0  0.50      -273.3789   2.0000                                         
     2  0  0.50       -13.7508   2.0000                                         
     2  1  0.50        -5.2854   2.0000                                         
     3  2  1.50        -5.4423   0.0000                                         
   Description                                                                  
     l       E           TYP  RCUT    TYP  RCUT                                 
     0    -13.7508458     23  1.200                                             
     0     -8.2022199     23  1.200                                             
     1     -5.2854383     23  1.500                                             
     1     34.0145650     23  1.500                                             
     2     -5.4423304      7  1.500                                             
  local pseudopotential read in
  partial core-charges read in
  partial kinetic energy density read in
  atomic valenz-charges read in
  non local Contribution for L=           0  read in
    real space projection operators read in
  non local Contribution for L=           0  read in
    real space projection operators read in
  non local Contribution for L=           1  read in
    real space projection operators read in
  non local Contribution for L=           1  read in
    real space projection operators read in
    PAW grid and wavefunctions read in
 
   number of l-projection  operators is LMAX  =           4
   number of lm-projection operators is LMMAX =           8
 
  PAW_PBE C 08Apr2002                   :
 energy of atom  1       EATOM= -147.1560
 kinetic energy error for atom=    0.0016 (will be added to EATOM!!)
 
 
 POSCAR: C2                                      
  positions in direct lattice
  No initial velocities read in
 exchange correlation table for  LEXCH =        8
   RHO(1)=    0.500       N(1)  =     2000
   RHO(2)=  100.500       N(2)  =     4000
 


--------------------------------------------------------------------------------------------------------


 ion  position               nearest neighbor table
   1  0.000  0.000  0.000-   2 1.42   2 1.42   2 1.42
   2  0.333  0.333  0.000-   1 1.42   1 1.42   1 1.42
 
  LATTYP: Found a hexagonal cell.
 ALAT       =     2.4595120000
 C/A-ratio  =     8.1316944174
  
  Lattice vectors:
  
 A1 = (   0.0000000000,  -2.4595120000,   0.0000000000)
 A2 = (  -2.1300000000,   1.2297560000,   0.0000000000)
 A3 = (   0.0000000000,   0.0000000000, -20.0000000000)


Analysis of symmetry for initial positions (statically):
=====================================================================
 Subroutine PRICEL returns:
 Original cell was already a primitive cell.
 

 Routine SETGRP: Setting up the symmetry group for a 
 hexagonal supercell.


 Subroutine GETGRP returns: Found 24 space group operations
 (whereof 12 operations were pure point group operations)
 out of a pool of 24 trial point group operations.


The static configuration has the point symmetry D_3h.
 The point group associated with its full space group is D_6h.


Analysis of symmetry for dynamics (positions and initial velocities):
=====================================================================
 Subroutine PRICEL returns:
 Original cell was already a primitive cell.
 

 Routine SETGRP: Setting up the symmetry group for a 
 hexagonal supercell.


 Subroutine GETGRP returns: Found 24 space group operations
 (whereof 12 operations were pure point group operations)
 out of a pool of 24 trial point group operations.


The dynamic configuration has the point symmetry D_3h.
 The point group associated with its full space group is D_6h.


 Subroutine INISYM returns: Found 24 space group operations
 (whereof 12 operations are pure point group operations),
 and found     1 'primitive' translations

 
 
 KPOINTS: k grid                                  

Automatic generation of k-mesh.
Space group operators:
 irot       det(A)        alpha          n_x          n_y          n_z        tau_x        tau_y        tau_z
    1     1.000000     0.000000     1.000000     0.000000     0.000000     0.000000     0.000000     0.000000
    2    -1.000000    60.000000     0.000000     0.000000     1.000000     0.000000     0.000000     0.000000
    3     1.000000   120.000000     0.000000     0.000000     1.000000     0.000000     0.000000     0.000000
    4    -1.000000   180.000000     0.000000     0.000000     1.000000     0.000000     0.000000     0.000000
    5     1.000000   120.000000     0.000000     0.000000    -1.000000     0.000000     0.000000     0.000000
    6    -1.000000    60.000000     0.000000     0.000000    -1.000000     0.000000     0.000000     0.000000
    7    -1.000000   180.000000    -0.000000     1.000000     0.000000     0.000000     0.000000     0.000000
    8     1.000000   180.000000     0.500000    -0.866025     0.000000     0.000000     0.000000     0.000000
    9    -1.000000   180.000000     0.866025    -0.500000     0.000000     0.000000     0.000000     0.000000
   10     1.000000   180.000000     1.000000     0.000000     0.000000     0.000000     0.000000     0.000000
   11    -1.000000   180.000000     0.866025     0.500000     0.000000     0.000000     0.000000     0.000000
   12     1.000000   180.000000    -0.500000    -0.866025     0.000000     0.000000     0.000000     0.000000
   13    -1.000000     0.000000     1.000000     0.000000     0.000000     0.333333    -0.666667     0.000000
   14     1.000000    60.000000     0.000000     0.000000     1.000000     0.333333    -0.666667     0.000000
   15    -1.000000   120.000000     0.000000     0.000000     1.000000     0.333333    -0.666667     0.000000
   16     1.000000   180.000000     0.000000     0.000000     1.000000     0.333333    -0.666667     0.000000
   17    -1.000000   120.000000     0.000000     0.000000    -1.000000     0.333333    -0.666667     0.000000
   18     1.000000    60.000000     0.000000     0.000000    -1.000000     0.333333    -0.666667     0.000000
   19     1.000000   180.000000    -0.000000     1.000000     0.000000     0.333333    -0.666667     0.000000
   20    -1.000000   180.000000     0.500000    -0.866025     0.000000     0.333333    -0.666667     0.000000
   21     1.000000   180.000000     0.866025    -0.500000     0.000000     0.333333    -0.666667     0.000000
   22    -1.000000   180.000000     1.000000     0.000000     0.000000     0.333333    -0.666667     0.000000
   23     1.000000   180.000000     0.866025     0.500000     0.000000     0.333333    -0.666667     0.000000
   24    -1.000000   180.000000    -0.500000    -0.866025     0.000000     0.333333    -0.666667     0.000000
 
 Subroutine IBZKPT returns following result:
 ===========================================
 
 Found     48 irreducible k-points:
 
 Following reciprocal coordinates:
            Coordinates               Weight
  0.000000  0.000000  0.000000      1.000000
  0.047619  0.000000  0.000000      6.000000
  0.095238  0.000000  0.000000      6.000000
  0.142857  0.000000  0.000000      6.000000
  0.190476  0.000000  0.000000      6.000000
  0.238095  0.000000  0.000000      6.000000
  0.285714  0.000000  0.000000      6.000000
  0.333333  0.000000  0.000000      6.000000
  0.380952  0.000000  0.000000      6.000000
  0.428571  0.000000  0.000000      6.000000
  0.476190  0.000000  0.000000      6.000000
  0.095238  0.047619  0.000000      6.000000
  0.142857  0.047619  0.000000     12.000000
  0.190476  0.047619  0.000000     12.000000
  0.238095  0.047619  0.000000     12.000000
  0.285714  0.047619  0.000000     12.000000
  0.333333  0.047619  0.000000     12.000000
  0.380952  0.047619  0.000000     12.000000
  0.428571  0.047619  0.000000     12.000000
  0.476190  0.047619  0.000000     12.000000
 -0.476190  0.047619  0.000000      6.000000
  0.190476  0.095238  0.000000      6.000000
  0.238095  0.095238  0.000000     12.000000
  0.285714  0.095238  0.000000     12.000000
  0.333333  0.095238  0.000000     12.000000
  0.380952  0.095238  0.000000     12.000000
  0.428571  0.095238  0.000000     12.000000
  0.476190  0.095238  0.000000     12.000000
 -0.476190  0.095238  0.000000     12.000000
  0.285714  0.142857  0.000000      6.000000
  0.333333  0.142857  0.000000     12.000000
  0.380952  0.142857  0.000000     12.000000
  0.428571  0.142857  0.000000     12.000000
  0.476190  0.142857  0.000000     12.000000
 -0.476190  0.142857  0.000000     12.000000
 -0.428571  0.142857  0.000000      6.000000
  0.380952  0.190476  0.000000      6.000000
  0.428571  0.190476  0.000000     12.000000
  0.476190  0.190476  0.000000     12.000000
 -0.476190  0.190476  0.000000     12.000000
 -0.428571  0.190476  0.000000     12.000000
  0.476190  0.238095  0.000000      6.000000
 -0.476190  0.238095  0.000000     12.000000
 -0.428571  0.238095  0.000000     12.000000
 -0.380952  0.238095  0.000000      6.000000
 -0.428571  0.285714  0.000000      6.000000
 -0.380952  0.285714  0.000000     12.000000
 -0.333333  0.333333  0.000000      2.000000
 
 Following cartesian coordinates:
            Coordinates               Weight
  0.000000  0.000000  0.000000      1.000000
  0.011178 -0.019361  0.000000      6.000000
  0.022356 -0.038722  0.000000      6.000000
  0.033535 -0.058084  0.000000      6.000000
  0.044713 -0.077445  0.000000      6.000000
  0.055891 -0.096806  0.000000      6.000000
  0.067069 -0.116167  0.000000      6.000000
  0.078247 -0.135528  0.000000      6.000000
  0.089425 -0.154889  0.000000      6.000000
  0.100604 -0.174251  0.000000      6.000000
  0.111782 -0.193612  0.000000      6.000000
  0.033535 -0.019361  0.000000      6.000000
  0.044713 -0.038722  0.000000     12.000000
  0.055891 -0.058084  0.000000     12.000000
  0.067069 -0.077445  0.000000     12.000000
  0.078247 -0.096806  0.000000     12.000000
  0.089425 -0.116167  0.000000     12.000000
  0.100604 -0.135528  0.000000     12.000000
  0.111782 -0.154889  0.000000     12.000000
  0.122960 -0.174251  0.000000     12.000000
 -0.100604  0.212973  0.000000      6.000000
  0.067069 -0.038722  0.000000      6.000000
  0.078247 -0.058084  0.000000     12.000000
  0.089425 -0.077445  0.000000     12.000000
  0.100604 -0.096806  0.000000     12.000000
  0.111782 -0.116167  0.000000     12.000000
  0.122960 -0.135528  0.000000     12.000000
  0.134138 -0.154889  0.000000     12.000000
 -0.089425  0.232334  0.000000     12.000000
  0.100604 -0.058084  0.000000      6.000000
  0.111782 -0.077445  0.000000     12.000000
  0.122960 -0.096806  0.000000     12.000000
  0.134138 -0.116167  0.000000     12.000000
  0.145316 -0.135528  0.000000     12.000000
 -0.078247  0.251695  0.000000     12.000000
 -0.067069  0.232334  0.000000      6.000000
  0.134138 -0.077445  0.000000      6.000000
  0.145316 -0.096806  0.000000     12.000000
  0.156495 -0.116167  0.000000     12.000000
 -0.067069  0.271056  0.000000     12.000000
 -0.055891  0.251695  0.000000     12.000000
  0.167673 -0.096806  0.000000      6.000000
 -0.055891  0.290418  0.000000     12.000000
 -0.044713  0.271056  0.000000     12.000000
 -0.033535  0.251695  0.000000      6.000000
 -0.033535  0.290418  0.000000      6.000000
 -0.022356  0.271056  0.000000     12.000000
  0.000000  0.271056  0.000000      2.000000
 
 TETIRR: Found    229 inequivalent tetrahedra from     2646


--------------------------------------------------------------------------------------------------------




 Dimension of arrays:
   k-points           NKPTS =     48   k-points in BZ     NKDIM =     48   number of bands    NBANDS=      8
   number of dos      NEDOS =   9001   number of ions     NIONS =      2
   non local maximal  LDIM  =      4   non local SUM 2l+1 LMDIM =      8
   total plane-waves  NPLWV = 110592
   max r-space proj   IRMAX =      1   max aug-charges    IRDMAX=  99836
   dimension x,y,z NGX =    24 NGY =   24 NGZ =  192
   dimension x,y,z NGXF=    48 NGYF=   48 NGZF=  384
   support grid    NGXF=    96 NGYF=   96 NGZF=  768
   ions per type =               2
   NGX,Y,Z   is equivalent  to a cutoff of  16.22, 16.22, 15.96 a.u.
   NGXF,Y,Z  is equivalent  to a cutoff of  32.44, 32.44, 31.92 a.u.

 SYSTEM =  C:graphene                              
 POSCAR =  C2                                      

 Startparameter for this run:
   NWRITE =      2    write-flag & timer
   PREC   = accura    normal or accurate (medium, high low for compatibility)
   ISTART =      0    job   : 0-new  1-cont  2-samecut
   ICHARG =     11    charge: 1-file 2-atom 10-const
   ISPIN  =      1    spin polarized calculation?
   LNONCOLLINEAR =      F non collinear calculations
   LSORBIT =      F    spin-orbit coupling
   INIWAV =      1    electr: 0-lowe 1-rand  2-diag
   LASPH  =      F    aspherical Exc in radial PAW
   METAGGA=      F    non-selfconsistent MetaGGA calc.

 Electronic Relaxation 1
   ENCUT  =  800.0 eV  58.80 Ry    7.67 a.u.   5.67  5.67 46.12*2*pi/ulx,y,z
   ENINI  =  800.0     initial cutoff
   ENAUG  =  644.9 eV  augmentation charge cutoff
   NELM   =     60;   NELMIN=  5; NELMDL= -5     # of ELM steps 
   EDIFF  = 0.1E-07   stopping-criterion for ELM
   LREAL  =      F    real-space projection
   NLSPLINE    = F    spline interpolate recip. space projectors
   LCOMPAT=      F    compatible to vasp.4.4
   GGA_COMPAT  = T    GGA compatible to vasp.4.4-vasp.4.6
   LMAXPAW     = -100 max onsite density
   LMAXMIX     =    2 max onsite mixed and CHGCAR
   VOSKOWN=      0    Vosko Wilk Nusair interpolation
   ROPT   =    0.00000
 Ionic relaxation
   EDIFFG = 0.1E-06   stopping-criterion for IOM
   NSW    =     80    number of steps for IOM
   NBLOCK =      1;   KBLOCK =     80    inner block; outer block 
   IBRION =     -1    ionic relax: 0-MD 1-quasi-New 2-CG
   NFREE  =      0    steps in history (QN), initial steepest desc. (CG)
   ISIF   =      2    stress and relaxation
   IWAVPR =     10    prediction:  0-non 1-charg 2-wave 3-comb
   ISYM   =      2    0-nonsym 1-usesym 2-fastsym
   LCORR  =      T    Harris-Foulkes like correction to forces

   POTIM  = 0.5000    time-step for ionic-motion
   TEIN   =    0.0    initial temperature
   TEBEG  =    0.0;   TEEND  =   0.0 temperature during run
   SMASS  =  -3.00    Nose mass-parameter (am)
   estimated Nose-frequenzy (Omega)   =  0.10E-29 period in steps =****** mass=  -0.138E-27a.u.
   SCALEE = 1.0000    scale energy and forces
   NPACO  =    256;   APACO  = 16.0  distance and # of slots for P.C.
   PSTRESS=    0.0 pullay stress

  Mass of Ions in am
   POMASS =  12.01
  Ionic Valenz
   ZVAL   =   4.00
  Atomic Wigner-Seitz radii
   RWIGS  =  -1.00
  virtual crystal weights 
   VCA    =   1.00
   NELECT =       8.0000    total number of electrons
   NUPDOWN=      -1.0000    fix difference up-down

 DOS related values:
   EMIN   =  10.00;   EMAX   =-10.00  energy-range for DOS
   EFERMI =   0.00
   ISMEAR =    -5;   SIGMA  =   0.01  broadening in eV -4-tet -1-fermi 0-gaus

 Electronic relaxation 2 (details)
   IALGO  =     38    algorithm
   LDIAG  =      T    sub-space diagonalisation (order eigenvalues)
   LSUBROT=      F    optimize rotation matrix (better conditioning)
   TURBO    =      0    0=normal 1=particle mesh
   IRESTART =      0    0=no restart 2=restart with 2 vectors
   NREBOOT  =      0    no. of reboots
   NMIN     =      0    reboot dimension
   EREF     =   0.00    reference energy to select bands
   IMIX   =      4    mixing-type and parameters
     AMIX     =   0.40;   BMIX     =  1.00
     AMIX_MAG =   1.60;   BMIX_MAG =  1.00
     AMIN     =   0.01
     WC   =   100.;   INIMIX=   1;  MIXPRE=   1;  MAXMIX= -45

 Intra band minimization:
   WEIMIN = 0.0000     energy-eigenvalue tresh-hold
   EBREAK =  0.31E-09  absolut break condition
   DEPER  =   0.30     relativ break condition  

   TIME   =   0.40     timestep for ELM

  volume/ion in A,a.u.               =      52.39       353.53
  Fermi-wavevector in a.u.,A,eV,Ry     =   0.694521  1.312454  6.562896  0.482359
  Thomas-Fermi vector in A             =   1.777037
 
 Write flags
   LWAVE        =      F    write WAVECAR
   LDOWNSAMPLE  =      F    k-point downsampling of WAVECAR
   LCHARG       =      T    write CHGCAR
   LVTOT        =      F    write LOCPOT, total local potential
   LVHAR        =      F    write LOCPOT, Hartree potential only
   LELF         =      F    write electronic localiz. function (ELF)
   LORBIT       =      0    0 simple, 1 ext, 2 COOP (PROOUT), +10 PAW based schemes


 Dipole corrections
   LMONO  =      F    monopole corrections only (constant potential shift)
   LDIPOL =      F    correct potential (dipole corrections)
   IDIPOL =      0    1-x, 2-y, 3-z, 4-all directions 
   EPSILON=  1.0000000 bulk dielectric constant

 Exchange correlation treatment:
   GGA     =    --    GGA type
   LEXCH   =     8    internal setting for exchange type
   VOSKOWN=      0    Vosko Wilk Nusair interpolation
   LHFCALC =     F    Hartree Fock is set to
   LHFONE  =     F    Hartree Fock one center treatment
   AEXX    =    0.0000 exact exchange contribution

 Linear response parameters
   LEPSILON=     F    determine dielectric tensor
   LRPA    =     F    only Hartree local field effects (RPA)
   LNABLA  =     F    use nabla operator in PAW spheres
   LVEL    =     F    velocity operator in full k-point grid
   LINTERFAST=   F  fast interpolation
   KINTER  =     0    interpolate to denser k-point grid
   CSHIFT  =0.1000    complex shift for real part using Kramers Kronig
   OMEGAMAX=  -1.0    maximum frequency
   DEG_THRESHOLD= 0.2000000E-02 threshold for treating states as degnerate
   RTIME   =   -0.100 relaxation time in fs
  (WPLASMAI=    0.000 imaginary part of plasma frequency in eV, 0.658/RTIME)
   DFIELD  = 0.0000000 0.0000000 0.0000000 field for delta impulse in time
 
 Orbital magnetization related:
   ORBITALMAG=     F  switch on orbital magnetization
   LCHIMAG   =     F  perturbation theory with respect to B field
   DQ        =  0.001000  dq finite difference perturbation B field
   LLRAUG    =     F  two centre corrections for induced B field



--------------------------------------------------------------------------------------------------------


 Static calculation
 charge density and potential remain constant during run
 non-spin polarized calculation
 Variant of blocked Davidson
 Davidson routine will perform the subspace rotation
 perform sub-space diagonalisation
    after iterative eigenvector-optimisation
 no mixing
 using additional bands            4
 reciprocal scheme for non local part
 use partial core corrections
 calculate Harris-corrections to forces 
   (improved forces if not selfconsistent)
 use gradient corrections 
 WARNING: stress and forces are not correct
  (second derivative of E(xc) not defined)
 use of overlap-Matrix (Vanderbilt PP)
 Fermi weights with tetrahedron method with Bloechl corrections


--------------------------------------------------------------------------------------------------------


  energy-cutoff  :      800.00
  volume of cell :      104.78
      direct lattice vectors                 reciprocal lattice vectors
     2.130000000 -1.229756000  0.000000000     0.234741784 -0.406584721  0.000000000
     2.130000000  1.229756000  0.000000000     0.234741784  0.406584721  0.000000000
     0.000000000  0.000000000 20.000000000     0.000000000  0.000000000  0.050000000

  length of vectors
     2.459512110  2.459512110 20.000000000     0.469483589  0.469483589  0.050000000


 
 k-points in units of 2pi/SCALE and weight: k grid                                  
   0.00000000  0.00000000  0.00000000       0.002
   0.01117818 -0.01936118  0.00000000       0.014
   0.02235636 -0.03872235  0.00000000       0.014
   0.03353454 -0.05808353  0.00000000       0.014
   0.04471272 -0.07744471  0.00000000       0.014
   0.05589090 -0.09680589  0.00000000       0.014
   0.06706908 -0.11616706  0.00000000       0.014
   0.07824726 -0.13552824  0.00000000       0.014
   0.08942544 -0.15488942  0.00000000       0.014
   0.10060362 -0.17425059  0.00000000       0.014
   0.11178180 -0.19361177  0.00000000       0.014
   0.03353454 -0.01936118  0.00000000       0.014
   0.04471272 -0.03872235  0.00000000       0.027
   0.05589090 -0.05808353  0.00000000       0.027
   0.06706908 -0.07744471  0.00000000       0.027
   0.07824726 -0.09680589  0.00000000       0.027
   0.08942544 -0.11616706  0.00000000       0.027
   0.10060362 -0.13552824  0.00000000       0.027
   0.11178180 -0.15488942  0.00000000       0.027
   0.12295998 -0.17425059  0.00000000       0.027
  -0.10060362  0.21297295  0.00000000       0.014
   0.06706908 -0.03872235  0.00000000       0.014
   0.07824726 -0.05808353  0.00000000       0.027
   0.08942544 -0.07744471  0.00000000       0.027
   0.10060362 -0.09680589  0.00000000       0.027
   0.11178180 -0.11616706  0.00000000       0.027
   0.12295998 -0.13552824  0.00000000       0.027
   0.13413816 -0.15488942  0.00000000       0.027
  -0.08942544  0.23233413  0.00000000       0.027
   0.10060362 -0.05808353  0.00000000       0.014
   0.11178180 -0.07744471  0.00000000       0.027
   0.12295998 -0.09680589  0.00000000       0.027
   0.13413816 -0.11616706  0.00000000       0.027
   0.14531634 -0.13552824  0.00000000       0.027
  -0.07824726  0.25169530  0.00000000       0.027
  -0.06706908  0.23233413  0.00000000       0.014
   0.13413816 -0.07744471  0.00000000       0.014
   0.14531634 -0.09680589  0.00000000       0.027
   0.15649452 -0.11616706  0.00000000       0.027
  -0.06706908  0.27105648  0.00000000       0.027
  -0.05589090  0.25169530  0.00000000       0.027
   0.16767270 -0.09680589  0.00000000       0.014
  -0.05589090  0.29041766  0.00000000       0.027
  -0.04471272  0.27105648  0.00000000       0.027
  -0.03353454  0.25169530  0.00000000       0.014
  -0.03353454  0.29041766  0.00000000       0.014
  -0.02235636  0.27105648  0.00000000       0.027
   0.00000000  0.27105648  0.00000000       0.005
 
 k-points in reciprocal lattice and weights: k grid                                  
   0.00000000  0.00000000  0.00000000       0.002
   0.04761905  0.00000000  0.00000000       0.014
   0.09523810  0.00000000  0.00000000       0.014
   0.14285714  0.00000000  0.00000000       0.014
   0.19047619  0.00000000  0.00000000       0.014
   0.23809524  0.00000000  0.00000000       0.014
   0.28571429  0.00000000  0.00000000       0.014
   0.33333333  0.00000000  0.00000000       0.014
   0.38095238  0.00000000  0.00000000       0.014
   0.42857143  0.00000000  0.00000000       0.014
   0.47619048  0.00000000  0.00000000       0.014
   0.09523810  0.04761905  0.00000000       0.014
   0.14285714  0.04761905  0.00000000       0.027
   0.19047619  0.04761905  0.00000000       0.027
   0.23809524  0.04761905  0.00000000       0.027
   0.28571429  0.04761905  0.00000000       0.027
   0.33333333  0.04761905  0.00000000       0.027
   0.38095238  0.04761905  0.00000000       0.027
   0.42857143  0.04761905  0.00000000       0.027
   0.47619048  0.04761905  0.00000000       0.027
  -0.47619048  0.04761905  0.00000000       0.014
   0.19047619  0.09523810  0.00000000       0.014
   0.23809524  0.09523810  0.00000000       0.027
   0.28571429  0.09523810  0.00000000       0.027
   0.33333333  0.09523810  0.00000000       0.027
   0.38095238  0.09523810  0.00000000       0.027
   0.42857143  0.09523810  0.00000000       0.027
   0.47619048  0.09523810  0.00000000       0.027
  -0.47619048  0.09523810  0.00000000       0.027
   0.28571429  0.14285714  0.00000000       0.014
   0.33333333  0.14285714  0.00000000       0.027
   0.38095238  0.14285714  0.00000000       0.027
   0.42857143  0.14285714  0.00000000       0.027
   0.47619048  0.14285714  0.00000000       0.027
  -0.47619048  0.14285714  0.00000000       0.027
  -0.42857143  0.14285714  0.00000000       0.014
   0.38095238  0.19047619  0.00000000       0.014
   0.42857143  0.19047619  0.00000000       0.027
   0.47619048  0.19047619  0.00000000       0.027
  -0.47619048  0.19047619  0.00000000       0.027
  -0.42857143  0.19047619  0.00000000       0.027
   0.47619048  0.23809524  0.00000000       0.014
  -0.47619048  0.23809524  0.00000000       0.027
  -0.42857143  0.23809524  0.00000000       0.027
  -0.38095238  0.23809524  0.00000000       0.014
  -0.42857143  0.28571429  0.00000000       0.014
  -0.38095238  0.28571429  0.00000000       0.027
  -0.33333333  0.33333333  0.00000000       0.005
 
 position of ions in fractional coordinates (direct lattice) 
   0.00000000  0.00000000  0.00000000
   0.33333300  0.33333300  0.00000000
 
 position of ions in cartesian coordinates  (Angst):
   0.00000000  0.00000000  0.00000000
   1.41999858  0.00000000  0.00000000
 


--------------------------------------------------------------------------------------------------------


 k-point  1 :   0.0000 0.0000 0.0000  plane waves:    5409
 k-point  2 :   0.0476 0.0000 0.0000  plane waves:    5413
 k-point  3 :   0.0952 0.0000 0.0000  plane waves:    5402
 k-point  4 :   0.1429 0.0000 0.0000  plane waves:    5398
 k-point  5 :   0.1905 0.0000 0.0000  plane waves:    5404
 k-point  6 :   0.2381 0.0000 0.0000  plane waves:    5408
 k-point  7 :   0.2857 0.0000 0.0000  plane waves:    5404
 k-point  8 :   0.3333 0.0000 0.0000  plane waves:    5394
 k-point  9 :   0.3810 0.0000 0.0000  plane waves:    5382
 k-point 10 :   0.4286 0.0000 0.0000  plane waves:    5396
 k-point 11 :   0.4762 0.0000 0.0000  plane waves:    5380
 k-point 12 :   0.0952 0.0476 0.0000  plane waves:    5411
 k-point 13 :   0.1429 0.0476 0.0000  plane waves:    5415
 k-point 14 :   0.1905 0.0476 0.0000  plane waves:    5413
 k-point 15 :   0.2381 0.0476 0.0000  plane waves:    5399
 k-point 16 :   0.2857 0.0476 0.0000  plane waves:    5396
 k-point 17 :   0.3333 0.0476 0.0000  plane waves:    5389
 k-point 18 :   0.3810 0.0476 0.0000  plane waves:    5378
 k-point 19 :   0.4286 0.0476 0.0000  plane waves:    5381
 k-point 20 :   0.4762 0.0476 0.0000  plane waves:    5391
 k-point 21 :  -0.4762 0.0476 0.0000  plane waves:    5394
 k-point 22 :   0.1905 0.0952 0.0000  plane waves:    5403
 k-point 23 :   0.2381 0.0952 0.0000  plane waves:    5409
 k-point 24 :   0.2857 0.0952 0.0000  plane waves:    5419
 k-point 25 :   0.3333 0.0952 0.0000  plane waves:    5384
 k-point 26 :   0.3810 0.0952 0.0000  plane waves:    5369
 k-point 27 :   0.4286 0.0952 0.0000  plane waves:    5364
 k-point 28 :   0.4762 0.0952 0.0000  plane waves:    5382
 k-point 29 :  -0.4762 0.0952 0.0000  plane waves:    5404
 k-point 30 :   0.2857 0.1429 0.0000  plane waves:    5405
 k-point 31 :   0.3333 0.1429 0.0000  plane waves:    5404
 k-point 32 :   0.3810 0.1429 0.0000  plane waves:    5382
 k-point 33 :   0.4286 0.1429 0.0000  plane waves:    5347
 k-point 34 :   0.4762 0.1429 0.0000  plane waves:    5367
 k-point 35 :  -0.4762 0.1429 0.0000  plane waves:    5376
 k-point 36 :  -0.4286 0.1429 0.0000  plane waves:    5400
 k-point 37 :   0.3810 0.1905 0.0000  plane waves:    5390
 k-point 38 :   0.4286 0.1905 0.0000  plane waves:    5358
 k-point 39 :   0.4762 0.1905 0.0000  plane waves:    5365
 k-point 40 :  -0.4762 0.1905 0.0000  plane waves:    5363
 k-point 41 :  -0.4286 0.1905 0.0000  plane waves:    5377
 k-point 42 :   0.4762 0.2381 0.0000  plane waves:    5364
 k-point 43 :  -0.4762 0.2381 0.0000  plane waves:    5368
 k-point 44 :  -0.4286 0.2381 0.0000  plane waves:    5360
 k-point 45 :  -0.3810 0.2381 0.0000  plane waves:    5366
 k-point 46 :  -0.4286 0.2857 0.0000  plane waves:    5362
 k-point 47 :  -0.3810 0.2857 0.0000  plane waves:    5326
 k-point 48 :  -0.3333 0.3333 0.0000  plane waves:    5334

 maximum and minimum number of plane-waves per node :      5419     5326

 maximum number of plane-waves:      5419
 maximum index in each direction: 
   IXMAX=    6   IYMAX=    5   IZMAX=   46
   IXMIN=   -6   IYMIN=   -5   IZMIN=  -46


 serial   3D FFT for wavefunctions
 parallel 3D FFT for charge:
    minimum data exchange during FFTs selected (reduces bandwidth)


 total amount of memory used by VASP MPI-rank0   102984. kBytes
=======================================================================

   base      :      30000. kBytes
   nonl-proj :      16823. kBytes
   fftplans  :      32720. kBytes
   grid      :      15086. kBytes
   one-center:          6. kBytes
   wavefun   :       8349. kBytes
 
     INWAV:  cpu time    0.0000: real time    0.0001
 initial charge density was supplied:
 number of electron       8.0000000 magnetization 
 keeping initial charge density in first step


--------------------------------------------------------------------------------------------------------


 Maximum index for augmentation-charges        24105 (set IRDMAX)


--------------------------------------------------------------------------------------------------------


 First call to EWALD:  gamma=   0.376
 Maximum number of real-space cells 5x 5x 1
 Maximum number of reciprocal cells 2x 2x10

    FEWALD:  cpu time    0.0010: real time    0.0010


--------------------------------------- Iteration      1(   1)  ---------------------------------------


    POTLOK:  cpu time    0.0863: real time    0.1071
    SETDIJ:  cpu time    0.0376: real time    0.0376
     EDDAV:  cpu time    0.8178: real time    0.8668
 BZINTS: Fermi energy:  5.515630;  8.000000 electrons
         Band energy: -31.878459;  BLOECHL correction: -0.359314
       DOS:  cpu time    0.0135: real time    0.0150
    --------------------------------------------
      LOOP:  cpu time    0.9551: real time    1.0266

 eigenvalue-minimisations  :   768
 total energy-change (2. order) : 0.4478310E+02  (-0.3526567E+03)
 number of electron       8.0000000 magnetization 
 augmentation part        8.0000000 magnetization 

 Free energy of the ion-electron system (eV)
  ---------------------------------------------------
  alpha Z        PSCENC =         3.13611264
  Ewald energy   TEWEN  =      1303.03316907
  -Hartree energ DENC   =     -1550.04809692
  -exchange      EXHF   =         0.00000000
  -V(xc)+E(xc)   XCENC  =        27.59285695
  PAW double counting   =       847.83262137     -849.19395358
  entropy T*S    EENTRO =         0.00000000
  eigenvalues    EBANDS =       -31.87845880
  atomic energy  EATOM  =       294.30884690
  Solvation  Ediel_sol  =         0.00000000
  ---------------------------------------------------
  free energy    TOTEN  =        44.78309764 eV

  energy without entropy =       44.78309764  energy(sigma->0) =       44.78309764


--------------------------------------------------------------------------------------------------------




--------------------------------------- Iteration      1(   2)  ---------------------------------------


     EDDAV:  cpu time    1.1303: real time    1.1351
 BZINTS: Fermi energy: -0.979080;  8.000000 electrons
         Band energy: -91.021634;  BLOECHL correction:  0.000000
       DOS:  cpu time    0.0220: real time    0.0220
    --------------------------------------------
      LOOP:  cpu time    1.1522: real time    1.1572

 eigenvalue-minimisations  :  1232
 total energy-change (2. order) :-0.5914317E+02  (-0.4766745E+02)
 number of electron       8.0000000 magnetization 
 augmentation part        8.0000000 magnetization 

 Free energy of the ion-electron system (eV)
  ---------------------------------------------------
  alpha Z        PSCENC =         3.13611264
  Ewald energy   TEWEN  =      1303.03316907
  -Hartree energ DENC   =     -1550.04809692
  -exchange      EXHF   =         0.00000000
  -V(xc)+E(xc)   XCENC  =        27.59285695
  PAW double counting   =       847.83262137     -849.19395358
  entropy T*S    EENTRO =         0.00000000
  eigenvalues    EBANDS =       -91.02163370
  atomic energy  EATOM  =       294.30884690
  Solvation  Ediel_sol  =         0.00000000
  ---------------------------------------------------
  free energy    TOTEN  =       -14.36007726 eV

  energy without entropy =      -14.36007726  energy(sigma->0) =      -14.36007726


--------------------------------------------------------------------------------------------------------




--------------------------------------- Iteration      1(   3)  ---------------------------------------


     EDDAV:  cpu time    0.9436: real time    0.9460
 BZINTS: Fermi energy: -2.719062;  8.000000 electrons
         Band energy: -95.091937;  BLOECHL correction:  0.000000
       DOS:  cpu time    0.0189: real time    0.0189
    --------------------------------------------
      LOOP:  cpu time    0.9625: real time    0.9649

 eigenvalue-minimisations  :   976
 total energy-change (2. order) :-0.4070303E+01  (-0.4070303E+01)
 number of electron       8.0000000 magnetization 
 augmentation part        8.0000000 magnetization 

 Free energy of the ion-electron system (eV)
  ---------------------------------------------------
  alpha Z        PSCENC =         3.13611264
  Ewald energy   TEWEN  =      1303.03316907
  -Hartree energ DENC   =     -1550.04809692
  -exchange      EXHF   =         0.00000000
  -V(xc)+E(xc)   XCENC  =        27.59285695
  PAW double counting   =       847.83262137     -849.19395358
  entropy T*S    EENTRO =         0.00000000
  eigenvalues    EBANDS =       -95.09193709
  atomic energy  EATOM  =       294.30884690
  Solvation  Ediel_sol  =         0.00000000
  ---------------------------------------------------
  free energy    TOTEN  =       -18.43038066 eV

  energy without entropy =      -18.43038066  energy(sigma->0) =      -18.43038066


--------------------------------------------------------------------------------------------------------




--------------------------------------- Iteration      1(   4)  ---------------------------------------


     EDDAV:  cpu time    1.0377: real time    1.0403
 BZINTS: Fermi energy: -2.725011;  8.000000 electrons
         Band energy: -95.125525;  BLOECHL correction:  0.000000
       DOS:  cpu time    0.0194: real time    0.0194
    --------------------------------------------
      LOOP:  cpu time    1.0571: real time    1.0597

 eigenvalue-minimisations  :  1112
 total energy-change (2. order) :-0.3358816E-01  (-0.3358816E-01)
 number of electron       8.0000000 magnetization 
 augmentation part        8.0000000 magnetization 

 Free energy of the ion-electron system (eV)
  ---------------------------------------------------
  alpha Z        PSCENC =         3.13611264
  Ewald energy   TEWEN  =      1303.03316907
  -Hartree energ DENC   =     -1550.04809692
  -exchange      EXHF   =         0.00000000
  -V(xc)+E(xc)   XCENC  =        27.59285695
  PAW double counting   =       847.83262137     -849.19395358
  entropy T*S    EENTRO =         0.00000000
  eigenvalues    EBANDS =       -95.12552526
  atomic energy  EATOM  =       294.30884690
  Solvation  Ediel_sol  =         0.00000000
  ---------------------------------------------------
  free energy    TOTEN  =       -18.46396882 eV

  energy without entropy =      -18.46396882  energy(sigma->0) =      -18.46396882


--------------------------------------------------------------------------------------------------------




--------------------------------------- Iteration      1(   5)  ---------------------------------------


     EDDAV:  cpu time    1.0267: real time    1.0293
 BZINTS: Fermi energy: -2.725032;  8.000000 electrons
         Band energy: -95.125800;  BLOECHL correction:  0.000000
       DOS:  cpu time    0.0195: real time    0.0195
    --------------------------------------------
      LOOP:  cpu time    1.0462: real time    1.0488

 eigenvalue-minimisations  :  1088
 total energy-change (2. order) :-0.2749530E-03  (-0.2749530E-03)
 number of electron       8.0000000 magnetization 
 augmentation part        8.0000000 magnetization 

 Free energy of the ion-electron system (eV)
  ---------------------------------------------------
  alpha Z        PSCENC =         3.13611264
  Ewald energy   TEWEN  =      1303.03316907
  -Hartree energ DENC   =     -1550.04809692
  -exchange      EXHF   =         0.00000000
  -V(xc)+E(xc)   XCENC  =        27.59285695
  PAW double counting   =       847.83262137     -849.19395358
  entropy T*S    EENTRO =         0.00000000
  eigenvalues    EBANDS =       -95.12580021
  atomic energy  EATOM  =       294.30884690
  Solvation  Ediel_sol  =         0.00000000
  ---------------------------------------------------
  free energy    TOTEN  =       -18.46424377 eV

  energy without entropy =      -18.46424377  energy(sigma->0) =      -18.46424377


--------------------------------------------------------------------------------------------------------




--------------------------------------- Iteration      1(   6)  ---------------------------------------


     EDDAV:  cpu time    1.1492: real time    1.1520
 BZINTS: Fermi energy: -2.724991;  8.000000 electrons
         Band energy: -95.125809;  BLOECHL correction: -0.000000
       DOS:  cpu time    0.0195: real time    0.0195
    --------------------------------------------
      LOOP:  cpu time    1.1686: real time    1.1715

 eigenvalue-minimisations  :  1264
 total energy-change (2. order) :-0.9252119E-05  (-0.9153578E-05)
 number of electron       8.0000000 magnetization 
 augmentation part        8.0000000 magnetization 

 Free energy of the ion-electron system (eV)
  ---------------------------------------------------
  alpha Z        PSCENC =         3.13611264
  Ewald energy   TEWEN  =      1303.03316907
  -Hartree energ DENC   =     -1550.04809692
  -exchange      EXHF   =         0.00000000
  -V(xc)+E(xc)   XCENC  =        27.59285695
  PAW double counting   =       847.83262137     -849.19395358
  entropy T*S    EENTRO =         0.00000000
  eigenvalues    EBANDS =       -95.12580946
  atomic energy  EATOM  =       294.30884690
  Solvation  Ediel_sol  =         0.00000000
  ---------------------------------------------------
  free energy    TOTEN  =       -18.46425303 eV

  energy without entropy =      -18.46425303  energy(sigma->0) =      -18.46425303


--------------------------------------------------------------------------------------------------------




--------------------------------------- Iteration      1(   7)  ---------------------------------------


     EDDAV:  cpu time    1.0711: real time    1.0737
 BZINTS: Fermi energy: -2.725076;  8.000000 electrons
         Band energy: -95.125810;  BLOECHL correction: -0.000000
       DOS:  cpu time    0.0195: real time    0.0195
    --------------------------------------------
      LOOP:  cpu time    1.0906: real time    1.0932

 eigenvalue-minimisations  :  1160
 total energy-change (2. order) :-0.2487147E-06  (-0.1295848E-06)
 number of electron       8.0000000 magnetization 
 augmentation part        8.0000000 magnetization 

 Free energy of the ion-electron system (eV)
  ---------------------------------------------------
  alpha Z        PSCENC =         3.13611264
  Ewald energy   TEWEN  =      1303.03316907
  -Hartree energ DENC   =     -1550.04809692
  -exchange      EXHF   =         0.00000000
  -V(xc)+E(xc)   XCENC  =        27.59285695
  PAW double counting   =       847.83262137     -849.19395358
  entropy T*S    EENTRO =         0.00000000
  eigenvalues    EBANDS =       -95.12580971
  atomic energy  EATOM  =       294.30884690
  Solvation  Ediel_sol  =         0.00000000
  ---------------------------------------------------
  free energy    TOTEN  =       -18.46425328 eV

  energy without entropy =      -18.46425328  energy(sigma->0) =      -18.46425328


--------------------------------------------------------------------------------------------------------




--------------------------------------- Iteration      1(   8)  ---------------------------------------


     EDDAV:  cpu time    1.1278: real time    1.1306
 BZINTS: Fermi energy: -2.725023;  8.000000 electrons
         Band energy: -95.125810;  BLOECHL correction:  0.000000
       DOS:  cpu time    0.0195: real time    0.0196
    --------------------------------------------
      LOOP:  cpu time    1.1473: real time    1.1501

 eigenvalue-minimisations  :  1240
 total energy-change (2. order) : 0.2074951E-06  (-0.1017114E-07)
 number of electron       8.0000000 magnetization 
 augmentation part        8.0000000 magnetization 

 Free energy of the ion-electron system (eV)
  ---------------------------------------------------
  alpha Z        PSCENC =         3.13611264
  Ewald energy   TEWEN  =      1303.03316907
  -Hartree energ DENC   =     -1550.04809692
  -exchange      EXHF   =         0.00000000
  -V(xc)+E(xc)   XCENC  =        27.59285695
  PAW double counting   =       847.83262137     -849.19395358
  entropy T*S    EENTRO =         0.00000000
  eigenvalues    EBANDS =       -95.12580950
  atomic energy  EATOM  =       294.30884690
  Solvation  Ediel_sol  =         0.00000000
  ---------------------------------------------------
  free energy    TOTEN  =       -18.46425307 eV

  energy without entropy =      -18.46425307  energy(sigma->0) =      -18.46425307


--------------------------------------------------------------------------------------------------------




--------------------------------------- Iteration      1(   9)  ---------------------------------------


     EDDAV:  cpu time    1.0860: real time    1.0887
 BZINTS: Fermi energy: -2.725027;  8.000000 electrons
         Band energy: -95.125810;  BLOECHL correction:  0.000000
       DOS:  cpu time    0.0194: real time    0.0195
    --------------------------------------------
      LOOP:  cpu time    1.1055: real time    1.1082

 eigenvalue-minimisations  :  1176
 total energy-change (2. order) :-0.1591616E-11  (-0.3176899E-13)
 number of electron       8.0000000 magnetization 
 augmentation part        8.0000000 magnetization 

 Free energy of the ion-electron system (eV)
  ---------------------------------------------------
  alpha Z        PSCENC =         3.13611264
  Ewald energy   TEWEN  =      1303.03316907
  -Hartree energ DENC   =     -1550.04809692
  -exchange      EXHF   =         0.00000000
  -V(xc)+E(xc)   XCENC  =        27.59285695
  PAW double counting   =       847.83262137     -849.19395358
  entropy T*S    EENTRO =         0.00000000
  eigenvalues    EBANDS =       -95.12580950
  atomic energy  EATOM  =       294.30884690
  Solvation  Ediel_sol  =         0.00000000
  ---------------------------------------------------
  free energy    TOTEN  =       -18.46425307 eV

  energy without entropy =      -18.46425307  energy(sigma->0) =      -18.46425307


--------------------------------------------------------------------------------------------------------




 average (electrostatic) potential at core
  the test charge radii are     0.6991
  (the norm of the test charge is              1.0000)
       1 -58.1523       2 -58.1523
 
 
 
 E-fermi :  -2.7250     XC(G=0):  -2.1565     alpha+bet : -1.9131


 k-point     1 :       0.0000    0.0000    0.0000
  band No.  band energies     occupation 
      1     -22.2991      2.00000
      2     -10.3930      2.00000
      3      -5.7526      2.00000
      4      -5.7525      2.00000
      5       0.5233      0.00000
      6       1.3242      0.00000
      7       1.6908      0.00000
      8       2.5991      0.00000

 k-point     2 :       0.0476    0.0000    0.0000
  band No.  band energies     occupation 
      1     -22.2453      2.00000
      2     -10.3286      2.00000
      3      -5.9734      2.00000
      4      -5.8694      2.00000
      5       0.5963      0.00000
      6       1.3983      0.00000
      7       1.7657      0.00000
      8       2.6734      0.00000

 k-point     3 :       0.0952    0.0000    0.0000
  band No.  band energies     occupation 
      1     -22.0840      2.00000
      2     -10.1359      2.00000
      3      -6.5933      2.00000
      4      -6.1892      2.00000
      5       0.8156      0.00000
      6       1.6203      0.00000
      7       1.9906      0.00000
      8       2.8962      0.00000

 k-point     4 :       0.1429    0.0000    0.0000
  band No.  band energies     occupation 
      1     -21.8157      2.00000
      2      -9.8165      2.00000
      3      -7.5126      2.00000
      4      -6.6408      2.00000
      5       1.1811      0.00000
      6       1.9900      0.00000
      7       2.3653      0.00000
      8       3.2672      0.00000

 k-point     5 :       0.1905    0.0000    0.0000
  band No.  band energies     occupation 
      1     -21.4416      2.00000
      2      -9.3736      2.00000
      3      -8.6252      2.00000
      4      -7.1495      2.00000
      5       1.6924      0.00000
      6       2.5060      0.00000
      7       2.8899      0.00000
      8       3.7850      0.00000

 k-point     6 :       0.2381    0.0000    0.0000
  band No.  band energies     occupation 
      1     -20.9630      2.00000
      2      -9.8448      2.00000
      3      -8.8126      2.00000
      4      -7.6565      2.00000
      5       2.3488      0.00000
      6       3.1631      0.00000
      7       3.5643      0.00000
      8       4.4322      0.00000

 k-point     7 :       0.2857    0.0000    0.0000
  band No.  band energies     occupation 
      1     -20.3822      2.00000
      2     -11.1087      2.00000
      3      -8.1426      2.00000
      4      -8.1208      2.00000
      5       3.1487      0.00000
      6       3.5011      0.00000
      7       4.0484      0.00000
      8       4.3876      0.00000

 k-point     8 :       0.3333    0.0000    0.0000
  band No.  band energies     occupation 
      1     -19.7028      2.00000
      2     -12.3723      2.00000
      3      -8.5157      2.00000
      4      -7.3802      2.00000
      5       2.2121      0.00000
      6       4.0858      0.00000
      7       4.9583      0.00000
      8       5.0631      0.00000

 k-point     9 :       0.3810    0.0000    0.0000
  band No.  band energies     occupation 
      1     -18.9308      2.00000
      2     -13.6021      2.00000
      3      -8.8239      2.00000
      4      -6.5593      2.00000
      5       0.9302      0.00000
      6       4.8574      0.00000
      7       5.2347      0.00000
      8       6.0520      0.00000

 k-point    10 :       0.4286    0.0000    0.0000
  band No.  band energies     occupation 
      1     -18.0814      2.00000
      2     -14.7653      2.00000
      3      -9.0345      2.00000
      4      -5.7599      2.00000
      5      -0.1940      0.00000
      6       4.7878      0.00000
      7       6.4217      0.00000
      8       7.2855      0.00000

 k-point    11 :       0.4762    0.0000    0.0000
  band No.  band energies     occupation 
      1     -17.2366      2.00000
      2     -15.7695      2.00000
      3      -9.1412      2.00000
      4      -5.1873      2.00000
      5      -0.9338      0.00000
      6       4.7363      0.00000
      7       7.7689      0.00000
      8       8.6425      0.00000

 k-point    12 :       0.0952    0.0476    0.0000
  band No.  band energies     occupation 
      1     -22.1377      2.00000
      2     -10.2000      2.00000
      3      -6.3784      2.00000
      4      -6.1032      2.00000
      5       0.7425      0.00000
      6       1.5463      0.00000
      7       1.9156      0.00000
      8       2.8220      0.00000

 k-point    13 :       0.1429    0.0476    0.0000
  band No.  band energies     occupation 
      1     -21.9229      2.00000
      2      -9.9439      2.00000
      3      -7.1152      2.00000
      4      -6.5223      2.00000
      5       1.0350      0.00000
      6       1.8422      0.00000
      7       2.2154      0.00000
      8       3.1189      0.00000

 k-point    14 :       0.1905    0.0476    0.0000
  band No.  band energies     occupation 
      1     -21.6017      2.00000
      2      -9.5627      2.00000
      3      -8.1012      2.00000
      4      -7.0332      2.00000
      5       1.4735      0.00000
      6       2.2853      0.00000
      7       2.6651      0.00000
      8       3.5636      0.00000

 k-point    15 :       0.2381    0.0476    0.0000
  band No.  band energies     occupation 
      1     -21.1754      2.00000
      2      -9.2460      2.00000
      3      -9.0604      2.00000
      4      -7.5630      2.00000
      5       2.0576      0.00000
      6       2.8733      0.00000
      7       3.2647      0.00000
      8       4.1530      0.00000

 k-point    16 :       0.2857    0.0476    0.0000
  band No.  band energies     occupation 
      1     -20.6457      2.00000
      2     -10.4739      2.00000
      3      -8.4440      2.00000
      4      -8.0628      2.00000
      5       2.7863      0.00000
      6       3.5807      0.00000
      7       4.0138      0.00000
      8       4.1991      0.00000

 k-point    17 :       0.3333    0.0476    0.0000
  band No.  band energies     occupation 
      1     -20.0155      2.00000
      2     -11.7291      2.00000
      3      -8.5011      2.00000
      4      -7.7256      2.00000
      5       2.8356      0.00000
      6       3.6571      0.00000
      7       4.5185      0.00000
      8       4.9106      0.00000

 k-point    18 :       0.3810    0.0476    0.0000
  band No.  band energies     occupation 
      1     -19.2894      2.00000
      2     -12.9709      2.00000
      3      -8.8578      2.00000
      4      -6.9283      2.00000
      5       1.5355      0.00000
      6       4.6558      0.00000
      7       5.2405      0.00000
      8       5.5368      0.00000

 k-point    19 :       0.4286    0.0476    0.0000
  band No.  band energies     occupation 
      1     -18.4765      2.00000
      2     -14.1665      2.00000
      3      -9.1201      2.00000
      4      -6.1027      2.00000
      5       0.3227      0.00000
      6       5.0688      0.00000
      7       5.8558      0.00000
      8       6.6994      0.00000

 k-point    20 :       0.4762    0.0476    0.0000
  band No.  band energies     occupation 
      1     -17.6074      2.00000
      2     -15.2706      2.00000
      3      -9.2802      2.00000
      4      -5.3769      2.00000
      5      -0.6455      0.00000
      6       4.9990      0.00000
      7       7.1320      0.00000
      8       7.9916      0.00000

 k-point    21 :      -0.4762    0.0476    0.0000
  band No.  band energies     occupation 
      1     -16.9885      2.00000
      2     -15.9687      2.00000
      3      -9.3340      2.00000
      4      -5.0508      2.00000
      5      -1.0539      0.00000
      6       4.9727      0.00000
      7       8.4642      0.00000
      8       8.6201      0.00000

 k-point    22 :       0.1905    0.0952    0.0000
  band No.  band energies     occupation 
      1     -21.6552      2.00000
      2      -9.6259      2.00000
      3      -7.8573      2.00000
      4      -7.0627      2.00000
      5       1.4006      0.00000
      6       2.2116      0.00000
      7       2.5902      0.00000
      8       3.4897      0.00000

 k-point    23 :       0.2381    0.0952    0.0000
  band No.  band energies     occupation 
      1     -21.2818      2.00000
      2      -9.1849      2.00000
      3      -8.8001      2.00000
      4      -7.6713      2.00000
      5       1.9122      0.00000
      6       2.7275      0.00000
      7       3.1149      0.00000
      8       4.0077      0.00000

 k-point    24 :       0.2857    0.0952    0.0000
  band No.  band energies     occupation 
      1     -20.8043      2.00000
      2      -9.8999      2.00000
      3      -8.6262      2.00000
      4      -8.2483      2.00000
      5       2.5689      0.00000
      6       3.3853      0.00000
      7       3.7894      0.00000
      8       4.5725      0.00000

 k-point    25 :       0.3333    0.0952    0.0000
  band No.  band energies     occupation 
      1     -20.2252      2.00000
      2     -11.0876      2.00000
      3      -8.7541      2.00000
      4      -7.9588      2.00000
      5       3.3425      0.00000
      6       3.3696      0.00000
      7       4.2179      0.00000
      8       4.6135      0.00000

 k-point    26 :       0.3810    0.0952    0.0000
  band No.  band energies     occupation 
      1     -19.5480      2.00000
      2     -12.3034      2.00000
      3      -9.1722      2.00000
      4      -7.1987      2.00000
      5       2.0801      0.00000
      6       4.3112      0.00000
      7       5.1592      0.00000
      8       5.5847      0.00000

 k-point    27 :       0.4286    0.0952    0.0000
  band No.  band energies     occupation 
      1     -18.7792      2.00000
      2     -13.5026      2.00000
      3      -9.4930      2.00000
      4      -6.3784      2.00000
      5       0.8438      0.00000
      6       5.3763      0.00000
      7       5.8592      0.00000
      8       6.2464      0.00000

 k-point    28 :       0.4762    0.0952    0.0000
  band No.  band energies     occupation 
      1     -17.9342      2.00000
      2     -14.6459      2.00000
      3      -9.7101      2.00000
      4      -5.5751      2.00000
      5      -0.2534      0.00000
      6       5.7141      0.00000
      7       6.6370      0.00000
      8       7.4605      0.00000

 k-point    29 :      -0.4762    0.0952    0.0000
  band No.  band energies     occupation 
      1     -17.0959      2.00000
      2     -15.6366      2.00000
      3      -9.8196      2.00000
      4      -4.9929      2.00000
      5      -0.9874      0.00000
      6       5.6663      0.00000
      7       7.9715      0.00000
      8       8.7574      0.00000

 k-point    30 :       0.2857    0.1429    0.0000
  band No.  band energies     occupation 
      1     -20.8573      2.00000
      2      -9.6152      2.00000
      3      -8.6872      2.00000
      4      -8.4103      2.00000
      5       2.4965      0.00000
      6       3.3156      0.00000
      7       3.7146      0.00000
      8       4.5987      0.00000

 k-point    31 :       0.3333    0.1429    0.0000
  band No.  band energies     occupation 
      1     -20.3304      2.00000
      2     -10.5816      2.00000
      3      -9.0869      2.00000
      4      -8.0762      2.00000
      5       3.2253      0.00000
      6       3.6484      0.00000
      7       4.0528      0.00000
      8       4.4641      0.00000

 k-point    32 :       0.3810    0.1429    0.0000
  band No.  band energies     occupation 
      1     -19.7040      2.00000
      2     -11.6733      2.00000
      3      -9.6298      2.00000
      4      -7.3635      2.00000
      5       2.4767      0.00000
      6       4.0970      0.00000
      7       4.9244      0.00000
      8       5.3630      0.00000

 k-point    33 :       0.4286    0.1429    0.0000
  band No.  band energies     occupation 
      1     -18.9833      2.00000
      2     -12.8187      2.00000
      3     -10.0409      2.00000
      4      -6.5702      2.00000
      5       1.2864      0.00000
      6       5.1080      0.00000
      7       5.9334      0.00000
      8       6.4100      0.00000

 k-point    34 :       0.4762    0.1429    0.0000
  band No.  band energies     occupation 
      1     -18.1780      2.00000
      2     -13.9560      2.00000
      3     -10.3307      2.00000
      4      -5.7425      2.00000
      5       0.1527      0.00000
      6       6.2449      0.00000
      7       6.8202      0.00000
      8       7.0612      0.00000

 k-point    35 :      -0.4762    0.1429    0.0000
  band No.  band energies     occupation 
      1     -17.3199      2.00000
      2     -15.0234      2.00000
      3     -10.5036      2.00000
      4      -5.0009      2.00000
      5      -0.7818      0.00000
      6       6.7095      0.00000
      7       7.5509      0.00000
      8       8.2511      0.00000

 k-point    36 :      -0.4286    0.1429    0.0000
  band No.  band energies     occupation 
      1     -16.7123      2.00000
      2     -15.7022      2.00000
      3     -10.5612      2.00000
      4      -4.6580      2.00000
      5      -1.1907      0.00000
      6       6.6872      0.00000
      7       8.8354      0.00000
      8       9.0205      0.00000

 k-point    37 :       0.3810    0.1905    0.0000
  band No.  band energies     occupation 
      1     -19.7562      2.00000
      2     -11.3439      2.00000
      3      -9.9091      2.00000
      4      -7.4188      2.00000
      5       2.6255      0.00000
      6       4.0251      0.00000
      7       4.8434      0.00000
      8       5.2884      0.00000

 k-point    38 :       0.4286    0.1905    0.0000
  band No.  band energies     occupation 
      1     -19.0860      2.00000
      2     -12.2536      2.00000
      3     -10.5570      2.00000
      4      -6.6683      2.00000
      5       1.5484      0.00000
      6       4.9656      0.00000
      7       5.7709      0.00000
      8       6.2621      0.00000

 k-point    39 :       0.4762    0.1905    0.0000
  band No.  band energies     occupation 
      1     -18.3272      2.00000
      2     -13.2793      2.00000
      3     -10.9968      2.00000
      4      -5.8524      2.00000
      5       0.4664      0.00000
      6       6.0420      0.00000
      7       6.8065      0.00000
      8       7.3841      0.00000

 k-point    40 :      -0.4762    0.1905    0.0000
  band No.  band energies     occupation 
      1     -17.4964      2.00000
      2     -14.3276      2.00000
      3     -11.2681      2.00000
      4      -5.0366      2.00000
      5      -0.5387      0.00000
      6       7.2402      0.00000
      7       7.8654      0.00000
      8       8.0104      0.00000

 k-point    41 :      -0.4286    0.1905    0.0000
  band No.  band energies     occupation 
      1     -16.6765      2.00000
      2     -15.2664      2.00000
      3     -11.3986      2.00000
      4      -4.4162      2.00000
      5      -1.2578      0.00000
      6       7.9270      0.00000
      7       8.5731      0.00000
      8       8.6152      0.00000

 k-point    42 :       0.4762    0.2381    0.0000
  band No.  band energies     occupation 
      1     -18.3773      2.00000
      2     -12.9085      2.00000
      3     -11.3695      2.00000
      4      -5.8905      2.00000
      5       0.5861      0.00000
      6       5.9710      0.00000
      7       6.7175      0.00000
      8       7.3102      0.00000

 k-point    43 :      -0.4762    0.2381    0.0000
  band No.  band energies     occupation 
      1     -17.5893      2.00000
      2     -13.7227      2.00000
      3     -11.9173      2.00000
      4      -5.0641      2.00000
      5      -0.3756      0.00000
      6       7.1037      0.00000
      7       7.6464      0.00000
      8       8.5059      0.00000

 k-point    44 :      -0.4286    0.2381    0.0000
  band No.  band energies     occupation 
      1     -16.7543      2.00000
      2     -14.6286      2.00000
      3     -12.2024      2.00000
      4      -4.2818      2.00000
      5      -1.2415      0.00000
      6       8.1981      0.00000
      7       8.3371      0.00000
      8       9.2717      0.00000

 k-point    45 :      -0.3810    0.2381    0.0000
  band No.  band energies     occupation 
      1     -16.1611      2.00000
      2     -15.2552      2.00000
      3     -12.2896      2.00000
      4      -3.8783      2.00000
      5      -1.6734      0.00000
      6       8.3024      0.00000
      7       9.1909      0.00000
      8       9.5132      0.00000

 k-point    46 :      -0.4286    0.2857    0.0000
  band No.  band energies     occupation 
      1     -16.7890      2.00000
      2     -14.2492      2.00000
      3     -12.6323      2.00000
      4      -4.2406      2.00000
      5      -1.2227      0.00000
      6       8.0393      0.00000
      7       8.2702      0.00000
      8       9.7718      0.00000

 k-point    47 :      -0.3810    0.2857    0.0000
  band No.  band energies     occupation 
      1     -15.9975      2.00000
      2     -14.9132      2.00000
      3     -12.9872      2.00000
      4      -3.5028      2.00000
      5      -1.9685      0.00000
      6       8.0196      0.00000
      7       9.4583      0.00000
      8      10.2082      0.00000

 k-point    48 :      -0.3333    0.3333    0.0000
  band No.  band energies     occupation 
      1     -15.3379      2.00000
      2     -15.3378      2.00000
      3     -13.3289      2.00000
      4      -2.7250      2.00000
      5      -2.7250      0.00000
      6       7.9086      0.00000
      7      10.2180      0.00000
      8      10.2182      0.00000


--------------------------------------------------------------------------------------------------------


 soft charge-density along one line, spin component           1
         0         1         2         3         4         5         6         7         8         9
 total charge-density along one line
 
 pseudopotential strength for first ion, spin component:           1
 10.216  13.585  -0.000   0.000   0.000   0.000  -0.000  -0.000
 13.585  18.066  -0.000   0.000   0.000   0.000  -0.000  -0.000
 -0.000  -0.000  -4.346  -0.000  -0.000   8.501   0.000   0.000
  0.000   0.000  -0.000  -4.339  -0.000   0.000   8.491   0.000
  0.000   0.000  -0.000  -0.000  -4.346   0.000   0.000   8.501
  0.000   0.000   8.501   0.000   0.000 -18.763  -0.000  -0.000
 -0.000  -0.000   0.000   8.491   0.000  -0.000 -18.754  -0.000
 -0.000  -0.000   0.000   0.000   8.501  -0.000  -0.000 -18.763
 total augmentation occupancy for first ion, spin component:           1
  2.000   0.000   0.000   0.000   0.000   0.000   0.000   0.000
  0.000   0.000   0.000   0.000   0.000   0.000   0.000   0.000
  0.000   0.000   0.667   0.000   0.000   0.000   0.000   0.000
  0.000   0.000   0.000   0.667   0.000   0.000   0.000   0.000
  0.000   0.000   0.000   0.000   0.667   0.000   0.000   0.000
  0.000   0.000   0.000   0.000   0.000   0.000   0.000   0.000
  0.000   0.000   0.000   0.000   0.000   0.000   0.000   0.000
  0.000   0.000   0.000   0.000   0.000   0.000   0.000   0.000


------------------------ aborting loop because EDIFF is reached ----------------------------------------


    CHARGE:  cpu time    0.1015: real time    0.1017
    FORLOC:  cpu time    0.0038: real time    0.0039
    FORNL :  cpu time    0.2342: real time    0.2347
    STRESS:  cpu time    1.0535: real time    1.0560
    FORCOR:  cpu time    0.0721: real time    0.0722
    FORHAR:  cpu time    0.0176: real time    0.0177
    OFIELD:  cpu time    0.0002: real time    0.0002

  FORCE on cell =-STRESS in cart. coord.  units (eV):
  Direction    XX          YY          ZZ          XY          YZ          ZX
  --------------------------------------------------------------------------------------
  Alpha Z     3.13611     3.13611     3.13611
  Ewald    1572.61546  1572.61484 -1842.19716     0.00000     0.00000    -0.00000
  Hartree  1538.78470  1538.78469 -1527.52128     0.00000    -0.00000    -0.00000
  E(xc)     -29.75971   -29.75971   -30.87542    -0.00000    -0.00000     0.00000
  Local   -3196.91724 -3196.91693  3266.99932     0.00000    -0.00000     0.00000
  n-local    -7.41463    -6.87410    -6.50390     0.35514    -0.00000     0.00000
  augment    -0.78556    -0.78556    -0.72207     0.00000    -0.00000     0.00000
  Kinetic   122.49233   118.47956   137.66195    -3.29922    -0.00000    -0.00000
  Fock        0.00000     0.00000     0.00000     0.00000     0.00000     0.00000
  -------------------------------------------------------------------------------------
  Total       0.41518     0.41518    -0.02245     0.00000     0.00000    -0.00000
  in kB       6.34879     6.34879    -0.34330     0.00000     0.00000    -0.00000
  external pressure =        4.12 kB  Pullay stress =        0.00 kB


 VOLUME and BASIS-vectors are now :
 -----------------------------------------------------------------------------
  energy-cutoff  :      800.00
  volume of cell :      104.78
      direct lattice vectors                 reciprocal lattice vectors
     2.130000000 -1.229756000  0.000000000     0.234741784 -0.406584721  0.000000000
     2.130000000  1.229756000  0.000000000     0.234741784  0.406584721  0.000000000
     0.000000000  0.000000000 20.000000000     0.000000000  0.000000000  0.050000000

  length of vectors
     2.459512110  2.459512110 20.000000000     0.469483589  0.469483589  0.050000000


 FORCES acting on ions
    electron-ion (+dipol)            ewald-force                    non-local-force                 convergence-correction
 -----------------------------------------------------------------------------------------------
   0.194E-06 -.203E-11 -.217E-08   -.241E-03 0.675E-14 -.161E-22   0.267E-16 0.442E-16 0.258E-25   0.541E-11 -.877E-14 -.475E-11
   0.271E-03 0.224E-11 0.217E-08   0.241E-03 -.447E-14 0.161E-22   0.338E-17 -.473E-16 0.258E-25   -.848E-11 0.140E-13 -.631E-11
 -----------------------------------------------------------------------------------------------
   0.271E-03 0.211E-12 0.181E-11   0.429E-14 0.228E-14 0.000E+00   0.300E-16 -.309E-17 0.517E-25   -.307E-11 0.524E-14 -.111E-10
 
 
 POSITION                                       TOTAL-FORCE (eV/Angst)
 -----------------------------------------------------------------------------------
      0.00000      0.00000      0.00000        -0.000000     -0.000000      0.000000
      1.42000      0.00000      0.00000         0.000000      0.000000     -0.000000
 -----------------------------------------------------------------------------------
    total drift:                                0.000271      0.000000     -0.000000


--------------------------------------------------------------------------------------------------------



  FREE ENERGIE OF THE ION-ELECTRON SYSTEM (eV)
  ---------------------------------------------------
  free  energy   TOTEN  =       -18.46425307 eV

  energy  without entropy=      -18.46425307  energy(sigma->0) =      -18.46425307
 


--------------------------------------------------------------------------------------------------------


    POTLOK:  cpu time    0.0991: real time    0.0993


--------------------------------------------------------------------------------------------------------


    WAVPRE:  cpu time    0.6296: real time    0.8705
    FEWALD:  cpu time    0.0002: real time    0.0002
    ORTHCH:  cpu time    0.0290: real time    0.0291
     LOOP+:  cpu time   11.9614: real time   12.3153


--------------------------------------- Iteration      2(   1)  ---------------------------------------


    POTLOK:  cpu time    0.0792: real time    0.0936
    SETDIJ:  cpu time    0.0326: real time    0.0327
     EDDAV:  cpu time    0.9483: real time    0.9505
 BZINTS: Fermi energy: -2.724982;  8.000000 electrons
         Band energy: -95.125810;  BLOECHL correction: -0.000000
       DOS:  cpu time    0.0193: real time    0.0193
    --------------------------------------------
      LOOP:  cpu time    1.0793: real time    1.0960

 eigenvalue-minimisations  :   976
 total energy-change (2. order) :-0.1500880E-06  ( 0.1705137E-11)
 number of electron       8.0000000 magnetization 
 augmentation part        0.1923496 magnetization 

 Free energy of the ion-electron system (eV)
  ---------------------------------------------------
  alpha Z        PSCENC =         3.13611264
  Ewald energy   TEWEN  =      1303.03316907
  -Hartree energ DENC   =     -1550.04809692
  -exchange      EXHF   =         0.00000000
  -V(xc)+E(xc)   XCENC  =        27.59285695
  PAW double counting   =       847.83262137     -849.19395358
  entropy T*S    EENTRO =         0.00000000
  eigenvalues    EBANDS =       -95.12580965
  atomic energy  EATOM  =       294.30884690
  Solvation  Ediel_sol  =         0.00000000
  ---------------------------------------------------
  free energy    TOTEN  =       -18.46425322 eV

  energy without entropy =      -18.46425322  energy(sigma->0) =      -18.46425322


--------------------------------------------------------------------------------------------------------




--------------------------------------- Iteration      2(   2)  ---------------------------------------


     EDDAV:  cpu time    0.9087: real time    0.9110
 BZINTS: Fermi energy: -2.725002;  8.000000 electrons
         Band energy: -95.125810;  BLOECHL correction: -0.000000
       DOS:  cpu time    0.0193: real time    0.0193
    --------------------------------------------
      LOOP:  cpu time    0.9280: real time    0.9303

 eigenvalue-minimisations  :   920
 total energy-change (2. order) : 0.1076460E-06  ( 0.1723276E-11)
 number of electron       8.0000000 magnetization 
 augmentation part        0.1923496 magnetization 

 Free energy of the ion-electron system (eV)
  ---------------------------------------------------
  alpha Z        PSCENC =         3.13611264
  Ewald energy   TEWEN  =      1303.03316907
  -Hartree energ DENC   =     -1550.04809692
  -exchange      EXHF   =         0.00000000
  -V(xc)+E(xc)   XCENC  =        27.59285695
  PAW double counting   =       847.83262137     -849.19395358
  entropy T*S    EENTRO =         0.00000000
  eigenvalues    EBANDS =       -95.12580955
  atomic energy  EATOM  =       294.30884690
  Solvation  Ediel_sol  =         0.00000000
  ---------------------------------------------------
  free energy    TOTEN  =       -18.46425311 eV

  energy without entropy =      -18.46425311  energy(sigma->0) =      -18.46425311


--------------------------------------------------------------------------------------------------------




--------------------------------------- Iteration      2(   3)  ---------------------------------------


     EDDAV:  cpu time    0.7365: real time    0.7384
 BZINTS: Fermi energy: -2.725006;  8.000000 electrons
         Band energy: -95.125810;  BLOECHL correction: -0.000000
       DOS:  cpu time    0.0193: real time    0.0193
    --------------------------------------------
      LOOP:  cpu time    0.7558: real time    0.7577

 eigenvalue-minimisations  :   672
 total energy-change (2. order) : 0.2573324E-07  ( 0.1677554E-11)
 number of electron       8.0000000 magnetization 
 augmentation part        0.1923496 magnetization 

 Free energy of the ion-electron system (eV)
  ---------------------------------------------------
  alpha Z        PSCENC =         3.13611264
  Ewald energy   TEWEN  =      1303.03316907
  -Hartree energ DENC   =     -1550.04809692
  -exchange      EXHF   =         0.00000000
  -V(xc)+E(xc)   XCENC  =        27.59285695
  PAW double counting   =       847.83262137     -849.19395358
  entropy T*S    EENTRO =         0.00000000
  eigenvalues    EBANDS =       -95.12580952
  atomic energy  EATOM  =       294.30884690
  Solvation  Ediel_sol  =         0.00000000
  ---------------------------------------------------
  free energy    TOTEN  =       -18.46425308 eV

  energy without entropy =      -18.46425308  energy(sigma->0) =      -18.46425308


--------------------------------------------------------------------------------------------------------




--------------------------------------- Iteration      2(   4)  ---------------------------------------


     EDDAV:  cpu time    0.7158: real time    0.7176
 BZINTS: Fermi energy: -2.725007;  8.000000 electrons
         Band energy: -95.125810;  BLOECHL correction: -0.000000
       DOS:  cpu time    0.0193: real time    0.0193
    --------------------------------------------
      LOOP:  cpu time    0.7351: real time    0.7369

 eigenvalue-minimisations  :   640
 total energy-change (2. order) : 0.6048595E-08  ( 0.1752962E-11)
 number of electron       8.0000000 magnetization 
 augmentation part        0.1923496 magnetization 

 Free energy of the ion-electron system (eV)
  ---------------------------------------------------
  alpha Z        PSCENC =         3.13611264
  Ewald energy   TEWEN  =      1303.03316907
  -Hartree energ DENC   =     -1550.04809692
  -exchange      EXHF   =         0.00000000
  -V(xc)+E(xc)   XCENC  =        27.59285695
  PAW double counting   =       847.83262137     -849.19395358
  entropy T*S    EENTRO =         0.00000000
  eigenvalues    EBANDS =       -95.12580952
  atomic energy  EATOM  =       294.30884690
  Solvation  Ediel_sol  =         0.00000000
  ---------------------------------------------------
  free energy    TOTEN  =       -18.46425308 eV

  energy without entropy =      -18.46425308  energy(sigma->0) =      -18.46425308


--------------------------------------------------------------------------------------------------------




--------------------------------------- Iteration      2(   5)  ---------------------------------------


     EDDAV:  cpu time    0.6704: real time    0.6720
 BZINTS: Fermi energy: -2.725008;  8.000000 electrons
         Band energy: -95.125810;  BLOECHL correction: -0.000000
       DOS:  cpu time    0.0193: real time    0.0193
    --------------------------------------------
      LOOP:  cpu time    0.6896: real time    0.6913

 eigenvalue-minimisations  :   576
 total energy-change (2. order) : 0.1454964E-08  ( 0.1690677E-11)
 number of electron       8.0000000 magnetization 
 augmentation part        0.1923496 magnetization 

 Free energy of the ion-electron system (eV)
  ---------------------------------------------------
  alpha Z        PSCENC =         3.13611264
  Ewald energy   TEWEN  =      1303.03316907
  -Hartree energ DENC   =     -1550.04809692
  -exchange      EXHF   =         0.00000000
  -V(xc)+E(xc)   XCENC  =        27.59285695
  PAW double counting   =       847.83262137     -849.19395358
  entropy T*S    EENTRO =         0.00000000
  eigenvalues    EBANDS =       -95.12580951
  atomic energy  EATOM  =       294.30884690
  Solvation  Ediel_sol  =         0.00000000
  ---------------------------------------------------
  free energy    TOTEN  =       -18.46425308 eV

  energy without entropy =      -18.46425308  energy(sigma->0) =      -18.46425308


--------------------------------------------------------------------------------------------------------




 average (electrostatic) potential at core
  the test charge radii are     0.6991
  (the norm of the test charge is              1.0000)
       1 -58.1523       2 -58.1523
 
 
 
 E-fermi :  -2.7250     XC(G=0):  -2.1565     alpha+bet : -1.9131


 k-point     1 :       0.0000    0.0000    0.0000
  band No.  band energies     occupation 
      1     -22.2991      2.00000
      2     -10.3930      2.00000
      3      -5.7526      2.00000
      4      -5.7525      2.00000
      5       0.5233      0.00000
      6       1.3242      0.00000
      7       1.6908      0.00000
      8       2.5991      0.00000

 k-point     2 :       0.0476    0.0000    0.0000
  band No.  band energies     occupation 
      1     -22.2453      2.00000
      2     -10.3286      2.00000
      3      -5.9734      2.00000
      4      -5.8694      2.00000
      5       0.5963      0.00000
      6       1.3983      0.00000
      7       1.7657      0.00000
      8       2.6734      0.00000

 k-point     3 :       0.0952    0.0000    0.0000
  band No.  band energies     occupation 
      1     -22.0840      2.00000
      2     -10.1359      2.00000
      3      -6.5933      2.00000
      4      -6.1892      2.00000
      5       0.8156      0.00000
      6       1.6203      0.00000
      7       1.9906      0.00000
      8       2.8962      0.00000

 k-point     4 :       0.1429    0.0000    0.0000
  band No.  band energies     occupation 
      1     -21.8157      2.00000
      2      -9.8165      2.00000
      3      -7.5126      2.00000
      4      -6.6408      2.00000
      5       1.1811      0.00000
      6       1.9900      0.00000
      7       2.3653      0.00000
      8       3.2672      0.00000

 k-point     5 :       0.1905    0.0000    0.0000
  band No.  band energies     occupation 
      1     -21.4416      2.00000
      2      -9.3736      2.00000
      3      -8.6252      2.00000
      4      -7.1495      2.00000
      5       1.6924      0.00000
      6       2.5060      0.00000
      7       2.8899      0.00000
      8       3.7850      0.00000

 k-point     6 :       0.2381    0.0000    0.0000
  band No.  band energies     occupation 
      1     -20.9630      2.00000
      2      -9.8448      2.00000
      3      -8.8126      2.00000
      4      -7.6565      2.00000
      5       2.3488      0.00000
      6       3.1631      0.00000
      7       3.5643      0.00000
      8       4.4322      0.00000

 k-point     7 :       0.2857    0.0000    0.0000
  band No.  band energies     occupation 
      1     -20.3822      2.00000
      2     -11.1087      2.00000
      3      -8.1426      2.00000
      4      -8.1208      2.00000
      5       3.1487      0.00000
      6       3.5011      0.00000
      7       4.0484      0.00000
      8       4.3876      0.00000

 k-point     8 :       0.3333    0.0000    0.0000
  band No.  band energies     occupation 
      1     -19.7028      2.00000
      2     -12.3723      2.00000
      3      -8.5157      2.00000
      4      -7.3802      2.00000
      5       2.2121      0.00000
      6       4.0858      0.00000
      7       4.9583      0.00000
      8       5.0631      0.00000

 k-point     9 :       0.3810    0.0000    0.0000
  band No.  band energies     occupation 
      1     -18.9308      2.00000
      2     -13.6021      2.00000
      3      -8.8239      2.00000
      4      -6.5593      2.00000
      5       0.9302      0.00000
      6       4.8574      0.00000
[...]
      4      -6.5223      2.00000
      5       1.0350      0.00000
      6       1.8422      0.00000
      7       2.2154      0.00000
      8       3.1189      0.00000

 k-point    14 :       0.1905    0.0476    0.0000
  band No.  band energies     occupation 
      1     -21.6017      2.00000
      2      -9.5627      2.00000
      3      -8.1012      2.00000
      4      -7.0332      2.00000
      5       1.4735      0.00000
      6       2.2853      0.00000
      7       2.6651      0.00000
      8       3.5636      0.00000

 k-point    15 :       0.2381    0.0476    0.0000
  band No.  band energies     occupation 
      1     -21.1754      2.00000
      2      -9.2460      2.00000
      3      -9.0604      2.00000
      4      -7.5630      2.00000
      5       2.0576      0.00000
      6       2.8733      0.00000
      7       3.2647      0.00000
      8       4.1530      0.00000

 k-point    16 :       0.2857    0.0476    0.0000
  band No.  band energies     occupation 
      1     -20.6457      2.00000
      2     -10.4739      2.00000
      3      -8.4440      2.00000
      4      -8.0628      2.00000
      5       2.7863      0.00000
      6       3.5807      0.00000
      7       4.0138      0.00000
      8       4.1991      0.00000

 k-point    17 :       0.3333    0.0476    0.0000
  band No.  band energies     occupation 
      1     -20.0155      2.00000
      2     -11.7291      2.00000
      3      -8.5011      2.00000
      4      -7.7256      2.00000
      5       2.8356      0.00000
      6       3.6571      0.00000
      7       4.5185      0.00000
      8       4.9106      0.00000

 k-point    18 :       0.3810    0.0476    0.0000
  band No.  band energies     occupation 
      1     -19.2894      2.00000
      2     -12.9709      2.00000
      3      -8.8578      2.00000
      4      -6.9283      2.00000
      5       1.5355      0.00000
      6       4.6558      0.00000
      7       5.2405      0.00000
      8       5.5368      0.00000

 k-point    19 :       0.4286    0.0476    0.0000
  band No.  band energies     occupation 
      1     -18.4765      2.00000
      2     -14.1665      2.00000
      3      -9.1201      2.00000
      4      -6.1027      2.00000
      5       0.3227      0.00000
      6       5.0688      0.00000
      7       5.8558      0.00000
      8       6.6994      0.00000

 k-point    20 :       0.4762    0.0476    0.0000
  band No.  band energies     occupation 
      1     -17.6074      2.00000
      2     -15.2706      2.00000
      3      -9.2802      2.00000
      4      -5.3769      2.00000
      5      -0.6455      0.00000
      6       4.9990      0.00000
      7       7.1320      0.00000
      8       7.9916      0.00000

 k-point    21 :      -0.4762    0.0476    0.0000
  band No.  band energies     occupation 
      1     -16.9885      2.00000
      2     -15.9687      2.00000
      3      -9.3340      2.00000
      4      -5.0508      2.00000
      5      -1.0539      0.00000
      6       4.9727      0.00000
      7       8.4642      0.00000
      8       8.6201      0.00000

 k-point    22 :       0.1905    0.0952    0.0000
  band No.  band energies     occupation 
      1     -21.6552      2.00000
      2      -9.6259      2.00000
      3      -7.8573      2.00000
      4      -7.0627      2.00000
      5       1.4006      0.00000
      6       2.2116      0.00000
      7       2.5902      0.00000
      8       3.4897      0.00000

 k-point    23 :       0.2381    0.0952    0.0000
  band No.  band energies     occupation 
      1     -21.2818      2.00000
      2      -9.1849      2.00000
      3      -8.8001      2.00000
      4      -7.6713      2.00000
      5       1.9122      0.00000
      6       2.7275      0.00000
      7       3.1149      0.00000
      8       4.0077      0.00000

 k-point    24 :       0.2857    0.0952    0.0000
  band No.  band energies     occupation 
      1     -20.8043      2.00000
      2      -9.8999      2.00000
      3      -8.6262      2.00000
      4      -8.2483      2.00000
      5       2.5689      0.00000
      6       3.3853      0.00000
      7       3.7894      0.00000
      8       4.5722      0.00000

 k-point    25 :       0.3333    0.0952    0.0000
  band No.  band energies     occupation 
      1     -20.2252      2.00000
      2     -11.0876      2.00000
      3      -8.7541      2.00000
      4      -7.9588      2.00000
      5       3.3425      0.00000
      6       3.3696      0.00000
      7       4.2179      0.00000
      8       4.6135      0.00000

 k-point    26 :       0.3810    0.0952    0.0000
  band No.  band energies     occupation 
      1     -19.5480      2.00000
      2     -12.3034      2.00000
      3      -9.1722      2.00000
      4      -7.1987      2.00000
      5       2.0801      0.00000
      6       4.3112      0.00000
      7       5.1592      0.00000
      8       5.5847      0.00000

 k-point    27 :       0.4286    0.0952    0.0000
  band No.  band energies     occupation 
      1     -18.7792      2.00000
      2     -13.5026      2.00000
      3      -9.4930      2.00000
      4      -6.3784      2.00000
      5       0.8438      0.00000
      6       5.3763      0.00000
      7       5.8592      0.00000
      8       6.2464      0.00000

 k-point    28 :       0.4762    0.0952    0.0000
  band No.  band energies     occupation 
      1     -17.9342      2.00000
      2     -14.6459      2.00000
      3      -9.7101      2.00000
      4      -5.5751      2.00000
      5      -0.2534      0.00000
      6       5.7141      0.00000
      7       6.6370      0.00000
      8       7.4605      0.00000

 k-point    29 :      -0.4762    0.0952    0.0000
  band No.  band energies     occupation 
      1     -17.0959      2.00000
      2     -15.6366      2.00000
      3      -9.8196      2.00000
      4      -4.9929      2.00000
      5      -0.9874      0.00000
      6       5.6663      0.00000
      7       7.9715      0.00000
      8       8.7574      0.00000

 k-point    30 :       0.2857    0.1429    0.0000
  band No.  band energies     occupation 
      1     -20.8573      2.00000
      2      -9.6152      2.00000
      3      -8.6872      2.00000
      4      -8.4103      2.00000
      5       2.4965      0.00000
      6       3.3156      0.00000
      7       3.7146      0.00000
      8       4.5987      0.00000

 k-point    31 :       0.3333    0.1429    0.0000
  band No.  band energies     occupation 
      1     -20.3304      2.00000
      2     -10.5816      2.00000
      3      -9.0869      2.00000
      4      -8.0762      2.00000
      5       3.2253      0.00000
      6       3.6484      0.00000
      7       4.0528      0.00000
      8       4.4641      0.00000

 k-point    32 :       0.3810    0.1429    0.0000
  band No.  band energies     occupation 
      1     -19.7040      2.00000
      2     -11.6733      2.00000
      3      -9.6298      2.00000
      4      -7.3635      2.00000
      5       2.4767      0.00000
      6       4.0970      0.00000
      7       4.9244      0.00000
      8       5.3630      0.00000

 k-point    33 :       0.4286    0.1429    0.0000
  band No.  band energies     occupation 
      1     -18.9833      2.00000
      2     -12.8187      2.00000
      3     -10.0409      2.00000
      4      -6.5702      2.00000
      5       1.2864      0.00000
      6       5.1080      0.00000
      7       5.9334      0.00000
      8       6.4100      0.00000

 k-point    34 :       0.4762    0.1429    0.0000
  band No.  band energies     occupation 
      1     -18.1780      2.00000
      2     -13.9560      2.00000
      3     -10.3307      2.00000
      4      -5.7425      2.00000
      5       0.1527      0.00000
      6       6.2449      0.00000
      7       6.8202      0.00000
      8       7.0612      0.00000

 k-point    35 :      -0.4762    0.1429    0.0000
  band No.  band energies     occupation 
      1     -17.3199      2.00000
      2     -15.0234      2.00000
      3     -10.5036      2.00000
      4      -5.0009      2.00000
      5      -0.7818      0.00000
      6       6.7095      0.00000
      7       7.5509      0.00000
      8       8.2511      0.00000

 k-point    36 :      -0.4286    0.1429    0.0000
  band No.  band energies     occupation 
      1     -16.7123      2.00000
      2     -15.7022      2.00000
      3     -10.5612      2.00000
      4      -4.6580      2.00000
      5      -1.1907      0.00000
      6       6.6872      0.00000
      7       8.8354      0.00000
      8       9.0196      0.00000

 k-point    37 :       0.3810    0.1905    0.0000
  band No.  band energies     occupation 
      1     -19.7562      2.00000
      2     -11.3439      2.00000
      3      -9.9091      2.00000
      4      -7.4188      2.00000
      5       2.6255      0.00000
      6       4.0251      0.00000
      7       4.8434      0.00000
      8       5.2884      0.00000

 k-point    38 :       0.4286    0.1905    0.0000
  band No.  band energies     occupation 
      1     -19.0860      2.00000
      2     -12.2536      2.00000
      3     -10.5570      2.00000
      4      -6.6683      2.00000
      5       1.5484      0.00000
      6       4.9656      0.00000
      7       5.7709      0.00000
      8       6.2621      0.00000

 k-point    39 :       0.4762    0.1905    0.0000
  band No.  band energies     occupation 
      1     -18.3272      2.00000
      2     -13.2793      2.00000
      3     -10.9968      2.00000
      4      -5.8524      2.00000
      5       0.4664      0.00000
      6       6.0420      0.00000
      7       6.8065      0.00000
      8       7.3841      0.00000

 k-point    40 :      -0.4762    0.1905    0.0000
  band No.  band energies     occupation 
      1     -17.4964      2.00000
      2     -14.3276      2.00000
      3     -11.2681      2.00000
      4      -5.0366      2.00000
      5      -0.5387      0.00000
      6       7.2402      0.00000
      7       7.8654      0.00000
      8       8.0104      0.00000

 k-point    41 :      -0.4286    0.1905    0.0000
  band No.  band energies     occupation 
      1     -16.6765      2.00000
      2     -15.2664      2.00000
      3     -11.3986      2.00000
      4      -4.4162      2.00000
      5      -1.2578      0.00000
      6       7.9270      0.00000
      7       8.5731      0.00000
      8       8.6152      0.00000

 k-point    42 :       0.4762    0.2381    0.0000
  band No.  band energies     occupation 
      1     -18.3773      2.00000
      2     -12.9085      2.00000
      3     -11.3695      2.00000
      4      -5.8905      2.00000
      5       0.5861      0.00000
      6       5.9710      0.00000
      7       6.7175      0.00000
      8       7.3102      0.00000

 k-point    43 :      -0.4762    0.2381    0.0000
  band No.  band energies     occupation 
      1     -17.5893      2.00000
      2     -13.7227      2.00000
      3     -11.9173      2.00000
      4      -5.0641      2.00000
      5      -0.3756      0.00000
      6       7.1037      0.00000
      7       7.6464      0.00000
      8       8.5059      0.00000

 k-point    44 :      -0.4286    0.2381    0.0000
  band No.  band energies     occupation 
      1     -16.7543      2.00000
      2     -14.6286      2.00000
      3     -12.2024      2.00000
      4      -4.2818      2.00000
      5      -1.2415      0.00000
      6       8.1981      0.00000
      7       8.3371      0.00000
      8       9.2702      0.00000

 k-point    45 :      -0.3810    0.2381    0.0000
  band No.  band energies     occupation 
      1     -16.1611      2.00000
      2     -15.2552      2.00000
      3     -12.2896      2.00000
      4      -3.8783      2.00000
      5      -1.6734      0.00000
      6       8.3024      0.00000
      7       9.1902      0.00000
      8       9.5131      0.00000

 k-point    46 :      -0.4286    0.2857    0.0000
  band No.  band energies     occupation 
      1     -16.7890      2.00000
      2     -14.2492      2.00000
      3     -12.6323      2.00000
      4      -4.2406      2.00000
      5      -1.2227      0.00000
      6       8.0393      0.00000
      7       8.2702      0.00000
      8       9.7716      0.00000

 k-point    47 :      -0.3810    0.2857    0.0000
  band No.  band energies     occupation 
      1     -15.9975      2.00000
      2     -14.9132      2.00000
      3     -12.9872      2.00000
      4      -3.5028      2.00000
      5      -1.9685     -0.00000
      6       8.0196      0.00000
      7       9.4583      0.00000
      8      10.2059      0.00000

 k-point    48 :      -0.3333    0.3333    0.0000
  band No.  band energies     occupation 
      1     -15.3379      2.00000
      2     -15.3378      2.00000
      3     -13.3289      2.00000
      4      -2.7250      2.00000
      5      -2.7250      0.00000
      6       7.9086      0.00000
      7      10.2180      0.00000
      8      10.2180      0.00000


--------------------------------------------------------------------------------------------------------


 soft charge-density along one line, spin component           1
         0         1         2         3         4         5         6         7         8         9
 total charge-density along one line
 
 pseudopotential strength for first ion, spin component:           1
 10.216  13.585   0.000   0.000   0.000  -0.000  -0.000  -0.000
 13.585  18.066   0.000   0.000   0.000  -0.000  -0.000  -0.000
  0.000   0.000  -4.346  -0.000  -0.000   8.501   0.000   0.000
  0.000   0.000  -0.000  -4.339  -0.000   0.000   8.491   0.000
  0.000   0.000  -0.000  -0.000  -4.346   0.000   0.000   8.501
 -0.000  -0.000   8.501   0.000   0.000 -18.763  -0.000  -0.000
 -0.000  -0.000   0.000   8.491   0.000  -0.000 -18.754  -0.000
 -0.000  -0.000   0.000   0.000   8.501  -0.000  -0.000 -18.763
 total augmentation occupancy for first ion, spin component:           1
  8.117  -3.602  -0.000   0.000   0.000  -0.000   0.000   0.000
 -3.602   1.656   0.000   0.000   0.000   0.000   0.000   0.000
  0.000   0.000   1.837   0.000   0.000   0.173   0.000   0.000
  0.000   0.000   0.000   1.199  -0.000   0.000   0.073   0.000
 -0.000   0.000   0.000  -0.000   1.837   0.000  -0.000   0.173
  0.000   0.000   0.173   0.000   0.000   0.018  -0.000   0.000
  0.000   0.000   0.000   0.073   0.000   0.000   0.005   0.000
  0.000   0.000   0.000  -0.000   0.173   0.000  -0.000   0.018


------------------------ aborting loop because EDIFF is reached ----------------------------------------


    CHARGE:  cpu time    0.0973: real time    0.0975
    FORLOC:  cpu time    0.0040: real time    0.0040
    FORNL :  cpu time    0.2332: real time    0.2337
    STRESS:  cpu time    1.0483: real time    1.0508
    FORCOR:  cpu time    0.0699: real time    0.0700
    FORHAR:  cpu time    0.0173: real time    0.0174
    OFIELD:  cpu time    0.0002: real time    0.0002

  FORCE on cell =-STRESS in cart. coord.  units (eV):
  Direction    XX          YY          ZZ          XY          YZ          ZX
  --------------------------------------------------------------------------------------
  Alpha Z     3.13611     3.13611     3.13611
  Ewald    1572.61546  1572.61484 -1842.19716     0.00000     0.00000    -0.00000
  Hartree  1538.78470  1538.78469 -1527.52128     0.00000    -0.00000    -0.00000
  E(xc)     -29.75971   -29.75971   -30.87542     0.00000    -0.00000     0.00000
  Local   -3196.91724 -3196.91693  3266.99932     0.00000    -0.00000     0.00000
  n-local    -7.41463    -6.87410    -6.50390     0.35514    -0.00000    -0.00000
  augment    -0.78556    -0.78556    -0.72207     0.00000     0.00000    -0.00000
  Kinetic   122.49233   118.47956   137.66195    -3.29922     0.00000     0.00000
  Fock        0.00000     0.00000     0.00000     0.00000     0.00000     0.00000
  -------------------------------------------------------------------------------------
  Total       0.41518     0.41518    -0.02245     0.00000    -0.00000     0.00000
  in kB       6.34879     6.34879    -0.34330     0.00000    -0.00000     0.00000
  external pressure =        4.12 kB  Pullay stress =        0.00 kB


 VOLUME and BASIS-vectors are now :
 -----------------------------------------------------------------------------
  energy-cutoff  :      800.00
  volume of cell :      104.78
      direct lattice vectors                 reciprocal lattice vectors
     2.130000000 -1.229756000  0.000000000     0.234741784 -0.406584721  0.000000000
     2.130000000  1.229756000  0.000000000     0.234741784  0.406584721  0.000000000
     0.000000000  0.000000000 20.000000000     0.000000000  0.000000000  0.050000000

  length of vectors
     2.459512110  2.459512110 20.000000000     0.469483589  0.469483589  0.050000000


 FORCES acting on ions
    electron-ion (+dipol)            ewald-force                    non-local-force                 convergence-correction
 -----------------------------------------------------------------------------------------------
   0.194E-06 -.187E-11 -.217E-08   -.241E-03 0.675E-14 -.161E-22   -.243E-16 0.104E-16 -.485E-26   0.540E-11 -.137E-15 -.426E-11
   0.271E-03 0.211E-11 0.217E-08   0.241E-03 -.447E-14 0.161E-22   0.810E-17 0.404E-17 0.646E-26   -.846E-11 0.183E-13 -.581E-11
 -----------------------------------------------------------------------------------------------
   0.271E-03 0.246E-12 0.180E-11   0.429E-14 0.228E-14 0.000E+00   -.162E-16 0.144E-16 0.162E-26   -.307E-11 0.181E-13 -.101E-10
 
 
 POSITION                                       TOTAL-FORCE (eV/Angst)
 -----------------------------------------------------------------------------------
      0.00000      0.00000      0.00000         0.000000      0.000000     -0.000000
      1.42000      0.00000      0.00000        -0.000000     -0.000000      0.000000
 -----------------------------------------------------------------------------------
    total drift:                                0.000271      0.000000     -0.000000


--------------------------------------------------------------------------------------------------------



  FREE ENERGIE OF THE ION-ELECTRON SYSTEM (eV)
  ---------------------------------------------------
  free  energy   TOTEN  =       -18.46425308 eV

  energy  without entropy=      -18.46425308  energy(sigma->0) =      -18.46425308
 
 d Force = 0.0000000E+00[ 0.000E+00, 0.000E+00]  d Energy = 0.0000000E+00 0.000E+00
 d Force = 0.0000000E+00[ 0.000E+00, 0.000E+00]  d Ewald  = 0.0000000E+00 0.000E+00


--------------------------------------------------------------------------------------------------------


    POTLOK:  cpu time    0.0986: real time    0.0988


--------------------------------------------------------------------------------------------------------


     LOOP+:  cpu time    4.4937: real time    4.5844
    4ORBIT:  cpu time    0.0000: real time    0.0000
 BZINTS: Fermi energy: -2.725008;  8.000000 electrons
         Band energy: -95.125810;  BLOECHL correction: -0.000000

 total amount of memory used by VASP MPI-rank0   102984. kBytes
=======================================================================

   base      :      30000. kBytes
   nonl-proj :      16823. kBytes
   fftplans  :      32720. kBytes
   grid      :      15086. kBytes
   one-center:          6. kBytes
   wavefun   :       8349. kBytes
 
  
  
 General timing and accounting informations for this job:
 ========================================================
  
                  Total CPU time used (sec):      381.138
                            User time (sec):      372.264
                          System time (sec):        8.874
                         Elapsed time (sec):      391.505
  
                   Maximum memory used (kb):      166400.
                   Average memory used (kb):           0.
  
                          Minor page faults:       113032
                          Major page faults:           23
                 Voluntary context switches:         6617
