   4   4   0   0
  0.2619380E+02  0.2459512E-09  0.2459512E-09  0.2000000E-08  0.5000000E-15
  1.000000000000000E-004
  CAR 
 bilayer_graphene_AA                     
     11.74328975    -22.34991591 9001     -1.22728047      1.00000000
    -22.350  0.0000E+00  0.0000E+00
    -22.346  0.0000E+00  0.0000E+00
    -22.342  0.0000E+00  0.0000E+00
    -22.339  0.0000E+00  0.0000E+00
    -22.335  0.0000E+00  0.0000E+00
    -22.331  0.0000E+00  0.0000E+00
    -22.327  0.0000E+00  0.0000E+00
    -22.323  0.0000E+00  0.0000E+00
    -22.320  0.0000E+00  0.0000E+00
    -22.316  0.0000E+00  0.0000E+00
    -22.312  0.0000E+00  0.0000E+00
    -22.308  0.0000E+00  0.0000E+00
    -22.304  0.0000E+00  0.0000E+00
    -22.301  0.0000E+00  0.0000E+00
    -22.297  0.0000E+00  0.0000E+00
    -22.293  0.0000E+00  0.0000E+00
    -22.289  0.0000E+00  0.0000E+00
    -22.286  0.0000E+00  0.0000E+00
    -22.282  0.0000E+00  0.0000E+00
    -22.278  0.0000E+00  0.0000E+00
    -22.274  0.0000E+00  0.0000E+00
    -22.270  0.0000E+00  0.0000E+00
    -22.267  0.0000E+00  0.0000E+00
    -22.263  0.0000E+00  0.0000E+00
    -22.259  0.0000E+00  0.0000E+00
    -22.255  0.0000E+00  0.0000E+00
    -22.251  0.0000E+00  0.0000E+00
    -22.248  0.0000E+00  0.0000E+00
    -22.244  0.0000E+00  0.0000E+00
    -22.240  0.0000E+00  0.0000E+00
    -22.236  0.0000E+00  0.0000E+00
    -22.232  0.0000E+00  0.0000E+00
    -22.229  0.0000E+00  0.0000E+00
    -22.225  0.0000E+00  0.0000E+00
    -22.221  0.0000E+00  0.0000E+00
    -22.217  0.0000E+00  0.0000E+00
    -22.214  0.0000E+00  0.0000E+00
    -22.210  0.0000E+00  0.0000E+00
    -22.206  0.0000E+00  0.0000E+00
    -22.202  0.0000E+00  0.0000E+00
    -22.198  0.0000E+00  0.0000E+00
    -22.195  0.0000E+00  0.0000E+00
    -22.191  0.0000E+00  0.0000E+00
    -22.187  0.0000E+00  0.0000E+00
    -22.183  0.0000E+00  0.0000E+00
    -22.179  0.0000E+00  0.0000E+00
    -22.176  0.0000E+00  0.0000E+00
    -22.172  0.0000E+00  0.0000E+00
    -22.168  0.0000E+00  0.0000E+00
    -22.164  0.0000E+00  0.0000E+00
    -22.161  0.0000E+00  0.0000E+00
    -22.157  0.0000E+00  0.0000E+00
    -22.153  0.0000E+00  0.0000E+00
    -22.149  0.0000E+00  0.0000E+00
    -22.145  0.0000E+00  0.0000E+00
    -22.142  0.0000E+00  0.0000E+00
    -22.138  0.0000E+00  0.0000E+00
    -22.134  0.0000E+00  0.0000E+00
    -22.130  0.0000E+00  0.0000E+00
    -22.126  0.0000E+00  0.0000E+00
    -22.123  0.0000E+00  0.0000E+00
    -22.119  0.0000E+00  0.0000E+00
    -22.115  0.0000E+00  0.0000E+00
    -22.111  0.0000E+00  0.0000E+00
    -22.107  0.0000E+00  0.0000E+00
    -22.104  0.0000E+00  0.0000E+00
    -22.100  0.0000E+00  0.0000E+00
    -22.096  0.0000E+00  0.0000E+00
    -22.092  0.0000E+00  0.0000E+00
    -22.089  0.0000E+00  0.0000E+00
    -22.085  0.0000E+00  0.0000E+00
    -22.081  0.0000E+00  0.0000E+00
    -22.077  0.0000E+00  0.0000E+00
    -22.073  0.0000E+00  0.0000E+00
    -22.070  0.0000E+00  0.0000E+00
    -22.066  0.0000E+00  0.0000E+00
    -22.062  0.0000E+00  0.0000E+00
    -22.058  0.0000E+00  0.0000E+00
    -22.054  0.0000E+00  0.0000E+00
    -22.051  0.0000E+00  0.0000E+00
    -22.047  0.0000E+00  0.0000E+00
    -22.043  0.0000E+00  0.0000E+00
    -22.039  0.0000E+00  0.0000E+00
    -22.036  0.0000E+00  0.0000E+00
    -22.032  0.0000E+00  0.0000E+00
    -22.028  0.0000E+00  0.0000E+00
    -22.024  0.0000E+00  0.0000E+00
    -22.020  0.0000E+00  0.0000E+00
    -22.017  0.0000E+00  0.0000E+00
    -22.013  0.0000E+00  0.0000E+00
    -22.009  0.0000E+00  0.0000E+00
    -22.005  0.0000E+00  0.0000E+00
    -22.001  0.0000E+00  0.0000E+00
    -21.998  0.0000E+00  0.0000E+00
    -21.994  0.0000E+00  0.0000E+00
    -21.990  0.0000E+00  0.0000E+00
    -21.986  0.0000E+00  0.0000E+00
    -21.982  0.0000E+00  0.0000E+00
    -21.979  0.0000E+00  0.0000E+00
    -21.975  0.0000E+00  0.0000E+00
    -21.971  0.0000E+00  0.0000E+00
    -21.967  0.0000E+00  0.0000E+00
    -21.964  0.0000E+00  0.0000E+00
    -21.960  0.0000E+00  0.0000E+00
    -21.956  0.0000E+00  0.0000E+00
    -21.952  0.0000E+00  0.0000E+00
    -21.948  0.0000E+00  0.0000E+00
    -21.945  0.0000E+00  0.0000E+00
    -21.941  0.0000E+00  0.0000E+00
    -21.937  0.0000E+00  0.0000E+00
    -21.933  0.0000E+00  0.0000E+00
    -21.929  0.0000E+00  0.0000E+00
    -21.926  0.0000E+00  0.0000E+00
    -21.922  0.0000E+00  0.0000E+00
    -21.918  0.0000E+00  0.0000E+00
    -21.914  0.0000E+00  0.0000E+00
    -21.910  0.0000E+00  0.0000E+00
    -21.907  0.0000E+00  0.0000E+00
    -21.903  0.0000E+00  0.0000E+00
    -21.899  0.0000E+00  0.0000E+00
    -21.895  0.0000E+00  0.0000E+00
    -21.892  0.0000E+00  0.0000E+00
    -21.888  0.0000E+00  0.0000E+00
    -21.884  0.0000E+00  0.0000E+00
    -21.880  0.0000E+00  0.0000E+00
    -21.876  0.0000E+00  0.0000E+00
    -21.873  0.0000E+00  0.0000E+00
    -21.869  0.0000E+00  0.0000E+00
    -21.865  0.0000E+00  0.0000E+00
    -21.861  0.0000E+00  0.0000E+00
    -21.857  0.0000E+00  0.0000E+00
    -21.854  0.0000E+00  0.0000E+00
    -21.850  0.0000E+00  0.0000E+00
    -21.846  0.0000E+00  0.0000E+00
    -21.842  0.0000E+00  0.0000E+00
    -21.839  0.0000E+00  0.0000E+00
    -21.835  0.0000E+00  0.0000E+00
    -21.831  0.0000E+00  0.0000E+00
    -21.827  0.0000E+00  0.0000E+00
    -21.823  0.0000E+00  0.0000E+00
    -21.820  0.0000E+00  0.0000E+00
    -21.816  0.0000E+00  0.0000E+00
    -21.812  0.0000E+00  0.0000E+00
    -21.808  0.0000E+00  0.0000E+00
    -21.804  0.0000E+00  0.0000E+00
    -21.801  0.0000E+00  0.0000E+00
    -21.797  0.0000E+00  0.0000E+00
    -21.793  0.0000E+00  0.0000E+00
    -21.789  0.0000E+00  0.0000E+00
    -21.785  0.0000E+00  0.0000E+00
    -21.782  0.0000E+00  0.0000E+00
    -21.778  0.0000E+00  0.0000E+00
    -21.774  0.0000E+00  0.0000E+00
    -21.770  0.0000E+00  0.0000E+00
    -21.767  0.0000E+00  0.0000E+00
    -21.763  0.0000E+00  0.0000E+00
    -21.759  0.0000E+00  0.0000E+00
    -21.755  0.0000E+00  0.0000E+00
    -21.751  0.0000E+00  0.0000E+00
    -21.748  0.0000E+00  0.0000E+00
    -21.744  0.0000E+00  0.0000E+00
    -21.740  0.0000E+00  0.0000E+00
    -21.736  0.0000E+00  0.0000E+00
    -21.732  0.0000E+00  0.0000E+00
    -21.729  0.0000E+00  0.0000E+00
    -21.725  0.0000E+00  0.0000E+00
    -21.721  0.0000E+00  0.0000E+00
    -21.717  0.0000E+00  0.0000E+00
    -21.714  0.0000E+00  0.0000E+00
    -21.710  0.0000E+00  0.0000E+00
    -21.706  0.0000E+00  0.0000E+00
    -21.702  0.0000E+00  0.0000E+00
    -21.698  0.0000E+00  0.0000E+00
    -21.695  0.0000E+00  0.0000E+00
    -21.691  0.0000E+00  0.0000E+00
    -21.687  0.0000E+00  0.0000E+00
    -21.683  0.0000E+00  0.0000E+00
    -21.679  0.0000E+00  0.0000E+00
    -21.676  0.0000E+00  0.0000E+00
    -21.672  0.0000E+00  0.0000E+00
    -21.668  0.0000E+00  0.0000E+00
    -21.664  0.0000E+00  0.0000E+00
    -21.660  0.0000E+00  0.0000E+00
    -21.657  0.0000E+00  0.0000E+00
    -21.653  0.0000E+00  0.0000E+00
    -21.649  0.0000E+00  0.0000E+00
    -21.645  0.0000E+00  0.0000E+00
    -21.642  0.0000E+00  0.0000E+00
    -21.638  0.0000E+00  0.0000E+00
    -21.634  0.0000E+00  0.0000E+00
    -21.630  0.0000E+00  0.0000E+00
    -21.626  0.0000E+00  0.0000E+00
    -21.623  0.0000E+00  0.0000E+00
    -21.619  0.0000E+00  0.0000E+00
    -21.615  0.0000E+00  0.0000E+00
    -21.611  0.0000E+00  0.0000E+00
    -21.607  0.0000E+00  0.0000E+00
    -21.604  0.0000E+00  0.0000E+00
    -21.600  0.0000E+00  0.0000E+00
    -21.596  0.0000E+00  0.0000E+00
    -21.592  0.0000E+00  0.0000E+00
    -21.589  0.0000E+00  0.0000E+00
    -21.585  0.0000E+00  0.0000E+00
    -21.581  0.0000E+00  0.0000E+00
    -21.577  0.0000E+00  0.0000E+00
    -21.573  0.0000E+00  0.0000E+00
    -21.570  0.0000E+00  0.0000E+00
    -21.566  0.0000E+00  0.0000E+00
    -21.562  0.0000E+00  0.0000E+00
    -21.558  0.0000E+00  0.0000E+00
    -21.554  0.0000E+00  0.0000E+00
    -21.551  0.0000E+00  0.0000E+00
    -21.547  0.0000E+00  0.0000E+00
    -21.543  0.0000E+00  0.0000E+00
    -21.539  0.0000E+00  0.0000E+00
    -21.535  0.0000E+00  0.0000E+00
    -21.532  0.0000E+00  0.0000E+00
    -21.528  0.0000E+00  0.0000E+00
    -21.524  0.0000E+00  0.0000E+00
    -21.520  0.0000E+00  0.0000E+00
    -21.517  0.0000E+00  0.0000E+00
    -21.513  0.0000E+00  0.0000E+00
    -21.509  0.0000E+00  0.0000E+00
    -21.505  0.0000E+00  0.0000E+00
    -21.501  0.0000E+00  0.0000E+00
    -21.498  0.0000E+00  0.0000E+00
    -21.494  0.0000E+00  0.0000E+00
    -21.490  0.0000E+00  0.0000E+00
    -21.486  0.0000E+00  0.0000E+00
    -21.482  0.0000E+00  0.0000E+00
    -21.479  0.0000E+00  0.0000E+00
    -21.475  0.0000E+00  0.0000E+00
    -21.471  0.0000E+00  0.0000E+00
    -21.467  0.0000E+00  0.0000E+00
    -21.463  0.0000E+00  0.0000E+00
    -21.460  0.0000E+00  0.0000E+00
    -21.456  0.0000E+00  0.0000E+00
    -21.452  0.0000E+00  0.0000E+00
    -21.448  0.0000E+00  0.0000E+00
    -21.445  0.0000E+00  0.0000E+00
    -21.441  0.0000E+00  0.0000E+00
    -21.437  0.0000E+00  0.0000E+00
    -21.433  0.0000E+00  0.0000E+00
    -21.429  0.0000E+00  0.0000E+00
    -21.426  0.0000E+00  0.0000E+00
    -21.422  0.0000E+00  0.0000E+00
    -21.418  0.0000E+00  0.0000E+00
    -21.414  0.0000E+00  0.0000E+00
    -21.410  0.0000E+00  0.0000E+00
    -21.407  0.0000E+00  0.0000E+00
    -21.403  0.0000E+00  0.0000E+00
    -21.399  0.0000E+00  0.0000E+00
    -21.395  0.0000E+00  0.0000E+00
    -21.392  0.0000E+00  0.0000E+00
    -21.388  0.0000E+00  0.0000E+00
    -21.384  0.0000E+00  0.0000E+00
    -21.380  0.0000E+00  0.0000E+00
    -21.376  0.0000E+00  0.0000E+00
    -21.373  0.0000E+00  0.0000E+00
    -21.369  0.0000E+00  0.0000E+00
    -21.365  0.0000E+00  0.0000E+00
    -21.361  0.0000E+00  0.0000E+00
    -21.357  0.0000E+00  0.0000E+00
    -21.354  0.0000E+00  0.0000E+00
    -21.350  0.0000E+00  0.0000E+00
    -21.346  0.0000E+00  0.0000E+00
    -21.342  0.0000E+00  0.0000E+00
    -21.338  0.0000E+00  0.0000E+00
    -21.335  0.0000E+00  0.0000E+00
    -21.331  0.0000E+00  0.0000E+00
    -21.327  0.0000E+00  0.0000E+00
    -21.323  0.0000E+00  0.0000E+00
    -21.320  0.0000E+00  0.0000E+00
    -21.316  0.0000E+00  0.0000E+00
    -21.312  0.0000E+00  0.0000E+00
    -21.308  0.0000E+00  0.0000E+00
    -21.304  0.0000E+00  0.0000E+00
    -21.301  0.0000E+00  0.0000E+00
    -21.297  0.0000E+00  0.0000E+00
    -21.293  0.0000E+00  0.0000E+00
    -21.289  0.0000E+00  0.0000E+00
    -21.285  0.0000E+00  0.0000E+00
    -21.282  0.0000E+00  0.0000E+00
    -21.278  0.0000E+00  0.0000E+00
    -21.274  0.0000E+00  0.0000E+00
    -21.270  0.0000E+00  0.0000E+00
    -21.267  0.0000E+00  0.0000E+00
    -21.263  0.0000E+00  0.0000E+00
    -21.259  0.0000E+00  0.0000E+00
    -21.255  0.0000E+00  0.0000E+00
    -21.251  0.0000E+00  0.0000E+00
    -21.248  0.0000E+00  0.0000E+00
    -21.244  0.0000E+00  0.0000E+00
    -21.240  0.0000E+00  0.0000E+00
    -21.236  0.0000E+00  0.0000E+00
    -21.232  0.0000E+00  0.0000E+00
    -21.229  0.0000E+00  0.0000E+00
    -21.225  0.0000E+00  0.0000E+00
    -21.221  0.0000E+00  0.0000E+00
    -21.217  0.0000E+00  0.0000E+00
    -21.213  0.0000E+00  0.0000E+00
    -21.210  0.0000E+00  0.0000E+00
    -21.206  0.0000E+00  0.0000E+00
    -21.202  0.0000E+00  0.0000E+00
    -21.198  0.0000E+00  0.0000E+00
    -21.195  0.0000E+00  0.0000E+00
    -21.191  0.0000E+00  0.0000E+00
    -21.187  0.0000E+00  0.0000E+00
    -21.183  0.0000E+00  0.0000E+00
    -21.179  0.0000E+00  0.0000E+00
    -21.176  0.0000E+00  0.0000E+00
    -21.172  0.0000E+00  0.0000E+00
    -21.168  0.0000E+00  0.0000E+00
    -21.164  0.0000E+00  0.0000E+00
    -21.160  0.0000E+00  0.0000E+00
    -21.157  0.0000E+00  0.0000E+00
    -21.153  0.0000E+00  0.0000E+00
    -21.149  0.0000E+00  0.0000E+00
    -21.145  0.0000E+00  0.0000E+00
    -21.142  0.0000E+00  0.0000E+00
    -21.138  0.0000E+00  0.0000E+00
    -21.134  0.0000E+00  0.0000E+00
    -21.130  0.0000E+00  0.0000E+00
    -21.126  0.0000E+00  0.0000E+00
    -21.123  0.0000E+00  0.0000E+00
    -21.119  0.0000E+00  0.0000E+00
    -21.115  0.0000E+00  0.0000E+00
    -21.111  0.0000E+00  0.0000E+00
    -21.107  0.0000E+00  0.0000E+00
    -21.104  0.0000E+00  0.0000E+00
    -21.100  0.0000E+00  0.0000E+00
    -21.096  0.0000E+00  0.0000E+00
    -21.092  0.0000E+00  0.0000E+00
    -21.088  0.0000E+00  0.0000E+00
    -21.085  0.0000E+00  0.0000E+00
    -21.081  0.0000E+00  0.0000E+00
    -21.077  0.0000E+00  0.0000E+00
    -21.073  0.0000E+00  0.0000E+00
    -21.070  0.0000E+00  0.0000E+00
    -21.066  0.0000E+00  0.0000E+00
    -21.062  0.0000E+00  0.0000E+00
    -21.058  0.0000E+00  0.0000E+00
    -21.054  0.0000E+00  0.0000E+00
    -21.051  0.0000E+00  0.0000E+00
    -21.047  0.0000E+00  0.0000E+00
    -21.043  0.0000E+00  0.0000E+00
    -21.039  0.0000E+00  0.0000E+00
    -21.035  0.0000E+00  0.0000E+00
    -21.032  0.0000E+00  0.0000E+00
    -21.028  0.0000E+00  0.0000E+00
    -21.024  0.0000E+00  0.0000E+00
    -21.020  0.0000E+00  0.0000E+00
    -21.016  0.0000E+00  0.0000E+00
    -21.013  0.0000E+00  0.0000E+00
    -21.009  0.0000E+00  0.0000E+00
    -21.005  0.0000E+00  0.0000E+00
    -21.001  0.0000E+00  0.0000E+00
    -20.998  0.0000E+00  0.0000E+00
    -20.994  0.0000E+00  0.0000E+00
    -20.990  0.0000E+00  0.0000E+00
    -20.986  0.0000E+00  0.0000E+00
    -20.982  0.0000E+00  0.0000E+00
    -20.979  0.0000E+00  0.0000E+00
    -20.975  0.0000E+00  0.0000E+00
    -20.971  0.0000E+00  0.0000E+00
    -20.967  0.0000E+00  0.0000E+00
    -20.963  0.0000E+00  0.0000E+00
    -20.960  0.0000E+00  0.0000E+00
    -20.956  0.0000E+00  0.0000E+00
    -20.952  0.0000E+00  0.0000E+00
    -20.948  0.0000E+00  0.0000E+00
    -20.945  0.0000E+00  0.0000E+00
    -20.941  0.0000E+00  0.0000E+00
    -20.937  0.0000E+00  0.0000E+00
    -20.933  0.0000E+00  0.0000E+00
    -20.929  0.0000E+00  0.0000E+00
    -20.926  0.0000E+00  0.0000E+00
    -20.922  0.0000E+00  0.0000E+00
    -20.918  0.0000E+00  0.0000E+00
    -20.914  0.0000E+00  0.0000E+00
    -20.910  0.0000E+00  0.0000E+00
    -20.907  0.0000E+00  0.0000E+00
    -20.903  0.0000E+00  0.0000E+00
    -20.899  0.0000E+00  0.0000E+00
    -20.895  0.0000E+00  0.0000E+00
    -20.891  0.0000E+00  0.0000E+00
    -20.888  0.0000E+00  0.0000E+00
    -20.884  0.0000E+00  0.0000E+00
    -20.880  0.0000E+00  0.0000E+00
    -20.876  0.0000E+00  0.0000E+00
    -20.873  0.0000E+00  0.0000E+00
    -20.869  0.0000E+00  0.0000E+00
    -20.865  0.0000E+00  0.0000E+00
    -20.861  0.0000E+00  0.0000E+00
    -20.857  0.9969E-17  0.3776E-19
    -20.854  0.6480E-15  0.2492E-17
    -20.850  0.3422E-13  0.1321E-15
    -20.846  0.1362E-11  0.5291E-14
    -20.842  0.4083E-10  0.1600E-12
    -20.838  0.9226E-09  0.3655E-11
    -20.835  0.1572E-07  0.6320E-10
    -20.831  0.2020E-06  0.8284E-09
    -20.827  0.1958E-05  0.8247E-08
    -20.823  0.1433E-04  0.6254E-07
    -20.820  0.7922E-04  0.3626E-06
    -20.816  0.3312E-03  0.1617E-05
    -20.812  0.1050E-02  0.5595E-05
    -20.808  0.2537E-02  0.1521E-04
    -20.804  0.4730E-02  0.3312E-04
    -20.801  0.6973E-02  0.5954E-04
    -20.797  0.8496E-02  0.9172E-04
    -20.793  0.9055E-02  0.1260E-03
    -20.789  0.8735E-02  0.1591E-03
    -20.785  0.7468E-02  0.1874E-03
    -20.782  0.5355E-02  0.2077E-03
    -20.778  0.3066E-02  0.2193E-03
    -20.774  0.1368E-02  0.2245E-03
    -20.770  0.5187E-03  0.2265E-03
    -20.766  0.4544E-03  0.2282E-03
    -20.763  0.1514E-02  0.2339E-03
    -20.759  0.5021E-02  0.2529E-03
    -20.755  0.1286E-01  0.3016E-03
    -20.751  0.2533E-01  0.3976E-03
    -20.748  0.3921E-01  0.5461E-03
    -20.744  0.4961E-01  0.7341E-03
    -20.740  0.5422E-01  0.9394E-03
    -20.736  0.5339E-01  0.1142E-02
    -20.732  0.4695E-01  0.1320E-02
    -20.729  0.3503E-01  0.1452E-02
    -20.725  0.2106E-01  0.1532E-02
    -20.721  0.9860E-02  0.1569E-02
    -20.717  0.3536E-02  0.1583E-02
    -20.713  0.9635E-03  0.1586E-02
    -20.710  0.1988E-03  0.1587E-02
    -20.706  0.3099E-04  0.1587E-02
    -20.702  0.3647E-05  0.1587E-02
    -20.698  0.3240E-06  0.1587E-02
    -20.695  0.2171E-07  0.1587E-02
    -20.691  0.1097E-08  0.1587E-02
    -20.687  0.4262E-10  0.1587E-02
    -20.683  0.3091E-10  0.1587E-02
    -20.679  0.8024E-09  0.1587E-02
    -20.676  0.1633E-07  0.1587E-02
    -20.672  0.2507E-06  0.1587E-02
    -20.668  0.2902E-05  0.1587E-02
    -20.664  0.2535E-04  0.1587E-02
    -20.660  0.1673E-03  0.1588E-02
    -20.657  0.8338E-03  0.1591E-02
    -20.653  0.3146E-02  0.1603E-02
    -20.649  0.9018E-02  0.1637E-02
    -20.645  0.1978E-01  0.1712E-02
    -20.641  0.3374E-01  0.1840E-02
    -20.638  0.4618E-01  0.2015E-02
    -20.634  0.5332E-01  0.2217E-02
    -20.630  0.5465E-01  0.2424E-02
    -20.626  0.5041E-01  0.2615E-02
    -20.623  0.4029E-01  0.2768E-02
    -20.619  0.2642E-01  0.2868E-02
    -20.615  0.1365E-01  0.2919E-02
    -20.611  0.5446E-02  0.2940E-02
    -20.607  0.1764E-02  0.2947E-02
    -20.604  0.1002E-02  0.2950E-02
    -20.600  0.2551E-02  0.2960E-02
    -20.596  0.7521E-02  0.2989E-02
    -20.592  0.1735E-01  0.3054E-02
    -20.588  0.3103E-01  0.3172E-02
    -20.585  0.4421E-01  0.3339E-02
    -20.581  0.5255E-01  0.3538E-02
    -20.577  0.5497E-01  0.3747E-02
    -20.573  0.5175E-01  0.3943E-02
    -20.569  0.4259E-01  0.4104E-02
    -20.566  0.2903E-01  0.4214E-02
    -20.562  0.1568E-01  0.4273E-02
    -20.558  0.6547E-02  0.4298E-02
    -20.554  0.2085E-02  0.4306E-02
    -20.551  0.5037E-03  0.4308E-02
    -20.547  0.9205E-04  0.4308E-02
    -20.543  0.1271E-04  0.4308E-02
    -20.539  0.1324E-05  0.4308E-02
    -20.535  0.1041E-06  0.4308E-02
    -20.532  0.6177E-08  0.4308E-02
    -20.528  0.2762E-09  0.4308E-02
    -20.524  0.9309E-11  0.4308E-02
    -20.520  0.2364E-12  0.4308E-02
    -20.516  0.4506E-14  0.4308E-02
    -20.513  0.7975E-16  0.4308E-02
    -20.509  0.0000E+00  0.4308E-02
    -20.505  0.0000E+00  0.4308E-02
    -20.501  0.0000E+00  0.4308E-02
    -20.498  0.0000E+00  0.4308E-02
    -20.494  0.0000E+00  0.4308E-02
    -20.490  0.0000E+00  0.4308E-02
    -20.486  0.0000E+00  0.4308E-02
    -20.482  0.1994E-16  0.4308E-02
    -20.479  0.1774E-14  0.4308E-02
    -20.475  0.1038E-12  0.4308E-02
    -20.471  0.4566E-11  0.4308E-02
    -20.467  0.1514E-09  0.4308E-02
    -20.463  0.3781E-08  0.4308E-02
    -20.460  0.7121E-07  0.4308E-02
    -20.456  0.1011E-05  0.4308E-02
    -20.452  0.1084E-04  0.4308E-02
    -20.448  0.8764E-04  0.4309E-02
    -20.444  0.5353E-03  0.4311E-02
    -20.441  0.2472E-02  0.4320E-02
    -20.437  0.8647E-02  0.4353E-02
    -20.433  0.2303E-01  0.4440E-02
    -20.429  0.4711E-01  0.4619E-02
    -20.426  0.7555E-01  0.4905E-02
    -20.422  0.9846E-01  0.5278E-02
    -20.418  0.1097E+00  0.5694E-02
    -20.414  0.1091E+00  0.6107E-02
    -20.410  0.9634E-01  0.6472E-02
    -20.407  0.7234E-01  0.6746E-02
    -20.403  0.4391E-01  0.6912E-02
    -20.399  0.2083E-01  0.6991E-02
    -20.395  0.7579E-02  0.7020E-02
    -20.391  0.2098E-02  0.7028E-02
    -20.388  0.4397E-03  0.7029E-02
    -20.384  0.6969E-04  0.7029E-02
    -20.380  0.8339E-05  0.7029E-02
    -20.376  0.7532E-06  0.7029E-02
    -20.373  0.5131E-07  0.7029E-02
    -20.369  0.2636E-08  0.7029E-02
    -20.365  0.1028E-09  0.7029E-02
    -20.361  0.2892E-10  0.7029E-02
    -20.357  0.7083E-09  0.7029E-02
    -20.354  0.1458E-07  0.7029E-02
    -20.350  0.2262E-06  0.7029E-02
    -20.346  0.2649E-05  0.7029E-02
    -20.342  0.2340E-04  0.7030E-02
    -20.338  0.1561E-03  0.7030E-02
    -20.335  0.7872E-03  0.7033E-02
    -20.331  0.3005E-02  0.7045E-02
    -20.327  0.8717E-02  0.7078E-02
    -20.323  0.1936E-01  0.7151E-02
    -20.319  0.3346E-01  0.7278E-02
    -20.316  0.4639E-01  0.7453E-02
    -20.312  0.5407E-01  0.7658E-02
    -20.308  0.5555E-01  0.7869E-02
    -20.304  0.5091E-01  0.8062E-02
    -20.301  0.4021E-01  0.8214E-02
    -20.297  0.2603E-01  0.8312E-02
    -20.293  0.1327E-01  0.8363E-02
    -20.289  0.5217E-02  0.8382E-02
    -20.285  0.1563E-02  0.8388E-02
    -20.282  0.3549E-03  0.8390E-02
    -20.278  0.6097E-04  0.8390E-02
    -20.274  0.7911E-05  0.8390E-02
    -20.270  0.7749E-06  0.8390E-02
    -20.266  0.5726E-07  0.8390E-02
    -20.263  0.3191E-08  0.8390E-02
    -20.259  0.1341E-09  0.8390E-02
    -20.255  0.4246E-11  0.8390E-02
    -20.251  0.1013E-12  0.8390E-02
    -20.248  0.1814E-14  0.8390E-02
    -20.244  0.1994E-16  0.8390E-02
    -20.240  0.0000E+00  0.8390E-02
    -20.236  0.0000E+00  0.8390E-02
    -20.232  0.0000E+00  0.8390E-02
    -20.229  0.0000E+00  0.8390E-02
    -20.225  0.0000E+00  0.8390E-02
    -20.221  0.0000E+00  0.8390E-02
    -20.217  0.0000E+00  0.8390E-02
    -20.213  0.3987E-16  0.8390E-02
    -20.210  0.2951E-14  0.8390E-02
    -20.206  0.1588E-12  0.8390E-02
    -20.202  0.6440E-11  0.8390E-02
    -20.198  0.1968E-09  0.8390E-02
    -20.194  0.4532E-08  0.8390E-02
    -20.191  0.7869E-07  0.8390E-02
    -20.187  0.1030E-05  0.8390E-02
    -20.183  0.1018E-04  0.8390E-02
    -20.179  0.7595E-04  0.8390E-02
    -20.176  0.4280E-03  0.8392E-02
    -20.172  0.1825E-02  0.8399E-02
    -20.168  0.5903E-02  0.8421E-02
    -20.164  0.1457E-01  0.8476E-02
    -20.160  0.2780E-01  0.8582E-02
    -20.157  0.4197E-01  0.8741E-02
    -20.153  0.5220E-01  0.8939E-02
    -20.149  0.5617E-01  0.9151E-02
    -20.145  0.5375E-01  0.9355E-02
    -20.141  0.4494E-01  0.9525E-02
    -20.138  0.3133E-01  0.9644E-02
    -20.134  0.1742E-01  0.9710E-02
    -20.130  0.7536E-02  0.9738E-02
    -20.126  0.2604E-02  0.9748E-02
    -20.122  0.1328E-02  0.9753E-02
    -20.119  0.3229E-02  0.9765E-02
    -20.115  0.1042E-01  0.9805E-02
    -20.111  0.2653E-01  0.9905E-02
    -20.107  0.5218E-01  0.1010E-01
    -20.104  0.8094E-01  0.1041E-01
    -20.100  0.1029E+00  0.1080E-01
    -20.096  0.1124E+00  0.1123E-01
    -20.092  0.1090E+00  0.1164E-01
    -20.088  0.9255E-01  0.1199E-01
    -20.085  0.6587E-01  0.1224E-01
    -20.081  0.3756E-01  0.1238E-01
    -20.077  0.1666E-01  0.1244E-01
    -20.073  0.5662E-02  0.1246E-01
    -20.069  0.1462E-02  0.1247E-01
    -20.066  0.2859E-03  0.1247E-01
    -20.062  0.4225E-04  0.1247E-01
    -20.058  0.4715E-05  0.1247E-01
    -20.054  0.3971E-06  0.1247E-01
    -20.051  0.2522E-07  0.1247E-01
    -20.047  0.1208E-08  0.1247E-01
    -20.043  0.4362E-10  0.1247E-01
    -20.039  0.1187E-11  0.1247E-01
    -20.035  0.2432E-13  0.1247E-01
    -20.032  0.3987E-15  0.1247E-01
    -20.028  0.0000E+00  0.1247E-01
    -20.024  0.0000E+00  0.1247E-01
    -20.020  0.0000E+00  0.1247E-01
    -20.016  0.0000E+00  0.1247E-01
    -20.013  0.0000E+00  0.1247E-01
    -20.009  0.0000E+00  0.1247E-01
    -20.005  0.0000E+00  0.1247E-01
    -20.001  0.9969E-17  0.1247E-01
    -19.997  0.4984E-15  0.1247E-01
    -19.994  0.3037E-13  0.1247E-01
    -19.990  0.1389E-11  0.1247E-01
    -19.986  0.4784E-10  0.1247E-01
    -19.982  0.1242E-08  0.1247E-01
    -19.979  0.2430E-07  0.1247E-01
    -19.975  0.3587E-06  0.1247E-01
    -19.971  0.3993E-05  0.1247E-01
    -19.967  0.3355E-04  0.1247E-01
    -19.963  0.2129E-03  0.1247E-01
    -19.960  0.1022E-02  0.1248E-01
    -19.956  0.3716E-02  0.1249E-01
    -19.952  0.1029E-01  0.1253E-01
    -19.948  0.2189E-01  0.1261E-01
    -19.944  0.3644E-01  0.1275E-01
    -19.941  0.4907E-01  0.1294E-01
    -19.937  0.5593E-01  0.1315E-01
    -19.933  0.5605E-01  0.1336E-01
    -19.929  0.4941E-01  0.1355E-01
    -19.926  0.3693E-01  0.1369E-01
    -19.922  0.2235E-01  0.1377E-01
    -19.918  0.1060E-01  0.1381E-01
    -19.914  0.3863E-02  0.1383E-01
    -19.910  0.1072E-02  0.1383E-01
    -19.907  0.2255E-03  0.1383E-01
    -19.903  0.3588E-04  0.1383E-01
    -19.899  0.4310E-05  0.1383E-01
    -19.895  0.3909E-06  0.1383E-01
    -19.891  0.2674E-07  0.1383E-01
    -19.888  0.1379E-08  0.1383E-01
    -19.884  0.5365E-10  0.1383E-01
    -19.880  0.1572E-11  0.1383E-01
    -19.876  0.3469E-13  0.1383E-01
    -19.872  0.5981E-15  0.1383E-01
    -19.869  0.0000E+00  0.1383E-01
    -19.865  0.0000E+00  0.1383E-01
    -19.861  0.0000E+00  0.1383E-01
    -19.857  0.0000E+00  0.1383E-01
    -19.854  0.0000E+00  0.1383E-01
    -19.850  0.0000E+00  0.1383E-01
    -19.846  0.0000E+00  0.1383E-01
    -19.842  0.0000E+00  0.1383E-01
    -19.838  0.4386E-15  0.1383E-01
    -19.835  0.2801E-13  0.1383E-01
    -19.831  0.1353E-11  0.1383E-01
    -19.827  0.4925E-10  0.1383E-01
    -19.823  0.1350E-08  0.1383E-01
    -19.819  0.2792E-07  0.1383E-01
    -19.816  0.4351E-06  0.1383E-01
    -19.812  0.5116E-05  0.1383E-01
    -19.808  0.4540E-04  0.1383E-01
    -19.804  0.3043E-03  0.1383E-01
    -19.801  0.1542E-02  0.1384E-01
    -19.797  0.5917E-02  0.1386E-01
    -19.793  0.1728E-01  0.1393E-01
    -19.789  0.3868E-01  0.1407E-01
    -19.785  0.6753E-01  0.1433E-01
    -19.782  0.9467E-01  0.1469E-01
    -19.778  0.1112E+00  0.1511E-01
    -19.774  0.1139E+00  0.1554E-01
    -19.770  0.1025E+00  0.1593E-01
    -19.766  0.7868E-01  0.1623E-01
    -19.763  0.4922E-01  0.1641E-01
    -19.759  0.2423E-01  0.1651E-01
    -19.755  0.9197E-02  0.1654E-01
    -19.751  0.2662E-02  0.1655E-01
    -19.747  0.5843E-03  0.1655E-01
    -19.744  0.9702E-04  0.1655E-01
    -19.740  0.1217E-04  0.1655E-01
    -19.736  0.1153E-05  0.1655E-01
    -19.732  0.8235E-07  0.1655E-01
    -19.729  0.4437E-08  0.1655E-01
    -19.725  0.1811E-09  0.1655E-01
    -19.721  0.3901E-10  0.1655E-01
    -19.717  0.9478E-09  0.1655E-01
    -19.713  0.2022E-07  0.1655E-01
    -19.710  0.3251E-06  0.1655E-01
    -19.706  0.3945E-05  0.1655E-01
    -19.702  0.3612E-04  0.1655E-01
    -19.698  0.2497E-03  0.1655E-01
    -19.694  0.1305E-02  0.1656E-01
    -19.691  0.5168E-02  0.1658E-01
    -19.687  0.1556E-01  0.1664E-01
    -19.683  0.3588E-01  0.1677E-01
    -19.679  0.6440E-01  0.1702E-01
    -19.675  0.9248E-01  0.1737E-01
    -19.672  0.1107E+00  0.1779E-01
    -19.668  0.1148E+00  0.1822E-01
    -19.664  0.1046E+00  0.1862E-01
    -19.660  0.8139E-01  0.1893E-01
    -19.657  0.5182E-01  0.1912E-01
    -19.653  0.2604E-01  0.1922E-01
    -19.649  0.1010E-01  0.1926E-01
    -19.645  0.2993E-02  0.1927E-01
    -19.641  0.6726E-03  0.1927E-01
    -19.638  0.1144E-03  0.1927E-01
    -19.634  0.1470E-04  0.1927E-01
    -19.630  0.1426E-05  0.1927E-01
    -19.626  0.1044E-06  0.1927E-01
    -19.622  0.5761E-08  0.1927E-01
    -19.619  0.2397E-09  0.1927E-01
    -19.615  0.7520E-11  0.1927E-01
    -19.611  0.1777E-12  0.1927E-01
    -19.607  0.3150E-14  0.1927E-01
    -19.604  0.3987E-16  0.1927E-01
    -19.600  0.0000E+00  0.1927E-01
    -19.596  0.0000E+00  0.1927E-01
    -19.592  0.0000E+00  0.1927E-01
    -19.588  0.0000E+00  0.1927E-01
    -19.585  0.0000E+00  0.1927E-01
    -19.581  0.0000E+00  0.1927E-01
    -19.577  0.0000E+00  0.1927E-01
    -19.573  0.0000E+00  0.1927E-01
    -19.569  0.0000E+00  0.1927E-01
    -19.566  0.0000E+00  0.1927E-01
    -19.562  0.0000E+00  0.1927E-01
    -19.558  0.0000E+00  0.1927E-01
    -19.554  0.0000E+00  0.1927E-01
    -19.550  0.0000E+00  0.1927E-01
    -19.547  0.0000E+00  0.1927E-01
    -19.543  0.0000E+00  0.1927E-01
    -19.539  0.0000E+00  0.1927E-01
    -19.535  0.0000E+00  0.1927E-01
    -19.532  0.0000E+00  0.1927E-01
    -19.528  0.0000E+00  0.1927E-01
    -19.524  0.0000E+00  0.1927E-01
    -19.520  0.8972E-16  0.1927E-01
    -19.516  0.6171E-14  0.1927E-01
    -19.513  0.3158E-12  0.1927E-01
    -19.509  0.1217E-10  0.1927E-01
    -19.505  0.3534E-09  0.1927E-01
    -19.501  0.7735E-08  0.1927E-01
    -19.497  0.1277E-06  0.1927E-01
    -19.494  0.1589E-05  0.1927E-01
    -19.490  0.1493E-04  0.1927E-01
    -19.486  0.1059E-03  0.1927E-01
    -19.482  0.5681E-03  0.1928E-01
    -19.479  0.2308E-02  0.1929E-01
    -19.475  0.7127E-02  0.1931E-01
    -19.471  0.1686E-01  0.1938E-01
    -19.467  0.3101E-01  0.1949E-01
    -19.463  0.4551E-01  0.1967E-01
    -19.460  0.5538E-01  0.1988E-01
    -19.456  0.5808E-01  0.2010E-01
    -19.452  0.5320E-01  0.2030E-01
    -19.448  0.4158E-01  0.2046E-01
    -19.444  0.2663E-01  0.2056E-01
    -19.441  0.1349E-01  0.2061E-01
    -19.437  0.5282E-02  0.2063E-01
    -19.433  0.1580E-02  0.2063E-01
    -19.429  0.3590E-03  0.2063E-01
    -19.425  0.6173E-04  0.2063E-01
    -19.422  0.8020E-05  0.2063E-01
    -19.418  0.7867E-06  0.2063E-01
    -19.414  0.5823E-07  0.2063E-01
    -19.410  0.3251E-08  0.2063E-01
    -19.407  0.1373E-09  0.2063E-01
    -19.403  0.2118E-10  0.2063E-01
    -19.399  0.4766E-09  0.2063E-01
    -19.395  0.1016E-07  0.2063E-01
    -19.391  0.1633E-06  0.2063E-01
    -19.388  0.1981E-05  0.2063E-01
    -19.384  0.1813E-04  0.2063E-01
    -19.380  0.1253E-03  0.2064E-01
    -19.376  0.6550E-03  0.2064E-01
    -19.372  0.2594E-02  0.2065E-01
    -19.369  0.7816E-02  0.2068E-01
    -19.365  0.1807E-01  0.2075E-01
    -19.361  0.3254E-01  0.2087E-01
    -19.357  0.4691E-01  0.2105E-01
    -19.354  0.5627E-01  0.2126E-01
    -19.350  0.5821E-01  0.2148E-01
    -19.346  0.5241E-01  0.2168E-01
    -19.342  0.4003E-01  0.2183E-01
    -19.338  0.2493E-01  0.2193E-01
    -19.335  0.1225E-01  0.2197E-01
    -19.331  0.4678E-02  0.2199E-01
    -19.327  0.1598E-02  0.2200E-01
    -19.323  0.1623E-02  0.2200E-01
    -19.319  0.5297E-02  0.2202E-01
    -19.316  0.1579E-01  0.2208E-01
    -19.312  0.3640E-01  0.2222E-01
    -19.308  0.6546E-01  0.2247E-01
    -19.304  0.9427E-01  0.2282E-01
    -19.300  0.1130E+00  0.2325E-01
    -19.297  0.1166E+00  0.2369E-01
    -19.293  0.1047E+00  0.2409E-01
    -19.289  0.7958E-01  0.2439E-01
    -19.285  0.4929E-01  0.2458E-01
    -19.282  0.2406E-01  0.2467E-01
    -19.278  0.9064E-02  0.2470E-01
    -19.274  0.2607E-02  0.2471E-01
    -19.270  0.5692E-03  0.2472E-01
    -19.266  0.9405E-04  0.2472E-01
    -19.263  0.1174E-04  0.2472E-01
    -19.259  0.1107E-05  0.2472E-01
    -19.255  0.7871E-07  0.2472E-01
    -19.251  0.4221E-08  0.2472E-01
    -19.247  0.1707E-09  0.2472E-01
    -19.244  0.5201E-11  0.2472E-01
    -19.240  0.1195E-12  0.2472E-01
    -19.236  0.2073E-14  0.2472E-01
    -19.232  0.0000E+00  0.2472E-01
    -19.228  0.0000E+00  0.2472E-01
    -19.225  0.0000E+00  0.2472E-01