 vasp.5.4.4.18Apr17-6-g9f103f2a35 (build May 31 2018 21:15:54) complex          
  
 executed on          c7_intel_O1 date 2020.07.27  23:08:11
 running on    4 total cores
 distrk:  each k-point on    4 cores,    1 groups
 distr:  one band on NCORES_PER_BAND=   1 cores,    4 groups


--------------------------------------------------------------------------------------------------------


 INCAR:
 POTCAR:    PAW_PBE C 08Apr2002                   
 POTCAR:    PAW_PBE C 08Apr2002                   
   VRHFIN =C: s2p2                                                              
   LEXCH  = PE                                                                  
   EATOM  =   147.1560 eV,   10.8157 Ry                                         
                                                                                
   TITEL  = PAW_PBE C 08Apr2002                                                 
   LULTRA =        F    use ultrasoft PP ?                                      
   IUNSCR =        1    unscreen: 0-lin 1-nonlin 2-no                           
   RPACOR =    1.200    partial core radius                                     
   POMASS =   12.011; ZVAL   =    4.000    mass and valenz                      
   RCORE  =    1.500    outmost cutoff radius                                   
   RWIGS  =    1.630; RWIGS  =    0.863    wigner-seitz radius (au A)           
   ENMAX  =  400.000; ENMIN  =  300.000 eV                                      
   ICORE  =        2    local potential                                         
   LCOR   =        T    correct aug charges                                     
   LPAW   =        T    paw PP                                                  
   EAUG   =  644.873                                                            
   DEXC   =    0.000                                                            
   RMAX   =    1.529    core radius for proj-oper                               
   RAUG   =    1.300    factor for augmentation sphere                          
   RDEP   =    1.501    radius for radial grids                                 
   RDEPT  =    1.300    core radius for aug-charge                              
                                                                                
   Atomic configuration                                                         
    4 entries                                                                   
     n  l   j            E        occ.                                          
     1  0  0.50      -273.3789   2.0000                                         
     2  0  0.50       -13.7508   2.0000                                         
     2  1  0.50        -5.2854   2.0000                                         
     3  2  1.50        -5.4423   0.0000                                         
   Description                                                                  
     l       E           TYP  RCUT    TYP  RCUT                                 
     0    -13.7508458     23  1.200                                             
     0     -8.2022199     23  1.200                                             
     1     -5.2854383     23  1.500                                             
     1     34.0145650     23  1.500                                             
     2     -5.4423304      7  1.500                                             
  local pseudopotential read in
  partial core-charges read in
  partial kinetic energy density read in
  atomic valenz-charges read in
  non local Contribution for L=           0  read in
    real space projection operators read in
  non local Contribution for L=           0  read in
    real space projection operators read in
  non local Contribution for L=           1  read in
    real space projection operators read in
  non local Contribution for L=           1  read in
    real space projection operators read in
    PAW grid and wavefunctions read in
 
   number of l-projection  operators is LMAX  =           4
   number of lm-projection operators is LMMAX =           8
 
  PAW_PBE C 08Apr2002                   :
 energy of atom  1       EATOM= -147.1560
 kinetic energy error for atom=    0.0016 (will be added to EATOM!!)
 
 
 POSCAR: C2_bilayer                              
  positions in direct lattice
  No initial velocities read in
 exchange correlation table for  LEXCH =        8
   RHO(1)=    0.500       N(1)  =     2000
   RHO(2)=  100.500       N(2)  =     4000
 


--------------------------------------------------------------------------------------------------------


 ion  position               nearest neighbor table
   1  0.000  0.000  0.000-   2 1.42   2 1.42   2 1.42
   2  0.333  0.333  0.000-   1 1.42   1 1.42   1 1.42
   3  0.000  0.000  0.250-   4 1.42   4 1.42   4 1.42
   4  0.333  0.333  0.250-   3 1.42   3 1.42   3 1.42
 
  LATTYP: Found a hexagonal cell.
 ALAT       =     2.4595120000
 C/A-ratio  =     8.1316944174
  
  Lattice vectors:
  
 A1 = (   0.0000000000,  -2.4595120000,   0.0000000000)
 A2 = (  -2.1300000000,   1.2297560000,   0.0000000000)
 A3 = (   0.0000000000,   0.0000000000, -20.0000000000)


Analysis of symmetry for initial positions (statically):
=====================================================================
 Subroutine PRICEL returns:
 Original cell was already a primitive cell.
 

 Routine SETGRP: Setting up the symmetry group for a 
 hexagonal supercell.


 Subroutine GETGRP returns: Found 24 space group operations
 (whereof  6 operations were pure point group operations)
 out of a pool of 24 trial point group operations.


The static configuration has the point symmetry C_3v.
 The point group associated with its full space group is D_6h.


Analysis of symmetry for dynamics (positions and initial velocities):
=====================================================================
 Subroutine PRICEL returns:
 Original cell was already a primitive cell.
 

 Routine SETGRP: Setting up the symmetry group for a 
 hexagonal supercell.


 Subroutine GETGRP returns: Found 24 space group operations
 (whereof  6 operations were pure point group operations)
 out of a pool of 24 trial point group operations.


The dynamic configuration has the point symmetry C_3v.
 The point group associated with its full space group is D_6h.


Analysis of constrained symmetry for selective dynamics:
=====================================================================
 Subroutine PRICEL returns:
 Original cell was already a primitive cell.
 

 Routine SETGRP: Setting up the symmetry group for a 
 hexagonal supercell.


 Subroutine GETGRP returns: Found 12 space group operations
 (whereof  6 operations were pure point group operations)
 out of a pool of 24 trial point group operations.


The constrained configuration has the point symmetry C_3v.
 The point group associated with its full space group is C_6v.


 Subroutine INISYM returns: Found 12 space group operations
 (whereof  6 operations are pure point group operations),
 and found     1 'primitive' translations

 
 
 KPOINTS: k grid                                  

Automatic generation of k-mesh.
Space group operators:
 irot       det(A)        alpha          n_x          n_y          n_z        tau_x        tau_y        tau_z
    1     1.000000     0.000000     1.000000     0.000000     0.000000     0.000000     0.000000     0.000000
    2     1.000000   120.000000     0.000000     0.000000     1.000000     0.000000     0.000000     0.000000
    3     1.000000   120.000000     0.000000     0.000000    -1.000000     0.000000     0.000000     0.000000
    4    -1.000000   180.000000    -0.000000     1.000000     0.000000     0.000000     0.000000     0.000000
    5    -1.000000   180.000000     0.866025    -0.500000     0.000000     0.000000     0.000000     0.000000
    6    -1.000000   180.000000     0.866025     0.500000     0.000000     0.000000     0.000000     0.000000
    7     1.000000    60.000000     0.000000     0.000000     1.000000     0.333333    -0.666667     0.000000
    8     1.000000   180.000000     0.000000     0.000000     1.000000     0.333333    -0.666667     0.000000
    9     1.000000    60.000000     0.000000     0.000000    -1.000000     0.333333    -0.666667     0.000000
   10    -1.000000   180.000000     0.500000    -0.866025     0.000000     0.333333    -0.666667     0.000000
   11    -1.000000   180.000000     1.000000     0.000000     0.000000     0.333333    -0.666667     0.000000
   12    -1.000000   180.000000    -0.500000    -0.866025     0.000000     0.333333    -0.666667     0.000000
 
 Subroutine IBZKPT returns following result:
 ===========================================
 
 Found     48 irreducible k-points:
 
 Following reciprocal coordinates:
            Coordinates               Weight
  0.000000  0.000000  0.000000      1.000000
  0.047619  0.000000  0.000000      6.000000
  0.095238  0.000000  0.000000      6.000000
  0.142857  0.000000  0.000000      6.000000
  0.190476  0.000000  0.000000      6.000000
  0.238095  0.000000  0.000000      6.000000
  0.285714  0.000000  0.000000      6.000000
  0.333333  0.000000  0.000000      6.000000
  0.380952  0.000000  0.000000      6.000000
  0.428571  0.000000  0.000000      6.000000
  0.476190  0.000000  0.000000      6.000000
  0.095238  0.047619  0.000000      6.000000
  0.142857  0.047619  0.000000     12.000000
  0.190476  0.047619  0.000000     12.000000
  0.238095  0.047619  0.000000     12.000000
  0.285714  0.047619  0.000000     12.000000
  0.333333  0.047619  0.000000     12.000000
  0.380952  0.047619  0.000000     12.000000
  0.428571  0.047619  0.000000     12.000000
  0.476190  0.047619  0.000000     12.000000
 -0.476190  0.047619  0.000000      6.000000
  0.190476  0.095238  0.000000      6.000000
  0.238095  0.095238  0.000000     12.000000
  0.285714  0.095238  0.000000     12.000000
  0.333333  0.095238  0.000000     12.000000
  0.380952  0.095238  0.000000     12.000000
  0.428571  0.095238  0.000000     12.000000
  0.476190  0.095238  0.000000     12.000000
 -0.476190  0.095238  0.000000     12.000000
  0.285714  0.142857  0.000000      6.000000
  0.333333  0.142857  0.000000     12.000000
  0.380952  0.142857  0.000000     12.000000
  0.428571  0.142857  0.000000     12.000000
  0.476190  0.142857  0.000000     12.000000
 -0.476190  0.142857  0.000000     12.000000
 -0.428571  0.142857  0.000000      6.000000
  0.380952  0.190476  0.000000      6.000000
  0.428571  0.190476  0.000000     12.000000
  0.476190  0.190476  0.000000     12.000000
 -0.476190  0.190476  0.000000     12.000000
 -0.428571  0.190476  0.000000     12.000000
  0.476190  0.238095  0.000000      6.000000
 -0.476190  0.238095  0.000000     12.000000
 -0.428571  0.238095  0.000000     12.000000
 -0.380952  0.238095  0.000000      6.000000
 -0.428571  0.285714  0.000000      6.000000
 -0.380952  0.285714  0.000000     12.000000
 -0.333333  0.333333  0.000000      2.000000
 
 Following cartesian coordinates:
            Coordinates               Weight
  0.000000  0.000000  0.000000      1.000000
  0.011178 -0.019361  0.000000      6.000000
  0.022356 -0.038722  0.000000      6.000000
  0.033535 -0.058084  0.000000      6.000000
  0.044713 -0.077445  0.000000      6.000000
  0.055891 -0.096806  0.000000      6.000000
  0.067069 -0.116167  0.000000      6.000000
  0.078247 -0.135528  0.000000      6.000000
  0.089425 -0.154889  0.000000      6.000000
  0.100604 -0.174251  0.000000      6.000000
  0.111782 -0.193612  0.000000      6.000000
  0.033535 -0.019361  0.000000      6.000000
  0.044713 -0.038722  0.000000     12.000000
  0.055891 -0.058084  0.000000     12.000000
  0.067069 -0.077445  0.000000     12.000000
  0.078247 -0.096806  0.000000     12.000000
  0.089425 -0.116167  0.000000     12.000000
  0.100604 -0.135528  0.000000     12.000000
  0.111782 -0.154889  0.000000     12.000000
  0.122960 -0.174251  0.000000     12.000000
 -0.100604  0.212973  0.000000      6.000000
  0.067069 -0.038722  0.000000      6.000000
  0.078247 -0.058084  0.000000     12.000000
  0.089425 -0.077445  0.000000     12.000000
  0.100604 -0.096806  0.000000     12.000000
  0.111782 -0.116167  0.000000     12.000000
  0.122960 -0.135528  0.000000     12.000000
  0.134138 -0.154889  0.000000     12.000000
 -0.089425  0.232334  0.000000     12.000000
  0.100604 -0.058084  0.000000      6.000000
  0.111782 -0.077445  0.000000     12.000000
  0.122960 -0.096806  0.000000     12.000000
  0.134138 -0.116167  0.000000     12.000000
  0.145316 -0.135528  0.000000     12.000000
 -0.078247  0.251695  0.000000     12.000000
 -0.067069  0.232334  0.000000      6.000000
  0.134138 -0.077445  0.000000      6.000000
  0.145316 -0.096806  0.000000     12.000000
  0.156495 -0.116167  0.000000     12.000000
 -0.067069  0.271056  0.000000     12.000000
 -0.055891  0.251695  0.000000     12.000000
  0.167673 -0.096806  0.000000      6.000000
 -0.055891  0.290418  0.000000     12.000000
 -0.044713  0.271056  0.000000     12.000000
 -0.033535  0.251695  0.000000      6.000000
 -0.033535  0.290418  0.000000      6.000000
 -0.022356  0.271056  0.000000     12.000000
  0.000000  0.271056  0.000000      2.000000
 


--------------------------------------------------------------------------------------------------------




 Dimension of arrays:
   k-points           NKPTS =     48   k-points in BZ     NKDIM =     48   number of bands    NBANDS=     12
   number of dos      NEDOS =   9001   number of ions     NIONS =      4
   non local maximal  LDIM  =      4   non local SUM 2l+1 LMDIM =      8
   total plane-waves  NPLWV = 110592
   max r-space proj   IRMAX =      1   max aug-charges    IRDMAX=  99836
   dimension x,y,z NGX =    24 NGY =   24 NGZ =  192
   dimension x,y,z NGXF=    48 NGYF=   48 NGZF=  384
   support grid    NGXF=    96 NGYF=   96 NGZF=  768
   ions per type =               4
   NGX,Y,Z   is equivalent  to a cutoff of  16.22, 16.22, 15.96 a.u.
   NGXF,Y,Z  is equivalent  to a cutoff of  32.44, 32.44, 31.92 a.u.

 SYSTEM =  bilayer_graphene_AA                     
 POSCAR =  C2_bilayer                              

 Startparameter for this run:
   NWRITE =      2    write-flag & timer
   PREC   = accura    normal or accurate (medium, high low for compatibility)
   ISTART =      0    job   : 0-new  1-cont  2-samecut
   ICHARG =      2    charge: 1-file 2-atom 10-const
   ISPIN  =      1    spin polarized calculation?
   LNONCOLLINEAR =      F non collinear calculations
   LSORBIT =      F    spin-orbit coupling
   INIWAV =      1    electr: 0-lowe 1-rand  2-diag
   LASPH  =      F    aspherical Exc in radial PAW
   METAGGA=      F    non-selfconsistent MetaGGA calc.

 Electronic Relaxation 1
   ENCUT  =  800.0 eV  58.80 Ry    7.67 a.u.   5.67  5.67 46.12*2*pi/ulx,y,z
   ENINI  =  800.0     initial cutoff
   ENAUG  =  644.9 eV  augmentation charge cutoff
   NELM   =     60;   NELMIN=  5; NELMDL= -5     # of ELM steps 
   EDIFF  = 0.1E-07   stopping-criterion for ELM
   LREAL  =      F    real-space projection
   NLSPLINE    = F    spline interpolate recip. space projectors
   LCOMPAT=      F    compatible to vasp.4.4
   GGA_COMPAT  = T    GGA compatible to vasp.4.4-vasp.4.6
   LMAXPAW     = -100 max onsite density
   LMAXMIX     =    2 max onsite mixed and CHGCAR
   VOSKOWN=      0    Vosko Wilk Nusair interpolation
   ROPT   =    0.00000
 Ionic relaxation
   EDIFFG = -.1E-03   stopping-criterion for IOM
   NSW    =     40    number of steps for IOM
   NBLOCK =      1;   KBLOCK =     40    inner block; outer block 
   IBRION =      2    ionic relax: 0-MD 1-quasi-New 2-CG
   NFREE  =      1    steps in history (QN), initial steepest desc. (CG)
   ISIF   =      2    stress and relaxation
   IWAVPR =     11    prediction:  0-non 1-charg 2-wave 3-comb
   ISYM   =      2    0-nonsym 1-usesym 2-fastsym
   LCORR  =      T    Harris-Foulkes like correction to forces

   POTIM  = 0.5000    time-step for ionic-motion
   TEIN   =    0.0    initial temperature
   TEBEG  =    0.0;   TEEND  =   0.0 temperature during run
   SMASS  =  -3.00    Nose mass-parameter (am)
   estimated Nose-frequenzy (Omega)   =  0.10E-29 period in steps =****** mass=  -0.138E-27a.u.
   SCALEE = 1.0000    scale energy and forces
   NPACO  =    256;   APACO  = 16.0  distance and # of slots for P.C.
   PSTRESS=    0.0 pullay stress

  Mass of Ions in am
   POMASS =  12.01
  Ionic Valenz
   ZVAL   =   4.00
  Atomic Wigner-Seitz radii
   RWIGS  =  -1.00
  virtual crystal weights 
   VCA    =   1.00
   NELECT =      16.0000    total number of electrons
   NUPDOWN=      -1.0000    fix difference up-down

 DOS related values:
   EMIN   =  10.00;   EMAX   =-10.00  energy-range for DOS
   EFERMI =   0.00
   ISMEAR =     0;   SIGMA  =   0.01  broadening in eV -4-tet -1-fermi 0-gaus

 Electronic relaxation 2 (details)
   IALGO  =     38    algorithm
   LDIAG  =      T    sub-space diagonalisation (order eigenvalues)
   LSUBROT=      F    optimize rotation matrix (better conditioning)
   TURBO    =      0    0=normal 1=particle mesh
   IRESTART =      0    0=no restart 2=restart with 2 vectors
   NREBOOT  =      0    no. of reboots
   NMIN     =      0    reboot dimension
   EREF     =   0.00    reference energy to select bands
   IMIX   =      4    mixing-type and parameters
     AMIX     =   0.40;   BMIX     =  1.00
     AMIX_MAG =   1.60;   BMIX_MAG =  1.00
     AMIN     =   0.01
     WC   =   100.;   INIMIX=   1;  MIXPRE=   1;  MAXMIX= -45

 Intra band minimization:
   WEIMIN = 0.0010     energy-eigenvalue tresh-hold
   EBREAK =  0.21E-09  absolut break condition
   DEPER  =   0.30     relativ break condition  

   TIME   =   0.40     timestep for ELM

  volume/ion in A,a.u.               =      26.19       176.76
  Fermi-wavevector in a.u.,A,eV,Ry     =   0.875041  1.653589 10.417948  0.765698
  Thomas-Fermi vector in A             =   1.994657
 
 Write flags
   LWAVE        =      F    write WAVECAR
   LDOWNSAMPLE  =      F    k-point downsampling of WAVECAR
   LCHARG       =      T    write CHGCAR
   LVTOT        =      F    write LOCPOT, total local potential
   LVHAR        =      F    write LOCPOT, Hartree potential only
   LELF         =      F    write electronic localiz. function (ELF)
   LORBIT       =      0    0 simple, 1 ext, 2 COOP (PROOUT), +10 PAW based schemes


 Dipole corrections
   LMONO  =      F    monopole corrections only (constant potential shift)
   LDIPOL =      F    correct potential (dipole corrections)
   IDIPOL =      0    1-x, 2-y, 3-z, 4-all directions 
   EPSILON=  1.0000000 bulk dielectric constant

 Exchange correlation treatment:
   GGA     =    --    GGA type
   LEXCH   =     8    internal setting for exchange type
   VOSKOWN=      0    Vosko Wilk Nusair interpolation
   LHFCALC =     F    Hartree Fock is set to
   LHFONE  =     F    Hartree Fock one center treatment
   AEXX    =    0.0000 exact exchange contribution

 Linear response parameters
   LEPSILON=     F    determine dielectric tensor
   LRPA    =     F    only Hartree local field effects (RPA)
   LNABLA  =     F    use nabla operator in PAW spheres
   LVEL    =     F    velocity operator in full k-point grid
   LINTERFAST=   F  fast interpolation
   KINTER  =     0    interpolate to denser k-point grid
   CSHIFT  =0.1000    complex shift for real part using Kramers Kronig
   OMEGAMAX=  -1.0    maximum frequency
   DEG_THRESHOLD= 0.2000000E-02 threshold for treating states as degnerate
   RTIME   =   -0.100 relaxation time in fs
  (WPLASMAI=    0.000 imaginary part of plasma frequency in eV, 0.658/RTIME)
   DFIELD  = 0.0000000 0.0000000 0.0000000 field for delta impulse in time
 
 Orbital magnetization related:
   ORBITALMAG=     F  switch on orbital magnetization
   LCHIMAG   =     F  perturbation theory with respect to B field
   DQ        =  0.001000  dq finite difference perturbation B field
   LLRAUG    =     F  two centre corrections for induced B field



--------------------------------------------------------------------------------------------------------


 conjugate gradient relaxation of ions
   using selective dynamics as specified on POSCAR
 charge density and potential will be updated during run
 non-spin polarized calculation
 Variant of blocked Davidson
 Davidson routine will perform the subspace rotation
 perform sub-space diagonalisation
    after iterative eigenvector-optimisation
 modified Broyden-mixing scheme, WC =      100.0
 initial mixing is a Kerker type mixing with AMIX =  0.4000 and BMIX =      1.0000
 Hartree-type preconditioning will be used
 using additional bands            4
 reciprocal scheme for non local part
 use partial core corrections
 calculate Harris-corrections to forces 
   (improved forces if not selfconsistent)
 use gradient corrections 
 use of overlap-Matrix (Vanderbilt PP)
 Gauss-broadening in eV      SIGMA  =   0.01


--------------------------------------------------------------------------------------------------------


  energy-cutoff  :      800.00
  volume of cell :      104.78
      direct lattice vectors                 reciprocal lattice vectors
     2.130000000 -1.229756000  0.000000000     0.234741784 -0.406584721  0.000000000
     2.130000000  1.229756000  0.000000000     0.234741784  0.406584721  0.000000000
     0.000000000  0.000000000 20.000000000     0.000000000  0.000000000  0.050000000

  length of vectors
     2.459512110  2.459512110 20.000000000     0.469483589  0.469483589  0.050000000


 
 k-points in units of 2pi/SCALE and weight: k grid                                  
   0.00000000  0.00000000  0.00000000       0.002
   0.01117818 -0.01936118  0.00000000       0.014
   0.02235636 -0.03872235  0.00000000       0.014
   0.03353454 -0.05808353  0.00000000       0.014
   0.04471272 -0.07744471  0.00000000       0.014
   0.05589090 -0.09680589  0.00000000       0.014
   0.06706908 -0.11616706  0.00000000       0.014
   0.07824726 -0.13552824  0.00000000       0.014
   0.08942544 -0.15488942  0.00000000       0.014
   0.10060362 -0.17425059  0.00000000       0.014
   0.11178180 -0.19361177  0.00000000       0.014
   0.03353454 -0.01936118  0.00000000       0.014
   0.04471272 -0.03872235  0.00000000       0.027
   0.05589090 -0.05808353  0.00000000       0.027
   0.06706908 -0.07744471  0.00000000       0.027
   0.07824726 -0.09680589  0.00000000       0.027
   0.08942544 -0.11616706  0.00000000       0.027
   0.10060362 -0.13552824  0.00000000       0.027
   0.11178180 -0.15488942  0.00000000       0.027
   0.12295998 -0.17425059  0.00000000       0.027
  -0.10060362  0.21297295  0.00000000       0.014
   0.06706908 -0.03872235  0.00000000       0.014
   0.07824726 -0.05808353  0.00000000       0.027
   0.08942544 -0.07744471  0.00000000       0.027
   0.10060362 -0.09680589  0.00000000       0.027
   0.11178180 -0.11616706  0.00000000       0.027
   0.12295998 -0.13552824  0.00000000       0.027
   0.13413816 -0.15488942  0.00000000       0.027
  -0.08942544  0.23233413  0.00000000       0.027
   0.10060362 -0.05808353  0.00000000       0.014
   0.11178180 -0.07744471  0.00000000       0.027
   0.12295998 -0.09680589  0.00000000       0.027
   0.13413816 -0.11616706  0.00000000       0.027
   0.14531634 -0.13552824  0.00000000       0.027
  -0.07824726  0.25169530  0.00000000       0.027
  -0.06706908  0.23233413  0.00000000       0.014
   0.13413816 -0.07744471  0.00000000       0.014
   0.14531634 -0.09680589  0.00000000       0.027
   0.15649452 -0.11616706  0.00000000       0.027
  -0.06706908  0.27105648  0.00000000       0.027
  -0.05589090  0.25169530  0.00000000       0.027
   0.16767270 -0.09680589  0.00000000       0.014
  -0.05589090  0.29041766  0.00000000       0.027
  -0.04471272  0.27105648  0.00000000       0.027
  -0.03353454  0.25169530  0.00000000       0.014
  -0.03353454  0.29041766  0.00000000       0.014
  -0.02235636  0.27105648  0.00000000       0.027
   0.00000000  0.27105648  0.00000000       0.005
 
 k-points in reciprocal lattice and weights: k grid                                  
   0.00000000  0.00000000  0.00000000       0.002
   0.04761905  0.00000000  0.00000000       0.014
   0.09523810  0.00000000  0.00000000       0.014
   0.14285714  0.00000000  0.00000000       0.014
   0.19047619  0.00000000  0.00000000       0.014
   0.23809524  0.00000000  0.00000000       0.014
   0.28571429  0.00000000  0.00000000       0.014
   0.33333333  0.00000000  0.00000000       0.014
   0.38095238  0.00000000  0.00000000       0.014
   0.42857143  0.00000000  0.00000000       0.014
   0.47619048  0.00000000  0.00000000       0.014
   0.09523810  0.04761905  0.00000000       0.014
   0.14285714  0.04761905  0.00000000       0.027
   0.19047619  0.04761905  0.00000000       0.027
   0.23809524  0.04761905  0.00000000       0.027
   0.28571429  0.04761905  0.00000000       0.027
   0.33333333  0.04761905  0.00000000       0.027
   0.38095238  0.04761905  0.00000000       0.027
   0.42857143  0.04761905  0.00000000       0.027
   0.47619048  0.04761905  0.00000000       0.027
  -0.47619048  0.04761905  0.00000000       0.014
   0.19047619  0.09523810  0.00000000       0.014
   0.23809524  0.09523810  0.00000000       0.027
   0.28571429  0.09523810  0.00000000       0.027
   0.33333333  0.09523810  0.00000000       0.027
   0.38095238  0.09523810  0.00000000       0.027
   0.42857143  0.09523810  0.00000000       0.027
   0.47619048  0.09523810  0.00000000       0.027
  -0.47619048  0.09523810  0.00000000       0.027
   0.28571429  0.14285714  0.00000000       0.014
   0.33333333  0.14285714  0.00000000       0.027
   0.38095238  0.14285714  0.00000000       0.027
   0.42857143  0.14285714  0.00000000       0.027
   0.47619048  0.14285714  0.00000000       0.027
  -0.47619048  0.14285714  0.00000000       0.027
  -0.42857143  0.14285714  0.00000000       0.014
   0.38095238  0.19047619  0.00000000       0.014
   0.42857143  0.19047619  0.00000000       0.027
   0.47619048  0.19047619  0.00000000       0.027
  -0.47619048  0.19047619  0.00000000       0.027
  -0.42857143  0.19047619  0.00000000       0.027
   0.47619048  0.23809524  0.00000000       0.014
  -0.47619048  0.23809524  0.00000000       0.027
  -0.42857143  0.23809524  0.00000000       0.027
  -0.38095238  0.23809524  0.00000000       0.014
  -0.42857143  0.28571429  0.00000000       0.014
  -0.38095238  0.28571429  0.00000000       0.027
  -0.33333333  0.33333333  0.00000000       0.005
 
 position of ions in fractional coordinates (direct lattice) 
   0.00000000  0.00000000  0.00000000
   0.33333300  0.33333300  0.00000000
   0.00000000  0.00000000  0.25000000
   0.33333300  0.33333300  0.25000000
 
 position of ions in cartesian coordinates  (Angst):
   0.00000000  0.00000000  0.00000000
   1.41999858  0.00000000  0.00000000
   0.00000000  0.00000000  5.00000000
   1.41999858  0.00000000  5.00000000
 


--------------------------------------------------------------------------------------------------------


 k-point  1 :   0.0000 0.0000 0.0000  plane waves:    5409
 k-point  2 :   0.0476 0.0000 0.0000  plane waves:    5413
 k-point  3 :   0.0952 0.0000 0.0000  plane waves:    5402
 k-point  4 :   0.1429 0.0000 0.0000  plane waves:    5398
 k-point  5 :   0.1905 0.0000 0.0000  plane waves:    5404
 k-point  6 :   0.2381 0.0000 0.0000  plane waves:    5408
 k-point  7 :   0.2857 0.0000 0.0000  plane waves:    5404
 k-point  8 :   0.3333 0.0000 0.0000  plane waves:    5394
 k-point  9 :   0.3810 0.0000 0.0000  plane waves:    5382
 k-point 10 :   0.4286 0.0000 0.0000  plane waves:    5396
 k-point 11 :   0.4762 0.0000 0.0000  plane waves:    5380
 k-point 12 :   0.0952 0.0476 0.0000  plane waves:    5411
 k-point 13 :   0.1429 0.0476 0.0000  plane waves:    5415
 k-point 14 :   0.1905 0.0476 0.0000  plane waves:    5413
 k-point 15 :   0.2381 0.0476 0.0000  plane waves:    5399
 k-point 16 :   0.2857 0.0476 0.0000  plane waves:    5396
 k-point 17 :   0.3333 0.0476 0.0000  plane waves:    5389
 k-point 18 :   0.3810 0.0476 0.0000  plane waves:    5378
 k-point 19 :   0.4286 0.0476 0.0000  plane waves:    5381
 k-point 20 :   0.4762 0.0476 0.0000  plane waves:    5391
 k-point 21 :  -0.4762 0.0476 0.0000  plane waves:    5394
 k-point 22 :   0.1905 0.0952 0.0000  plane waves:    5403
 k-point 23 :   0.2381 0.0952 0.0000  plane waves:    5409
 k-point 24 :   0.2857 0.0952 0.0000  plane waves:    5419
 k-point 25 :   0.3333 0.0952 0.0000  plane waves:    5384
 k-point 26 :   0.3810 0.0952 0.0000  plane waves:    5369
 k-point 27 :   0.4286 0.0952 0.0000  plane waves:    5364
 k-point 28 :   0.4762 0.0952 0.0000  plane waves:    5382
 k-point 29 :  -0.4762 0.0952 0.0000  plane waves:    5404
 k-point 30 :   0.2857 0.1429 0.0000  plane waves:    5405
 k-point 31 :   0.3333 0.1429 0.0000  plane waves:    5404
 k-point 32 :   0.3810 0.1429 0.0000  plane waves:    5382
 k-point 33 :   0.4286 0.1429 0.0000  plane waves:    5347
 k-point 34 :   0.4762 0.1429 0.0000  plane waves:    5367
 k-point 35 :  -0.4762 0.1429 0.0000  plane waves:    5376
 k-point 36 :  -0.4286 0.1429 0.0000  plane waves:    5400
 k-point 37 :   0.3810 0.1905 0.0000  plane waves:    5390
 k-point 38 :   0.4286 0.1905 0.0000  plane waves:    5358
 k-point 39 :   0.4762 0.1905 0.0000  plane waves:    5365
 k-point 40 :  -0.4762 0.1905 0.0000  plane waves:    5363
 k-point 41 :  -0.4286 0.1905 0.0000  plane waves:    5377
 k-point 42 :   0.4762 0.2381 0.0000  plane waves:    5364
 k-point 43 :  -0.4762 0.2381 0.0000  plane waves:    5368
 k-point 44 :  -0.4286 0.2381 0.0000  plane waves:    5360
 k-point 45 :  -0.3810 0.2381 0.0000  plane waves:    5366
 k-point 46 :  -0.4286 0.2857 0.0000  plane waves:    5362
 k-point 47 :  -0.3810 0.2857 0.0000  plane waves:    5326
 k-point 48 :  -0.3333 0.3333 0.0000  plane waves:    5334

 maximum and minimum number of plane-waves per node :      5419     5326

 maximum number of plane-waves:      5419
 maximum index in each direction: 
   IXMAX=    6   IYMAX=    5   IZMAX=   46
   IXMIN=   -6   IYMIN=   -5   IZMIN=  -46


 serial   3D FFT for wavefunctions
 parallel 3D FFT for charge:
    minimum data exchange during FFTs selected (reduces bandwidth)


 total amount of memory used by VASP MPI-rank0   107376. kBytes
=======================================================================

   base      :      30000. kBytes
   nonl-proj :      16997. kBytes
   fftplans  :      32720. kBytes
   grid      :      15086. kBytes
   one-center:         12. kBytes
   wavefun   :      12561. kBytes
 
     INWAV:  cpu time    0.0000: real time    0.0001
 Broyden mixing: mesh for mixing (old mesh)
   NGX = 11   NGY = 11   NGZ = 93
  (NGX  = 48   NGY  = 48   NGZ  =384)
  gives a total of  11253 points

 initial charge density was supplied:
 charge density of overlapping atoms calculated
 number of electron      16.0000000 magnetization 
 keeping initial charge density in first step


--------------------------------------------------------------------------------------------------------


 Maximum index for augmentation-charges        24105 (set IRDMAX)


--------------------------------------------------------------------------------------------------------


 First call to EWALD:  gamma=   0.376
 Maximum number of real-space cells 5x 5x 1
 Maximum number of reciprocal cells 2x 2x10

    FEWALD:  cpu time    0.0011: real time    0.0011


--------------------------------------- Iteration      1(   1)  ---------------------------------------


    POTLOK:  cpu time    0.0841: real time    0.1037
    SETDIJ:  cpu time    0.0388: real time    0.0389
     EDDAV:  cpu time    1.4116: real time    1.4160
       DOS:  cpu time    0.0011: real time    0.0011
    --------------------------------------------
      LOOP:  cpu time    1.5355: real time    1.5596

 eigenvalue-minimisations  :  1152
 total energy-change (2. order) : 0.1277320E+03  (-0.8079346E+03)
 number of electron      16.0000000 magnetization 
 augmentation part       16.0000000 magnetization 

 Free energy of the ion-electron system (eV)
  ---------------------------------------------------
  alpha Z        PSCENC =        12.54445055
  Ewald energy   TEWEN  =      2145.51726299
  -Hartree energ DENC   =     -2607.28434386
  -exchange      EXHF   =         0.00000000
  -V(xc)+E(xc)   XCENC  =        52.79485799
  PAW double counting   =       434.08818552     -436.36580876
  entropy T*S    EENTRO =        -0.00000000
  eigenvalues    EBANDS =       -62.18033464
  atomic energy  EATOM  =       588.61769381
  Solvation  Ediel_sol  =         0.00000000
  ---------------------------------------------------
  free energy    TOTEN  =       127.73196360 eV

  energy without entropy =      127.73196360  energy(sigma->0) =      127.73196360


--------------------------------------------------------------------------------------------------------




--------------------------------------- Iteration      1(   2)  ---------------------------------------


     EDDAV:  cpu time    1.9788: real time    1.9868
       DOS:  cpu time    0.0013: real time    0.0013
    --------------------------------------------
      LOOP:  cpu time    1.9801: real time    1.9881

 eigenvalue-minimisations  :  1880
 total energy-change (2. order) :-0.1528929E+03  (-0.1389081E+03)
 number of electron      16.0000000 magnetization 
 augmentation part       16.0000000 magnetization 

 Free energy of the ion-electron system (eV)
  ---------------------------------------------------
  alpha Z        PSCENC =        12.54445055
  Ewald energy   TEWEN  =      2145.51726299
  -Hartree energ DENC   =     -2607.28434386
  -exchange      EXHF   =         0.00000000
  -V(xc)+E(xc)   XCENC  =        52.79485799
  PAW double counting   =       434.08818552     -436.36580876
  entropy T*S    EENTRO =        -0.00012229
  eigenvalues    EBANDS =      -215.07315194
  atomic energy  EATOM  =       588.61769381
  Solvation  Ediel_sol  =         0.00000000
  ---------------------------------------------------
  free energy    TOTEN  =       -25.16097599 eV

  energy without entropy =      -25.16085370  energy(sigma->0) =      -25.16091485


--------------------------------------------------------------------------------------------------------




--------------------------------------- Iteration      1(   3)  ---------------------------------------


     EDDAV:  cpu time    1.6129: real time    1.6176
       DOS:  cpu time    0.0013: real time    0.0013
    --------------------------------------------
      LOOP:  cpu time    1.6142: real time    1.6189

 eigenvalue-minimisations  :  1440
 total energy-change (2. order) :-0.1405490E+02  (-0.1350073E+02)
 number of electron      16.0000000 magnetization 
 augmentation part       16.0000000 magnetization 

 Free energy of the ion-electron system (eV)
  ---------------------------------------------------
  alpha Z        PSCENC =        12.54445055
  Ewald energy   TEWEN  =      2145.51726299
  -Hartree energ DENC   =     -2607.28434386
  -exchange      EXHF   =         0.00000000
  -V(xc)+E(xc)   XCENC  =        52.79485799
  PAW double counting   =       434.08818552     -436.36580876
  entropy T*S    EENTRO =        -0.00002799
  eigenvalues    EBANDS =      -229.12814405
  atomic energy  EATOM  =       588.61769381
  Solvation  Ediel_sol  =         0.00000000
  ---------------------------------------------------
  free energy    TOTEN  =       -39.21587380 eV

  energy without entropy =      -39.21584581  energy(sigma->0) =      -39.21585981


--------------------------------------------------------------------------------------------------------




--------------------------------------- Iteration      1(   4)  ---------------------------------------


     EDDAV:  cpu time    1.6331: real time    1.6379
       DOS:  cpu time    0.0013: real time    0.0013
    --------------------------------------------
      LOOP:  cpu time    1.6344: real time    1.6392

 eigenvalue-minimisations  :  1460
 total energy-change (2. order) :-0.3076607E+00  (-0.3069708E+00)
 number of electron      16.0000000 magnetization 
 augmentation part       16.0000000 magnetization 

 Free energy of the ion-electron system (eV)
  ---------------------------------------------------
  alpha Z        PSCENC =        12.54445055
  Ewald energy   TEWEN  =      2145.51726299
  -Hartree energ DENC   =     -2607.28434386
  -exchange      EXHF   =         0.00000000
  -V(xc)+E(xc)   XCENC  =        52.79485799
  PAW double counting   =       434.08818552     -436.36580876
  entropy T*S    EENTRO =        -0.00005173
  eigenvalues    EBANDS =      -229.43578097
  atomic energy  EATOM  =       588.61769381
  Solvation  Ediel_sol  =         0.00000000
  ---------------------------------------------------
  free energy    TOTEN  =       -39.52353446 eV

  energy without entropy =      -39.52348274  energy(sigma->0) =      -39.52350860


--------------------------------------------------------------------------------------------------------




--------------------------------------- Iteration      1(   5)  ---------------------------------------


     EDDAV:  cpu time    1.6406: real time    1.6455
       DOS:  cpu time    0.0012: real time    0.0012
    CHARGE:  cpu time    0.1760: real time    0.1765
    MIXING:  cpu time    0.0025: real time    0.0025
    --------------------------------------------
      LOOP:  cpu time    1.8204: real time    1.8257

 eigenvalue-minimisations  :  1472
 total energy-change (2. order) :-0.8985616E-02  (-0.8964293E-02)
 number of electron      16.0000000 magnetization 
 augmentation part        0.4282857 magnetization 

 Broyden mixing:
  rms(total) = 0.90194E+00    rms(broyden)= 0.90193E+00
  rms(prec ) = 0.96457E+00
  weight for this iteration     100.00

 Free energy of the ion-electron system (eV)
  ---------------------------------------------------
  alpha Z        PSCENC =        12.54445055
  Ewald energy   TEWEN  =      2145.51726299
  -Hartree energ DENC   =     -2607.28434386
  -exchange      EXHF   =         0.00000000
  -V(xc)+E(xc)   XCENC  =        52.79485799
  PAW double counting   =       434.08818552     -436.36580876
  entropy T*S    EENTRO =        -0.00005012
  eigenvalues    EBANDS =      -229.44476820
  atomic energy  EATOM  =       588.61769381
  Solvation  Ediel_sol  =         0.00000000
  ---------------------------------------------------
  free energy    TOTEN  =       -39.53252008 eV

  energy without entropy =      -39.53246996  energy(sigma->0) =      -39.53249502


--------------------------------------------------------------------------------------------------------




--------------------------------------- Iteration      1(   6)  ---------------------------------------


    POTLOK:  cpu time    0.0733: real time    0.0735
    SETDIJ:  cpu time    0.0349: real time    0.0350
     EDDAV:  cpu time    1.5908: real time    1.5955
       DOS:  cpu time    0.0013: real time    0.0013
    CHARGE:  cpu time    0.1761: real time    0.1765
    MIXING:  cpu time    0.0031: real time    0.0031
    --------------------------------------------
      LOOP:  cpu time    1.8793: real time    1.8849

 eigenvalue-minimisations  :  1364
 total energy-change (2. order) : 0.1880089E+01  (-0.1724446E+00)
 number of electron      16.0000000 magnetization 
 augmentation part        0.4094942 magnetization 

 Broyden mixing:
  rms(total) = 0.52947E+00    rms(broyden)= 0.52947E+00
  rms(prec ) = 0.56062E+00
  weight for this iteration     100.00

 eigenvalues of (default mixing * dielectric matrix)
  average eigenvalue GAMMA=   2.2058
  2.2058

 Free energy of the ion-electron system (eV)
  ---------------------------------------------------
  alpha Z        PSCENC =        12.54445055
  Ewald energy   TEWEN  =      2145.51726299
  -Hartree energ DENC   =     -2628.15658455
  -exchange      EXHF   =         0.00000000
  -V(xc)+E(xc)   XCENC  =        53.77748612
  PAW double counting   =       803.53484985     -806.11168018
  entropy T*S    EENTRO =        -0.00002573
  eigenvalues    EBANDS =      -207.37588427
  atomic energy  EATOM  =       588.61769381
  Solvation  Ediel_sol  =         0.00000000
  ---------------------------------------------------
  free energy    TOTEN  =       -37.65243141 eV

  energy without entropy =      -37.65240567  energy(sigma->0) =      -37.65241854


--------------------------------------------------------------------------------------------------------




--------------------------------------- Iteration      1(   7)  ---------------------------------------


    POTLOK:  cpu time    0.0726: real time    0.0728
    SETDIJ:  cpu time    0.0354: real time    0.0355
     EDDAV:  cpu time    1.6251: real time    1.6298
       DOS:  cpu time    0.0013: real time    0.0013
    CHARGE:  cpu time    0.1701: real time    0.1705
    MIXING:  cpu time    0.0028: real time    0.0029
    --------------------------------------------
      LOOP:  cpu time    1.9073: real time    1.9127

 eigenvalue-minimisations  :  1412
 total energy-change (2. order) : 0.7140438E+00  (-0.2330412E+00)
 number of electron      16.0000000 magnetization 
 augmentation part        0.3871989 magnetization 

 Broyden mixing:
  rms(total) = 0.13775E+00    rms(broyden)= 0.13775E+00
  rms(prec ) = 0.14251E+00
  weight for this iteration     100.00

 eigenvalues of (default mixing * dielectric matrix)
  average eigenvalue GAMMA=   2.2825
  2.2047  2.3604

 Free energy of the ion-electron system (eV)
  ---------------------------------------------------
  alpha Z        PSCENC =        12.54445055
  Ewald energy   TEWEN  =      2145.51726299
  -Hartree energ DENC   =     -2655.50075812
  -exchange      EXHF   =         0.00000000
  -V(xc)+E(xc)   XCENC  =        55.08504621
  PAW double counting   =      1523.39269178    -1526.23530488
  entropy T*S    EENTRO =        -0.00000526
  eigenvalues    EBANDS =      -180.35946472
  atomic energy  EATOM  =       588.61769381
  Solvation  Ediel_sol  =         0.00000000
  ---------------------------------------------------
  free energy    TOTEN  =       -36.93838765 eV

  energy without entropy =      -36.93838238  energy(sigma->0) =      -36.93838501


--------------------------------------------------------------------------------------------------------




--------------------------------------- Iteration      1(   8)  ---------------------------------------


    POTLOK:  cpu time    0.0711: real time    0.0713
    SETDIJ:  cpu time    0.0349: real time    0.0350
     EDDAV:  cpu time    1.6426: real time    1.6473
       DOS:  cpu time    0.0013: real time    0.0013
    CHARGE:  cpu time    0.1703: real time    0.1708
    MIXING:  cpu time    0.0028: real time    0.0028
    --------------------------------------------
      LOOP:  cpu time    1.9229: real time    1.9284

 eigenvalue-minimisations  :  1436
 total energy-change (2. order) :-0.1719745E-03  (-0.6906213E-02)
 number of electron      16.0000000 magnetization 
 augmentation part        0.3859423 magnetization 

 Broyden mixing:
  rms(total) = 0.13262E-01    rms(broyden)= 0.13262E-01
  rms(prec ) = 0.25874E-01
  weight for this iteration     100.00

 eigenvalues of (default mixing * dielectric matrix)
  average eigenvalue GAMMA=   1.7955
  0.9279  2.2293  2.2293

 Free energy of the ion-electron system (eV)
  ---------------------------------------------------
  alpha Z        PSCENC =        12.54445055
  Ewald energy   TEWEN  =      2145.51726299
  -Hartree energ DENC   =     -2657.62696847
  -exchange      EXHF   =         0.00000000
  -V(xc)+E(xc)   XCENC  =        55.08921115
  PAW double counting   =      1710.17466881    -1712.90003001
  entropy T*S    EENTRO =        -0.00000587
  eigenvalues    EBANDS =      -178.35484258
  atomic energy  EATOM  =       588.61769381
  Solvation  Ediel_sol  =         0.00000000
  ---------------------------------------------------
  free energy    TOTEN  =       -36.93855962 eV

  energy without entropy =      -36.93855375  energy(sigma->0) =      -36.93855669


--------------------------------------------------------------------------------------------------------




--------------------------------------- Iteration      1(   9)  ---------------------------------------


    POTLOK:  cpu time    0.0708: real time    0.0710
    SETDIJ:  cpu time    0.0346: real time    0.0347
     EDDAV:  cpu time    1.6653: real time    1.6701
       DOS:  cpu time    0.0013: real time    0.0013
    CHARGE:  cpu time    0.1701: real time    0.1705
    MIXING:  cpu time    0.0031: real time    0.0031
    --------------------------------------------
      LOOP:  cpu time    1.9452: real time    1.9507

 eigenvalue-minimisations  :  1464
 total energy-change (2. order) : 0.1173895E-02  (-0.1836307E-03)
 number of electron      16.0000000 magnetization 
 augmentation part        0.3855401 magnetization 

 Broyden mixing:
  rms(total) = 0.93366E-02    rms(broyden)= 0.93365E-02
  rms(prec ) = 0.22647E-01
  weight for this iteration     100.00

 eigenvalues of (default mixing * dielectric matrix)
  average eigenvalue GAMMA=   2.1327
  1.0025  2.7941  2.7941  1.9399

 Free energy of the ion-electron system (eV)
  ---------------------------------------------------
  alpha Z        PSCENC =        12.54445055
  Ewald energy   TEWEN  =      2145.51726299
  -Hartree energ DENC   =     -2658.54039771
  -exchange      EXHF   =         0.00000000
  -V(xc)+E(xc)   XCENC  =        55.11165725
  PAW double counting   =      1704.02074957    -1706.75014787
  entropy T*S    EENTRO =        -0.00000578
  eigenvalues    EBANDS =      -177.45864853
  atomic energy  EATOM  =       588.61769381
  Solvation  Ediel_sol  =         0.00000000
  ---------------------------------------------------
  free energy    TOTEN  =       -36.93738573 eV

  energy without entropy =      -36.93737995  energy(sigma->0) =      -36.93738284


--------------------------------------------------------------------------------------------------------




--------------------------------------- Iteration      1(  10)  ---------------------------------------


    POTLOK:  cpu time    0.0708: real time    0.0711
    SETDIJ:  cpu time    0.0345: real time    0.0346
     EDDAV:  cpu time    1.5790: real time    1.5836
       DOS:  cpu time    0.0013: real time    0.0013
    CHARGE:  cpu time    0.1705: real time    0.1709
    MIXING:  cpu time    0.0032: real time    0.0033
    --------------------------------------------
      LOOP:  cpu time    1.8594: real time    1.8647

 eigenvalue-minimisations  :  1356
 total energy-change (2. order) : 0.3970036E-02  (-0.2462117E-03)
 number of electron      16.0000000 magnetization 
 augmentation part        0.3851072 magnetization 

 Broyden mixing:
  rms(total) = 0.68702E-02    rms(broyden)= 0.68701E-02
  rms(prec ) = 0.17843E-01
  weight for this iteration     100.00

 eigenvalues of (default mixing * dielectric matrix)
  average eigenvalue GAMMA=   1.8736
  3.2801  2.5585  1.9844  0.9953  0.5496

 Free energy of the ion-electron system (eV)
  ---------------------------------------------------
  alpha Z        PSCENC =        12.54445055
  Ewald energy   TEWEN  =      2145.51726299
  -Hartree energ DENC   =     -2661.71239120
  -exchange      EXHF   =         0.00000000
  -V(xc)+E(xc)   XCENC  =        55.16262934
  PAW double counting   =      1690.24314251    -1692.96577584
  entropy T*S    EENTRO =        -0.00000162
  eigenvalues    EBANDS =      -174.34042622
  atomic energy  EATOM  =       588.61769381
  Solvation  Ediel_sol  =         0.00000000
  ---------------------------------------------------
  free energy    TOTEN  =       -36.93341569 eV

  energy without entropy =      -36.93341407  energy(sigma->0) =      -36.93341488


--------------------------------------------------------------------------------------------------------




--------------------------------------- Iteration      1(  11)  ---------------------------------------


    POTLOK:  cpu time    0.0716: real time    0.0718
    SETDIJ:  cpu time    0.0350: real time    0.0350
     EDDAV:  cpu time    1.5237: real time    1.5281
       DOS:  cpu time    0.0013: real time    0.0013
    CHARGE:  cpu time    0.1716: real time    0.1720
    MIXING:  cpu time    0.0029: real time    0.0029
    --------------------------------------------
      LOOP:  cpu time    1.8060: real time    1.8111

 eigenvalue-minimisations  :  1292
 total energy-change (2. order) : 0.9870376E-03  (-0.4685645E-04)
 number of electron      16.0000000 magnetization 
 augmentation part        0.3848972 magnetization 

 Broyden mixing:
  rms(total) = 0.55285E-02    rms(broyden)= 0.55285E-02
  rms(prec ) = 0.15308E-01
  weight for this iteration     100.00

 eigenvalues of (default mixing * dielectric matrix)
  average eigenvalue GAMMA=   1.7553
  3.3662  2.3597  2.0640  1.0734  1.0734  0.5948

 Free energy of the ion-electron system (eV)
  ---------------------------------------------------
  alpha Z        PSCENC =        12.54445055
  Ewald energy   TEWEN  =      2145.51726299
  -Hartree energ DENC   =     -2662.87439103
  -exchange      EXHF   =         0.00000000
  -V(xc)+E(xc)   XCENC  =        55.18007830
  PAW double counting   =      1692.49266941    -1695.21385044
  entropy T*S    EENTRO =        -0.00000506
  eigenvalues    EBANDS =      -173.19633718
  atomic energy  EATOM  =       588.61769381
  Solvation  Ediel_sol  =         0.00000000
  ---------------------------------------------------
  free energy    TOTEN  =       -36.93242865 eV

  energy without entropy =      -36.93242359  energy(sigma->0) =      -36.93242612


--------------------------------------------------------------------------------------------------------




--------------------------------------- Iteration      1(  12)  ---------------------------------------


    POTLOK:  cpu time    0.0684: real time    0.0687
    SETDIJ:  cpu time    0.0344: real time    0.0345
     EDDAV:  cpu time    1.4607: real time    1.4650
       DOS:  cpu time    0.0013: real time    0.0013
    CHARGE:  cpu time    0.1778: real time    0.1782
    MIXING:  cpu time    0.0038: real time    0.0038
    --------------------------------------------
      LOOP:  cpu time    1.7464: real time    1.7515

 eigenvalue-minimisations  :  1208
 total energy-change (2. order) : 0.2954033E-02  (-0.1638108E-03)
 number of electron      16.0000000 magnetization 
 augmentation part        0.3845776 magnetization 

 Broyden mixing:
  rms(total) = 0.10151E-01    rms(broyden)= 0.10151E-01
  rms(prec ) = 0.13978E-01
  weight for this iteration     100.00

 eigenvalues of (default mixing * dielectric matrix)
  average eigenvalue GAMMA=   2.1061
  4.7597  2.9918  2.3307  2.0547  1.0180  1.0180  0.5701

 Free energy of the ion-electron system (eV)
  ---------------------------------------------------
  alpha Z        PSCENC =        12.54445055
  Ewald energy   TEWEN  =      2145.51726299
  -Hartree energ DENC   =     -2665.64924201
  -exchange      EXHF   =         0.00000000
  -V(xc)+E(xc)   XCENC  =        55.19393505
  PAW double counting   =      1713.72377707    -1716.44989880
  entropy T*S    EENTRO =        -0.00000480
  eigenvalues    EBANDS =      -170.42744848
  atomic energy  EATOM  =       588.61769381
  Solvation  Ediel_sol  =         0.00000000
  ---------------------------------------------------
  free energy    TOTEN  =       -36.92947462 eV

  energy without entropy =      -36.92946982  energy(sigma->0) =      -36.92947222


--------------------------------------------------------------------------------------------------------




--------------------------------------- Iteration      1(  13)  ---------------------------------------


    POTLOK:  cpu time    0.0676: real time    0.0679
    SETDIJ:  cpu time    0.0355: real time    0.0356
     EDDAV:  cpu time    1.5400: real time    1.5445
       DOS:  cpu time    0.0013: real time    0.0013
    CHARGE:  cpu time    0.1716: real time    0.1720
    MIXING:  cpu time    0.0032: real time    0.0032
    --------------------------------------------
      LOOP:  cpu time    1.8192: real time    1.8244

 eigenvalue-minimisations  :  1316
 total energy-change (2. order) : 0.1883427E-02  (-0.5890804E-04)
 number of electron      16.0000000 magnetization 
 augmentation part        0.3847050 magnetization 

 Broyden mixing:
  rms(total) = 0.39782E-02    rms(broyden)= 0.39782E-02
  rms(prec ) = 0.71795E-02
  weight for this iteration     100.00

 eigenvalues of (default mixing * dielectric matrix)
  average eigenvalue GAMMA=   2.3314
  5.4997  3.4605  2.7892  2.3378  1.9471  1.0236  1.0236  0.5698

 Free energy of the ion-electron system (eV)
  ---------------------------------------------------
  alpha Z        PSCENC =        12.54445055
  Ewald energy   TEWEN  =      2145.51726299
  -Hartree energ DENC   =     -2667.54015234
  -exchange      EXHF   =         0.00000000
  -V(xc)+E(xc)   XCENC  =        55.18423317
  PAW double counting   =      1696.15916668    -1698.88500063
  entropy T*S    EENTRO =        -0.00000587
  eigenvalues    EBANDS =      -168.52523954
  atomic energy  EATOM  =       588.61769381
  Solvation  Ediel_sol  =         0.00000000
  ---------------------------------------------------
  free energy    TOTEN  =       -36.92759119 eV

  energy without entropy =      -36.92758532  energy(sigma->0) =      -36.92758826


--------------------------------------------------------------------------------------------------------




--------------------------------------- Iteration      1(  14)  ---------------------------------------


    POTLOK:  cpu time    0.0652: real time    0.0655
    SETDIJ:  cpu time    0.0340: real time    0.0340
     EDDAV:  cpu time    1.5357: real time    1.5401
       DOS:  cpu time    0.0013: real time    0.0013
    CHARGE:  cpu time    0.1708: real time    0.1712
    MIXING:  cpu time    0.0033: real time    0.0033
    --------------------------------------------
      LOOP:  cpu time    1.8101: real time    1.8153

 eigenvalue-minimisations  :  1312
 total energy-change (2. order) :-0.1050679E-02  (-0.3159768E-04)
 number of electron      16.0000000 magnetization 
 augmentation part        0.3847761 magnetization 

 Broyden mixing:
  rms(total) = 0.38102E-02    rms(broyden)= 0.38102E-02
  rms(prec ) = 0.52987E-02
  weight for this iteration     100.00

 eigenvalues of (default mixing * dielectric matrix)
  average eigenvalue GAMMA=   2.6997
 10.0030  3.6859  2.6190  2.4274  2.0332  1.0166  0.9704  0.9704  0.5712

 Free energy of the ion-electron system (eV)
  ---------------------------------------------------
  alpha Z        PSCENC =        12.54445055
  Ewald energy   TEWEN  =      2145.51726299
  -Hartree energ DENC   =     -2668.97865832
  -exchange      EXHF   =         0.00000000
  -V(xc)+E(xc)   XCENC  =        55.18218276
  PAW double counting   =      1700.92873684    -1703.64848185
  entropy T*S    EENTRO =        -0.00000537
  eigenvalues    EBANDS =      -167.09182328
  atomic energy  EATOM  =       588.61769381
  Solvation  Ediel_sol  =         0.00000000
  ---------------------------------------------------
  free energy    TOTEN  =       -36.92864187 eV

  energy without entropy =      -36.92863650  energy(sigma->0) =      -36.92863919


--------------------------------------------------------------------------------------------------------




--------------------------------------- Iteration      1(  15)  ---------------------------------------


    POTLOK:  cpu time    0.0656: real time    0.0685
    SETDIJ:  cpu time    0.0341: real time    0.0342
     EDDAV:  cpu time    1.5556: real time    1.5601
       DOS:  cpu time    0.0013: real time    0.0013
    CHARGE:  cpu time    0.1732: real time    0.1736
    MIXING:  cpu time    0.0033: real time    0.0033
    --------------------------------------------
      LOOP:  cpu time    1.8331: real time    1.8411

 eigenvalue-minimisations  :  1340
 total energy-change (2. order) :-0.4053830E-03  (-0.3410395E-05)
 number of electron      16.0000000 magnetization 
 augmentation part        0.3847342 magnetization 

 Broyden mixing:
  rms(total) = 0.15630E-02    rms(broyden)= 0.15630E-02
  rms(prec ) = 0.27836E-02
  weight for this iteration     100.00

 eigenvalues of (default mixing * dielectric matrix)
  average eigenvalue GAMMA=   3.0732
 13.4514  3.9718  3.0250  2.6453  1.9952  1.9952  0.9781  1.0496  1.0496  0.5714

 Free energy of the ion-electron system (eV)
  ---------------------------------------------------
  alpha Z        PSCENC =        12.54445055
  Ewald energy   TEWEN  =      2145.51726299
  -Hartree energ DENC   =     -2669.34362888
  -exchange      EXHF   =         0.00000000
  -V(xc)+E(xc)   XCENC  =        55.18353600
  PAW double counting   =      1695.90993446    -1698.63202045
  entropy T*S    EENTRO =        -0.00000611
  eigenvalues    EBANDS =      -166.72626962
  atomic energy  EATOM  =       588.61769381
  Solvation  Ediel_sol  =         0.00000000
  ---------------------------------------------------
  free energy    TOTEN  =       -36.92904725 eV

  energy without entropy =      -36.92904115  energy(sigma->0) =      -36.92904420


--------------------------------------------------------------------------------------------------------




--------------------------------------- Iteration      1(  16)  ---------------------------------------


    POTLOK:  cpu time    0.0665: real time    0.0667
    SETDIJ:  cpu time    0.0341: real time    0.0341
     EDDAV:  cpu time    1.5014: real time    1.5058
       DOS:  cpu time    0.0012: real time    0.0012
    CHARGE:  cpu time    0.1746: real time    0.1750
    MIXING:  cpu time    0.0040: real time    0.0040
    --------------------------------------------
      LOOP:  cpu time    1.7817: real time    1.7868

 eigenvalue-minimisations  :  1268
 total energy-change (2. order) :-0.8083410E-03  (-0.1258222E-04)
 number of electron      16.0000000 magnetization 
 augmentation part        0.3847010 magnetization 

 Broyden mixing:
  rms(total) = 0.15258E-02    rms(broyden)= 0.15258E-02
  rms(prec ) = 0.20944E-02
  weight for this iteration     100.00

 eigenvalues of (default mixing * dielectric matrix)
  average eigenvalue GAMMA=   3.6754
 19.4536  5.8383  3.3053  2.5382  2.5382  2.0539  1.0523  1.0523  0.9517  1.0737
  0.5716

 Free energy of the ion-electron system (eV)
  ---------------------------------------------------
  alpha Z        PSCENC =        12.54445055
  Ewald energy   TEWEN  =      2145.51726299
  -Hartree energ DENC   =     -2669.77531465
  -exchange      EXHF   =         0.00000000
  -V(xc)+E(xc)   XCENC  =        55.18510871
  PAW double counting   =      1693.58591438    -1696.30835309
  entropy T*S    EENTRO =        -0.00000575
  eigenvalues    EBANDS =      -166.29661255
  atomic energy  EATOM  =       588.61769381
  Solvation  Ediel_sol  =         0.00000000
  ---------------------------------------------------
  free energy    TOTEN  =       -36.92985560 eV

  energy without entropy =      -36.92984985  energy(sigma->0) =      -36.92985272


--------------------------------------------------------------------------------------------------------




--------------------------------------- Iteration      1(  17)  ---------------------------------------


    POTLOK:  cpu time    0.0681: real time    0.0709
    SETDIJ:  cpu time    0.0341: real time    0.0342
     EDDAV:  cpu time    1.5349: real time    1.5394
       DOS:  cpu time    0.0013: real time    0.0013
    CHARGE:  cpu time    0.1749: real time    0.1753
    MIXING:  cpu time    0.0039: real time    0.0039
    --------------------------------------------
      LOOP:  cpu time    1.8172: real time    1.8250

 eigenvalue-minimisations  :  1320
 total energy-change (2. order) :-0.9181203E-04  (-0.1059925E-05)
 number of electron      16.0000000 magnetization 
 augmentation part        0.3846824 magnetization 

 Broyden mixing:
  rms(total) = 0.53462E-03    rms(broyden)= 0.53459E-03
  rms(prec ) = 0.81956E-03
  weight for this iteration     100.00

 eigenvalues of (default mixing * dielectric matrix)
  average eigenvalue GAMMA=   3.8110
 22.1967  6.5906  3.5189  2.7379  2.4818  2.0262  1.6381  0.5717  1.0650  1.0650
  0.9575  0.8831

 Free energy of the ion-electron system (eV)
  ---------------------------------------------------
  alpha Z        PSCENC =        12.54445055
  Ewald energy   TEWEN  =      2145.51726299
  -Hartree energ DENC   =     -2669.85830453
  -exchange      EXHF   =         0.00000000
  -V(xc)+E(xc)   XCENC  =        55.18535287
  PAW double counting   =      1695.99113214    -1698.71387602
  entropy T*S    EENTRO =        -0.00000598
  eigenvalues    EBANDS =      -166.21365324
  atomic energy  EATOM  =       588.61769381
  Solvation  Ediel_sol  =         0.00000000
  ---------------------------------------------------
  free energy    TOTEN  =       -36.92994741 eV

  energy without entropy =      -36.92994143  energy(sigma->0) =      -36.92994442


--------------------------------------------------------------------------------------------------------




--------------------------------------- Iteration      1(  18)  ---------------------------------------


    POTLOK:  cpu time    0.0669: real time    0.0671
    SETDIJ:  cpu time    0.0351: real time    0.0351
     EDDAV:  cpu time    1.5231: real time    1.5276
       DOS:  cpu time    0.0013: real time    0.0013
    CHARGE:  cpu time    0.1740: real time    0.1744
    MIXING:  cpu time    0.0039: real time    0.0039
    --------------------------------------------
      LOOP:  cpu time    1.8042: real time    1.8094

 eigenvalue-minimisations  :  1308
 total energy-change (2. order) :-0.1589991E-04  (-0.1891549E-06)
 number of electron      16.0000000 magnetization 
 augmentation part        0.3846840 magnetization 

 Broyden mixing:
  rms(total) = 0.19796E-03    rms(broyden)= 0.19796E-03
  rms(prec ) = 0.23392E-03
  weight for this iteration     100.00

 eigenvalues of (default mixing * dielectric matrix)
  average eigenvalue GAMMA=   3.7001
 22.6592  6.7545  3.5646  2.7520  2.4588  2.1296  2.1296  0.5717  1.2217  0.9913
  1.0061  1.0061  0.8565

 Free energy of the ion-electron system (eV)
  ---------------------------------------------------
  alpha Z        PSCENC =        12.54445055
  Ewald energy   TEWEN  =      2145.51726299
  -Hartree energ DENC   =     -2669.89423467
  -exchange      EXHF   =         0.00000000
  -V(xc)+E(xc)   XCENC  =        55.18511675
  PAW double counting   =      1695.73645056    -1698.45920136
  entropy T*S    EENTRO =        -0.00000603
  eigenvalues    EBANDS =      -166.17749590
  atomic energy  EATOM  =       588.61769381
  Solvation  Ediel_sol  =         0.00000000
  ---------------------------------------------------
  free energy    TOTEN  =       -36.92996331 eV

  energy without entropy =      -36.92995727  energy(sigma->0) =      -36.92996029


--------------------------------------------------------------------------------------------------------




--------------------------------------- Iteration      1(  19)  ---------------------------------------


    POTLOK:  cpu time    0.0670: real time    0.0697
    SETDIJ:  cpu time    0.0341: real time    0.0342
     EDDAV:  cpu time    1.5592: real time    1.5637
       DOS:  cpu time    0.0012: real time    0.0012
    CHARGE:  cpu time    0.1749: real time    0.1753
    MIXING:  cpu time    0.0040: real time    0.0040
    --------------------------------------------
      LOOP:  cpu time    1.8404: real time    1.8482

 eigenvalue-minimisations  :  1344
 total energy-change (2. order) :-0.3936438E-05  (-0.4701316E-07)
 number of electron      16.0000000 magnetization 
 augmentation part        0.3846841 magnetization 

 Broyden mixing:
  rms(total) = 0.61643E-04    rms(broyden)= 0.61642E-04
  rms(prec ) = 0.70640E-04
  weight for this iteration     100.00

 eigenvalues of (default mixing * dielectric matrix)
  average eigenvalue GAMMA=   3.5667
 22.6886  6.8334  3.5504  2.9605  2.5212  2.2579  2.0772  0.5717  1.2726  1.2726
  1.0229  1.0229  1.0143  0.8677

 Free energy of the ion-electron system (eV)
  ---------------------------------------------------
  alpha Z        PSCENC =        12.54445055
  Ewald energy   TEWEN  =      2145.51726299
  -Hartree energ DENC   =     -2669.89932455
  -exchange      EXHF   =         0.00000000
  -V(xc)+E(xc)   XCENC  =        55.18508928
  PAW double counting   =      1695.59366424    -1698.31636464
  entropy T*S    EENTRO =        -0.00000603
  eigenvalues    EBANDS =      -166.17243289
  atomic energy  EATOM  =       588.61769381
  Solvation  Ediel_sol  =         0.00000000
  ---------------------------------------------------
  free energy    TOTEN  =       -36.92996724 eV

  energy without entropy =      -36.92996121  energy(sigma->0) =      -36.92996423


--------------------------------------------------------------------------------------------------------




--------------------------------------- Iteration      1(  20)  ---------------------------------------


    POTLOK:  cpu time    0.0658: real time    0.0661
    SETDIJ:  cpu time    0.0346: real time    0.0347
     EDDAV:  cpu time    1.5620: real time    1.5665
       DOS:  cpu time    0.0013: real time    0.0013
    CHARGE:  cpu time    0.1742: real time    0.1746
    MIXING:  cpu time    0.0045: real time    0.0045
    --------------------------------------------
      LOOP:  cpu time    1.8424: real time    1.8476

 eigenvalue-minimisations  :  1348
 total energy-change (2. order) :-0.9713958E-06  (-0.9310742E-08)
 number of electron      16.0000000 magnetization 
 augmentation part        0.3846860 magnetization 

 Broyden mixing:
  rms(total) = 0.33355E-04    rms(broyden)= 0.33353E-04
  rms(prec ) = 0.34914E-04
  weight for this iteration     100.00

 eigenvalues of (default mixing * dielectric matrix)
  average eigenvalue GAMMA=   3.4489
 23.0108  6.7722  3.5595  3.0819  2.6407  2.4480  2.0519  1.6817  0.5717  1.0856
  1.0856  0.9667  0.9667  0.9592  0.8512

 Free energy of the ion-electron system (eV)
  ---------------------------------------------------
  alpha Z        PSCENC =        12.54445055
  Ewald energy   TEWEN  =      2145.51726299
  -Hartree energ DENC   =     -2669.89736351
  -exchange      EXHF   =         0.00000000
  -V(xc)+E(xc)   XCENC  =        55.18495195
  PAW double counting   =      1695.65264254    -1698.37527973
  entropy T*S    EENTRO =        -0.00000603
  eigenvalues    EBANDS =      -166.17432079
  atomic energy  EATOM  =       588.61769381
  Solvation  Ediel_sol  =         0.00000000
  ---------------------------------------------------
  free energy    TOTEN  =       -36.92996822 eV

  energy without entropy =      -36.92996218  energy(sigma->0) =      -36.92996520


--------------------------------------------------------------------------------------------------------




--------------------------------------- Iteration      1(  21)  ---------------------------------------


    POTLOK:  cpu time    0.0667: real time    0.0669
    SETDIJ:  cpu time    0.0344: real time    0.0345
     EDDAV:  cpu time    1.3435: real time    1.3476
       DOS:  cpu time    0.0013: real time    0.0013
    CHARGE:  cpu time    0.1772: real time    0.1776
    MIXING:  cpu time    0.0043: real time    0.0043
    --------------------------------------------
      LOOP:  cpu time    1.6273: real time    1.6321

 eigenvalue-minimisations  :  1064
 total energy-change (2. order) :-0.2201512E-06  (-0.1230317E-08)
 number of electron      16.0000000 magnetization 
 augmentation part        0.3846862 magnetization 

 Broyden mixing:
  rms(total) = 0.11957E-04    rms(broyden)= 0.11954E-04
  rms(prec ) = 0.13620E-04
  weight for this iteration     100.00

 eigenvalues of (default mixing * dielectric matrix)
  average eigenvalue GAMMA=   3.3103
 23.0094  6.7785  3.5742  3.0649  2.6484  2.3896  2.0641  1.6010  0.5717  1.1889
  1.1889  1.0610  1.0610  0.9671  0.8980  0.8980

 Free energy of the ion-electron system (eV)
  ---------------------------------------------------
  alpha Z        PSCENC =        12.54445055
  Ewald energy   TEWEN  =      2145.51726299
  -Hartree energ DENC   =     -2669.89714342
  -exchange      EXHF   =         0.00000000
  -V(xc)+E(xc)   XCENC  =        55.18496096
  PAW double counting   =      1695.61580186    -1698.33843622
  entropy T*S    EENTRO =        -0.00000603
  eigenvalues    EBANDS =      -166.17455293
  atomic energy  EATOM  =       588.61769381
  Solvation  Ediel_sol  =         0.00000000
  ---------------------------------------------------
  free energy    TOTEN  =       -36.92996844 eV

  energy without entropy =      -36.92996240  energy(sigma->0) =      -36.92996542


--------------------------------------------------------------------------------------------------------




--------------------------------------- Iteration      1(  22)  ---------------------------------------


    POTLOK:  cpu time    0.0678: real time    0.0681
    SETDIJ:  cpu time    0.0351: real time    0.0352
     EDDAV:  cpu time    1.2631: real time    1.2669
       DOS:  cpu time    0.0013: real time    0.0013
    CHARGE:  cpu time    0.1711: real time    0.1715
    MIXING:  cpu time    0.0043: real time    0.0043
    --------------------------------------------
      LOOP:  cpu time    1.5427: real time    1.5472

 eigenvalue-minimisations  :   964
 total energy-change (2. order) :-0.5964489E-07  (-0.2010575E-09)
 number of electron      16.0000000 magnetization 
 augmentation part        0.3846861 magnetization 

 Broyden mixing:
  rms(total) = 0.57602E-05    rms(broyden)= 0.57542E-05
  rms(prec ) = 0.65901E-05
  weight for this iteration     100.00

 eigenvalues of (default mixing * dielectric matrix)
  average eigenvalue GAMMA=   3.2806
 23.0297  6.7624  3.6442  3.1230  2.9909  2.5421  2.4158  2.0581  0.5717  1.3722
  1.3337  1.0201  1.0201  1.0654  0.9712  0.9712  0.8780

 Free energy of the ion-electron system (eV)
  ---------------------------------------------------
  alpha Z        PSCENC =        12.54445055
  Ewald energy   TEWEN  =      2145.51726299
  -Hartree energ DENC   =     -2669.89744824
  -exchange      EXHF   =         0.00000000
  -V(xc)+E(xc)   XCENC  =        55.18497321
  PAW double counting   =      1695.62071424    -1698.34335312
  entropy T*S    EENTRO =        -0.00000603
  eigenvalues    EBANDS =      -166.17425590
  atomic energy  EATOM  =       588.61769381
  Solvation  Ediel_sol  =         0.00000000
  ---------------------------------------------------
  free energy    TOTEN  =       -36.92996850 eV

  energy without entropy =      -36.92996246  energy(sigma->0) =      -36.92996548


--------------------------------------------------------------------------------------------------------




--------------------------------------- Iteration      1(  23)  ---------------------------------------


    POTLOK:  cpu time    0.0677: real time    0.0679
    SETDIJ:  cpu time    0.0344: real time    0.0345
     EDDAV:  cpu time    1.2249: real time    1.2287
       DOS:  cpu time    0.0013: real time    0.0013
    CHARGE:  cpu time    0.1712: real time    0.1717
    MIXING:  cpu time    0.0048: real time    0.0048
    --------------------------------------------
      LOOP:  cpu time    1.5043: real time    1.5088

 eigenvalue-minimisations  :   916
 total energy-change (2. order) :-0.6103005E-07  (-0.2901722E-09)
 number of electron      16.0000000 magnetization 
 augmentation part        0.3846859 magnetization 

 Broyden mixing:
  rms(total) = 0.30618E-05    rms(broyden)= 0.30504E-05
  rms(prec ) = 0.33649E-05
  weight for this iteration     100.00

 eigenvalues of (default mixing * dielectric matrix)
  average eigenvalue GAMMA=   3.1875
 23.0257  6.7657  3.6106  3.3203  2.8302  2.6330  2.3304  2.1039  1.6187  1.3358
  1.3358  0.5717  1.0468  1.0468  0.9744  0.9791  0.9791  0.8678

 Free energy of the ion-electron system (eV)
  ---------------------------------------------------
  alpha Z        PSCENC =        12.54445055
  Ewald energy   TEWEN  =      2145.51726299
  -Hartree energ DENC   =     -2669.89774229
  -exchange      EXHF   =         0.00000000
  -V(xc)+E(xc)   XCENC  =        55.18498330
  PAW double counting   =      1695.60936186    -1698.33200390
  entropy T*S    EENTRO =        -0.00000603
  eigenvalues    EBANDS =      -166.17396883
  atomic energy  EATOM  =       588.61769381
  Solvation  Ediel_sol  =         0.00000000
  ---------------------------------------------------
  free energy    TOTEN  =       -36.92996856 eV

  energy without entropy =      -36.92996252  energy(sigma->0) =      -36.92996554


--------------------------------------------------------------------------------------------------------




--------------------------------------- Iteration      1(  24)  ---------------------------------------


    POTLOK:  cpu time    0.0689: real time    0.0691
    SETDIJ:  cpu time    0.0342: real time    0.0343
     EDDAV:  cpu time    1.1862: real time    1.1899
       DOS:  cpu time    0.0013: real time    0.0013
    CHARGE:  cpu time    0.1708: real time    0.1712
    MIXING:  cpu time    0.0046: real time    0.0046
    --------------------------------------------
      LOOP:  cpu time    1.4659: real time    1.4703

 eigenvalue-minimisations  :   872
 total energy-change (2. order) :-0.1562216E-07  (-0.4584737E-10)
 number of electron      16.0000000 magnetization 
 augmentation part        0.3846860 magnetization 

 Broyden mixing:
  rms(total) = 0.74902E-06    rms(broyden)= 0.70106E-06
  rms(prec ) = 0.10006E-05
  weight for this iteration     100.00

 eigenvalues of (default mixing * dielectric matrix)
  average eigenvalue GAMMA=   3.1335
 23.0261  6.7651  3.7064  3.5548  2.8209  2.4863  2.4863  2.3654  2.0400  1.4412
  0.5717  1.1933  1.1933  1.0461  1.0461  0.8702  1.0109  0.9559  0.9559

 Free energy of the ion-electron system (eV)
  ---------------------------------------------------
  alpha Z        PSCENC =        12.54445055
  Ewald energy   TEWEN  =      2145.51726299
  -Hartree energ DENC   =     -2669.89766255
  -exchange      EXHF   =         0.00000000
  -V(xc)+E(xc)   XCENC  =        55.18497739
  PAW double counting   =      1695.61147303    -1698.33411250
  entropy T*S    EENTRO =        -0.00000603
  eigenvalues    EBANDS =      -166.17404525
  atomic energy  EATOM  =       588.61769381
  Solvation  Ediel_sol  =         0.00000000
  ---------------------------------------------------
  free energy    TOTEN  =       -36.92996857 eV

  energy without entropy =      -36.92996254  energy(sigma->0) =      -36.92996556


--------------------------------------------------------------------------------------------------------




--------------------------------------- Iteration      1(  25)  ---------------------------------------


    POTLOK:  cpu time    0.0684: real time    0.0686
    SETDIJ:  cpu time    0.0344: real time    0.0345
     EDDAV:  cpu time    1.2236: real time    1.2273
       DOS:  cpu time    0.0013: real time    0.0013
    --------------------------------------------
      LOOP:  cpu time    1.3277: real time    1.3317

 eigenvalue-minimisations  :   908
 total energy-change (2. order) :-0.8779580E-08  (-0.1621540E-10)
 number of electron      16.0000000 magnetization 
 augmentation part        0.3846860 magnetization 

 Free energy of the ion-electron system (eV)
  ---------------------------------------------------
  alpha Z        PSCENC =        12.54445055
  Ewald energy   TEWEN  =      2145.51726299
  -Hartree energ DENC   =     -2669.89767834
  -exchange      EXHF   =         0.00000000
  -V(xc)+E(xc)   XCENC  =        55.18497831
  PAW double counting   =      1695.61262594    -1698.33526588
  entropy T*S    EENTRO =        -0.00000603
  eigenvalues    EBANDS =      -166.17402993
  atomic energy  EATOM  =       588.61769381
  Solvation  Ediel_sol  =         0.00000000
  ---------------------------------------------------
  free energy    TOTEN  =       -36.92996858 eV

  energy without entropy =      -36.92996255  energy(sigma->0) =      -36.92996556


--------------------------------------------------------------------------------------------------------




 average (electrostatic) potential at core
  the test charge radii are     0.6991
  (the norm of the test charge is              1.0000)
       1 -56.6476       2 -56.6476       3 -56.6476       4 -56.6476
 
 
 
 E-fermi :  -1.2202     XC(G=0):  -4.0966     alpha+bet : -3.8262


 k-point     1 :       0.0000    0.0000    0.0000
  band No.  band energies     occupation 
      1     -20.7957      2.00000
      2     -20.7927      2.00000
      3      -8.9255      2.00000
      4      -8.8510      2.00000
      5      -4.2478      2.00000
      6      -4.2477      2.00000
      7      -4.2477      2.00000
      8      -4.2476      2.00000
      9       1.7997      0.00000
     10       2.4500      0.00000
     11       2.9306      0.00000
     12       3.8971      0.00000

 k-point     2 :       0.0476    0.0000    0.0000
  band No.  band energies     occupation 
      1     -20.7419      2.00000
      2     -20.7388      2.00000
      3      -8.8610      2.00000
      4      -8.7867      2.00000
      5      -4.4686      2.00000
      6      -4.4685      2.00000
      7      -4.3646      2.00000
      8      -4.3645      2.00000
      9       1.8719      0.00000
     10       2.5231      0.00000
     11       3.0041      0.00000
     12       3.9704      0.00000

 k-point     3 :       0.0952    0.0000    0.0000
  band No.  band energies     occupation 
      1     -20.5806      2.00000
      2     -20.5775      2.00000
      3      -8.6678      2.00000
      4      -8.5943      2.00000
      5      -5.0885      2.00000
      6      -5.0884      2.00000
      7      -4.6844      2.00000
      8      -4.6843      2.00000
      9       2.0886      0.00000
     10       2.7425      0.00000
     11       3.2243      0.00000
     12       4.1903      0.00000

 k-point     4 :       0.1429    0.0000    0.0000
  band No.  band energies     occupation 
      1     -20.3123      2.00000
      2     -20.3093      2.00000
      3      -8.3478      2.00000
      4      -8.2756      2.00000
      5      -6.0079      2.00000
      6      -6.0076      2.00000
      7      -5.1360      2.00000
      8      -5.1359      2.00000
      9       2.4498      0.00000
     10       3.1078      0.00000
     11       3.5908      0.00000
     12       4.5561      0.00000

 k-point     5 :       0.1905    0.0000    0.0000
  band No.  band energies     occupation 
      1     -19.9381      2.00000
      2     -19.9352      2.00000
      3      -7.9040      2.00000
      4      -7.8337      2.00000
      5      -7.1206      2.00000
      6      -7.1201      2.00000
      7      -5.6447      2.00000
      8      -5.6446      2.00000
      9       2.9551      0.00000
     10       3.6182      0.00000
     11       4.1019      0.00000
     12       5.0657      0.00000

 k-point     6 :       0.2381    0.0000    0.0000
  band No.  band energies     occupation 
      1     -19.4594      2.00000
      2     -19.4567      2.00000
      3      -8.3402      2.00000
      4      -8.3396      2.00000
      5      -7.3417      2.00000
      6      -7.2740      2.00000
      7      -6.1517      2.00000
      8      -6.1515      2.00000
      9       3.6032      0.00000
     10       4.2709      0.00000
     11       4.7500      0.00000
     12       5.6981      0.00000

 k-point     7 :       0.2857    0.0000    0.0000
  band No.  band energies     occupation 
      1     -18.8786      2.00000
      2     -18.8760      2.00000
      3      -9.6042      2.00000
      4      -9.6034      2.00000
      5      -6.6700      2.00000
      6      -6.6161      2.00000
[...]
      2     -19.2944      2.00000
      3      -8.3964      2.00000
      4      -8.3938      2.00000
      5      -7.2044      2.00000
      6      -7.0393      2.00000
      7      -6.7443      2.00000
      8      -6.7428      2.00000
      9       3.9405      0.00000
     10       4.5242      0.00000
     11       5.1424      0.00000
     12       5.9365      0.00000

 k-point    25 :       0.3333    0.0952    0.0000
  band No.  band energies     occupation 
      1     -18.7253      2.00000
      2     -18.7155      2.00000
      3      -9.5845      2.00000
      4      -9.5812      2.00000
      5      -7.2501      2.00000
      6      -7.2485      2.00000
      7      -6.5336      2.00000
      8      -6.3754      2.00000
      9       4.7208      0.00000
     10       4.8164      0.00000
     11       4.8796      0.00000
     12       5.3520      0.00000

 k-point    26 :       0.3810    0.0952    0.0000
  band No.  band energies     occupation 
      1     -18.0478      2.00000
      2     -18.0386      2.00000
      3     -10.8006      2.00000
      4     -10.7966      2.00000
      5      -7.6683      2.00000
      6      -7.6666      2.00000
      7      -5.7690      2.00000
      8      -5.6199      2.00000
      9       3.5350      0.00000
     10       3.6333      0.00000
     11       5.6545      0.00000
     12       6.2731      0.00000

 k-point    27 :       0.4286    0.0952    0.0000
  band No.  band energies     occupation 
      1     -17.2787      2.00000
      2     -17.2701      2.00000
      3     -12.0002      2.00000
      4     -11.9955      2.00000
      5      -7.9891      2.00000
      6      -7.9874      2.00000
      7      -4.9429      2.00000
      8      -4.8055      2.00000
      9       2.2896      0.00000
     10       2.4062      0.00000
     11       6.7008      0.00000
     12       7.2619      0.00000

 k-point    28 :       0.4762    0.0952    0.0000
  band No.  band energies     occupation 
      1     -16.4334      2.00000
      2     -16.4255      2.00000
      3     -13.1438      2.00000
      4     -13.1384      2.00000
      5      -8.2062      2.00000
      6      -8.2044      2.00000
      7      -4.1321      2.00000
      8      -4.0099      2.00000
      9       1.1825      0.00000
     10       1.3191      0.00000
     11       7.2009      0.00000
     12       7.2348      0.00000

 k-point    29 :      -0.4762    0.0952    0.0000
  band No.  band energies     occupation 
      1     -15.5948      2.00000
      2     -15.5875      2.00000
      3     -14.1348      2.00000
      4     -14.1288      2.00000
      5      -8.3157      2.00000
      6      -8.3139      2.00000
      7      -3.5421      2.00000
      8      -3.4355      2.00000
      9       0.4394      0.00000
     10       0.5942      0.00000
     11       7.1590      0.00000
     12       7.1829      0.00000

 k-point    30 :       0.2857    0.1429    0.0000
  band No.  band energies     occupation 
      1     -19.3577      2.00000
      2     -19.3474      2.00000
      3      -8.1116      2.00000
      4      -8.1092      2.00000
      5      -7.2657      2.00000
      6      -7.0999      2.00000
      7      -6.9063      2.00000
      8      -6.9046      2.00000
      9       3.8694      0.00000
     10       4.4536      0.00000
     11       5.0751      0.00000
     12       5.9344      0.00000

 k-point    31 :       0.3333    0.1429    0.0000
  band No.  band energies     occupation 
      1     -18.8305      2.00000
      2     -18.8207      2.00000
      3      -9.0783      2.00000
      4      -9.0754      2.00000
      5      -7.5831      2.00000
      6      -7.5811      2.00000
      7      -6.6517      2.00000
      8      -6.4921      2.00000
      9       4.5869      0.00000
     10       5.1240      0.00000
     11       5.1450      0.00000
     12       5.2230      0.00000

 k-point    32 :       0.3810    0.1429    0.0000
  band No.  band energies     occupation 
      1     -18.2039      2.00000
      2     -18.1946      2.00000
      3     -10.1702      2.00000
      4     -10.1667      2.00000
      5      -8.1261      2.00000
      6      -8.1239      2.00000
      7      -5.9350      2.00000
      8      -5.7834      2.00000
      9       3.9428      0.00000
     10       4.0188      0.00000
     11       5.4441      0.00000
     12       6.0491      0.00000

 k-point    33 :       0.4286    0.1429    0.0000
  band No.  band energies     occupation 
      1     -17.4829      2.00000
      2     -17.4742      2.00000
      3     -11.3159      2.00000
      4     -11.3118      2.00000
      5      -8.5372      2.00000
      6      -8.5350      2.00000
      7      -5.1367      2.00000
      8      -4.9952      2.00000
      9       2.7442      0.00000
     10       2.8368      0.00000
     11       6.4354      0.00000
     12       7.0513      0.00000

 k-point    34 :       0.4762    0.1429    0.0000
  band No.  band energies     occupation 
      1     -16.6773      2.00000
      2     -16.6692      2.00000
      3     -12.4536      2.00000
      4     -12.4487      2.00000
      5      -8.8270      2.00000
      6      -8.8247      2.00000
      7      -4.3025      2.00000
      8      -4.1740      2.00000
      9       1.6014      0.00000
     10       1.7124      0.00000
     11       7.5471      0.00000
     12       8.1515      0.00000

 k-point    35 :      -0.4762    0.1429    0.0000
  band No.  band energies     occupation 
      1     -15.8188      2.00000
      2     -15.8114      2.00000
      3     -13.5214      2.00000
      4     -13.5158      2.00000
      5      -9.0000      2.00000
      6      -8.9976      2.00000
      7      -3.5531      2.00000
      8      -3.4404      2.00000
      9       0.6571      0.00000
     10       0.7876      0.00000
     11       8.1910      0.00000
     12       8.2351      0.00000

 k-point    36 :      -0.4286    0.1429    0.0000
  band No.  band energies     occupation 
      1     -15.2111      2.00000
      2     -15.2040      2.00000
      3     -14.2004      2.00000
      4     -14.1944      2.00000
      5      -9.0576      2.00000
      6      -9.0552      2.00000
      7      -3.2051      2.00000
      8      -3.1025      2.00000
      9       0.2425      0.00000
     10       0.3843      0.00000
     11       8.1741      0.00000
     12       8.2092      0.00000

 k-point    37 :       0.3810    0.1905    0.0000
  band No.  band energies     occupation 
      1     -18.2561      2.00000
      2     -18.2467      2.00000
      3      -9.8407      2.00000
      4      -9.8375      2.00000
      5      -8.4055      2.00000
      6      -8.4030      2.00000
      7      -5.9908      2.00000
      8      -5.8383      2.00000
      9       4.0971      0.00000
     10       4.1624      0.00000
     11       5.3732      0.00000
     12       5.9717      0.00000

 k-point    38 :       0.4286    0.1905    0.0000
  band No.  band energies     occupation 
      1     -17.5857      2.00000
      2     -17.5769      2.00000
      3     -10.7507      2.00000
      4     -10.7469      2.00000
      5      -9.0536      2.00000
      6      -9.0509      2.00000
      7      -5.2359      2.00000
      8      -5.0923      2.00000
      9       3.0154      0.00000
     10       3.0899      0.00000
     11       6.2952      0.00000
     12       6.8992      0.00000

 k-point    39 :       0.4762    0.1905    0.0000
  band No.  band energies     occupation 
      1     -16.8265      2.00000
      2     -16.8183      2.00000
      3     -11.7768      2.00000
      4     -11.7723      2.00000
      5      -9.4935      2.00000
      6      -9.4906      2.00000
      7      -4.4144      2.00000
      8      -4.2820      2.00000
      9       1.9267      0.00000
     10       2.0144      0.00000
     11       7.3453      0.00000
     12       7.9500      0.00000

 k-point    40 :      -0.4762    0.1905    0.0000
  band No.  band energies     occupation 
      1     -15.9954      2.00000
      2     -15.9879      2.00000
      3     -12.8254      2.00000
      4     -12.8203      2.00000
      5      -9.7648      2.00000
      6      -9.7618      2.00000
      7      -3.5918      2.00000
      8      -3.4731      2.00000
      9       0.9136      0.00000
     10       1.0174      0.00000
     11       8.5023      0.00000
     12       9.0880      0.00000

 k-point    41 :      -0.4286    0.1905    0.0000
  band No.  band energies     occupation 
      1     -15.1752      2.00000
      2     -15.1683      2.00000
      3     -13.7645      2.00000
      4     -13.7587      2.00000
      5      -9.8953      2.00000
      6      -9.8923      2.00000
      7      -2.9642      2.00000
      8      -2.8599      2.00000
      9       0.1865      0.00000
     10       0.3062      0.00000
     11       9.3905      0.00000
     12       9.4677      0.00000

 k-point    42 :       0.4762    0.2381    0.0000
  band No.  band energies     occupation 
      1     -16.8767      2.00000
      2     -16.8684      2.00000
      3     -11.4058      2.00000
      4     -11.4017      2.00000
      5      -9.8663      2.00000
      6      -9.8630      2.00000
      7      -4.4532      2.00000
      8      -4.3194      2.00000
      9       2.0514      0.00000
     10       2.1292      0.00000
     11       7.2749      0.00000
     12       7.8708      0.00000

 k-point    43 :      -0.4762    0.2381    0.0000
  band No.  band energies     occupation 
      1     -16.0883      2.00000
      2     -16.0807      2.00000
      3     -12.2203      2.00000
      4     -12.2156      2.00000
      5     -10.4142      2.00000
      6     -10.4107      2.00000
      7      -3.6210      2.00000
      8      -3.4989      2.00000
      9       1.0859      0.00000
     10       1.1714      0.00000
     11       8.3611      0.00000
     12       8.9199      0.00000

 k-point    44 :      -0.4286    0.2381    0.0000
  band No.  band energies     occupation 
      1     -15.2530      2.00000
      2     -15.2461      2.00000
      3     -13.1264      2.00000
      4     -13.1211      2.00000
      5     -10.6994      2.00000
      6     -10.6957      2.00000
      7      -2.8320      2.00000
      8      -2.7233      2.00000
      9       0.2141      0.00000
     10       0.3112      0.00000
     11       9.2854      0.00000
     12       9.6846      0.00000

 k-point    45 :      -0.3810    0.2381    0.0000
  band No.  band energies     occupation 
      1     -14.6596      2.00000
      2     -14.6531      2.00000
      3     -13.7532      2.00000
      4     -13.7475      2.00000
      5     -10.7867      2.00000
      6     -10.7830      2.00000
      7      -2.4239      2.00000
      8      -2.3243      2.00000
      9      -0.2222      0.00000
     10      -0.1163      0.00000
     11       9.4009      0.00000
     12      10.1936      0.00000

 k-point    46 :      -0.4286    0.2857    0.0000
  band No.  band energies     occupation 
      1     -15.2877      2.00000
      2     -15.2807      2.00000
      3     -12.7470      2.00000
      4     -12.7419      2.00000
      5     -11.1295      2.00000
      6     -11.1255      2.00000
      7      -2.7919      2.00000
      8      -2.6809      2.00000
      9       0.2378      0.00000
     10       0.3252      0.00000
     11       9.1354      0.00000
     12       9.6033      0.00000

 k-point    47 :      -0.3810    0.2857    0.0000
  band No.  band energies     occupation 
      1     -14.4959      2.00000
      2     -14.4895      2.00000
      3     -13.4111      2.00000
      4     -13.4056      2.00000
      5     -11.4845      2.00000
      6     -11.4803      2.00000
      7      -2.0486      2.00000
      8      -1.9486      2.00000
      9      -0.5111      0.00000
     10      -0.4176      0.00000
     11       9.1170      0.00000
     12       9.9380      0.00000

 k-point    48 :      -0.3333    0.3333    0.0000
  band No.  band energies     occupation 
      1     -13.8360      2.00000
      2     -13.8360      2.00000
      3     -13.8302      2.00000
      4     -13.8302      2.00000
      5     -11.8263      2.00000
      6     -11.8218      2.00000
      7      -1.2681      2.00000
      8      -1.2681      2.00000
      9      -1.1736      0.00000
     10      -1.1736      0.00000
     11       9.0061      0.00000
     12       9.8484      0.00000


--------------------------------------------------------------------------------------------------------


 soft charge-density along one line, spin component           1
         0         1         2         3         4         5         6         7         8         9
 total charge-density along one line
 
 pseudopotential strength for first ion, spin component:           1
 10.124  13.461  -0.000  -0.000   0.000   0.000   0.000  -0.000
 13.461  17.898  -0.000  -0.000   0.000   0.000   0.000  -0.000
 -0.000  -0.000  -4.266   0.000  -0.000   8.344  -0.000   0.000
 -0.000  -0.000   0.000  -4.258  -0.000  -0.000   8.334   0.000
  0.000   0.000  -0.000  -0.000  -4.266   0.000   0.000   8.344
  0.000   0.000   8.344  -0.000   0.000 -18.452   0.000  -0.000
  0.000   0.000  -0.000   8.334   0.000   0.000 -18.443  -0.000
 -0.000  -0.000   0.000   0.000   8.344  -0.000  -0.000 -18.452
 total augmentation occupancy for first ion, spin component:           1
  8.116  -3.602  -0.000  -0.000  -0.000  -0.000  -0.000   0.000
 -3.602   1.656  -0.000   0.000   0.000   0.000   0.000   0.000
  0.000   0.000   1.837  -0.000   0.000   0.173   0.000   0.000
 -0.000   0.000   0.000   1.199  -0.000  -0.000   0.073   0.000
  0.000   0.000   0.000  -0.000   1.837   0.000   0.000   0.173
 -0.000  -0.000   0.173   0.000   0.000   0.018   0.000   0.000
 -0.000   0.000  -0.000   0.073   0.000  -0.000   0.005   0.000
  0.000   0.000   0.000   0.000   0.173   0.000  -0.000   0.018


------------------------ aborting loop because EDIFF is reached ----------------------------------------


    CHARGE:  cpu time    0.1742: real time    0.1746
    FORLOC:  cpu time    0.0053: real time    0.0053
    FORNL :  cpu time    0.3337: real time    0.3345
    STRESS:  cpu time    1.3185: real time    1.3216
    FORCOR:  cpu time    0.0728: real time    0.0730
    FORHAR:  cpu time    0.0188: real time    0.0189
    MIXING:  cpu time    0.0042: real time    0.0042
    OFIELD:  cpu time    0.0000: real time    0.0000

  FORCE on cell =-STRESS in cart. coord.  units (eV):
  Direction    XX          YY          ZZ          XY          YZ          ZX
  --------------------------------------------------------------------------------------
  Alpha Z    12.54445    12.54445    12.54445
  Ewald    3010.72072  3010.71948 -3549.87621    -0.00000    -0.00000    -0.00000
  Hartree  2973.41096  2973.41095 -2950.87798    -0.00000    -0.00000    -0.00000
  E(xc)     -59.52037   -59.52037   -61.75113    -0.00000     0.00000     0.00000
  Local   -6161.43778 -6161.43718  6289.04418    -0.00000     0.00000    -0.00000
  n-local   -14.82518   -13.75042   -13.00649     0.71035     0.00000    -0.00000
  augment    -1.57105    -1.57106    -1.44410    -0.00000    -0.00000    -0.00000
  Kinetic   245.07339   236.87160   275.32281    -6.59862     0.00000     0.00000
  Fock        0.00000     0.00000     0.00000     0.00000     0.00000     0.00000
  -------------------------------------------------------------------------------------
  Total       0.83130     0.83130    -0.04446     0.00000     0.00000     0.00000
  in kB      12.71188    12.71188    -0.67987     0.00000     0.00000     0.00000
  external pressure =        8.25 kB  Pullay stress =        0.00 kB


 VOLUME and BASIS-vectors are now :
 -----------------------------------------------------------------------------
  energy-cutoff  :      800.00
  volume of cell :      104.78
      direct lattice vectors                 reciprocal lattice vectors
     2.130000000 -1.229756000  0.000000000     0.234741784 -0.406584721  0.000000000
     2.130000000  1.229756000  0.000000000     0.234741784  0.406584721  0.000000000
     0.000000000  0.000000000 20.000000000     0.000000000  0.000000000  0.050000000

  length of vectors
     2.459512110  2.459512110 20.000000000     0.469483589  0.469483589  0.050000000


 FORCES acting on ions
    electron-ion (+dipol)            ewald-force                    non-local-force                 convergence-correction
 -----------------------------------------------------------------------------------------------
   0.196E-06 -.848E-12 0.307E+03   -.241E-03 0.664E-14 -.307E+03   -.588E-16 -.356E-16 -.125E-02   0.868E-12 -.879E-15 -.624E-04
   0.271E-03 0.364E-12 0.307E+03   0.241E-03 -.442E-14 -.307E+03   0.425E-16 -.176E-16 -.125E-02   -.285E-11 0.520E-15 -.624E-04
   0.191E-06 -.695E-12 -.307E+03   -.241E-03 0.670E-14 0.307E+03   0.285E-17 0.438E-17 0.126E-02   0.227E-12 -.430E-15 0.275E-05
   0.271E-03 0.592E-12 -.307E+03   0.241E-03 -.436E-14 0.307E+03   0.617E-16 -.157E-16 0.126E-02   -.122E-11 0.375E-14 0.275E-05
 -----------------------------------------------------------------------------------------------
   0.542E-03 -.587E-12 0.111E-03   0.858E-14 0.456E-14 -.568E-13   0.483E-16 -.645E-16 0.100E-04   -.297E-11 0.296E-14 -.119E-03
 
 
 POSITION                                       TOTAL-FORCE (eV/Angst)
 -----------------------------------------------------------------------------------
      0.00000      0.00000      0.00000         0.000000     -0.000000      0.000018
      1.42000      0.00000      0.00000         0.000000     -0.000000      0.000018
      0.00000      0.00000      4.44126        -0.000000      0.000000     -0.000018
      1.42000      0.00000      4.44126         0.000000     -0.000000     -0.000018
 -----------------------------------------------------------------------------------
    total drift:                                0.000542     -0.000000      0.000002


--------------------------------------------------------------------------------------------------------



  FREE ENERGIE OF THE ION-ELECTRON SYSTEM (eV)
  ---------------------------------------------------
  free  energy   TOTEN  =       -36.93099954 eV

  energy  without entropy=      -36.93099954  energy(sigma->0) =      -36.93099954
 
 d Force = 0.1875440E-05[-0.671E-06, 0.442E-05]  d Energy = 0.1895020E-05-0.196E-07
 d Force = 0.1160445E+02[ 0.116E+02, 0.116E+02]  d Ewald  = 0.1160445E+02 0.169E-07


--------------------------------------------------------------------------------------------------------


    POTLOK:  cpu time    0.1025: real time    0.1027


--------------------------------------------------------------------------------------------------------




--------------------------------------------------------------------------------------------------------


  
 reached required accuracy - stopping structural energy minimisation
     LOOP+:  cpu time   32.5986: real time   32.7878
    4ORBIT:  cpu time    0.0000: real time    0.0000

 total amount of memory used by VASP MPI-rank0   107376. kBytes
=======================================================================

   base      :      30000. kBytes
   nonl-proj :      16997. kBytes
   fftplans  :      32720. kBytes
   grid      :      15086. kBytes
   one-center:         12. kBytes
   wavefun   :      12561. kBytes
 
  
  
 General timing and accounting informations for this job:
 ========================================================
  
                  Total CPU time used (sec):      447.806
                            User time (sec):      442.118
                          System time (sec):        5.688
                         Elapsed time (sec):      451.322
  
                   Maximum memory used (kb):      178008.
                   Average memory used (kb):           0.
  
                          Minor page faults:       237496
                          Major page faults:            2
                 Voluntary context switches:         2383
