<?xml version="1.0" encoding="ISO-8859-1"?>
<modeling>
 <generator>
  <i name="program" type="string">vasp </i>
  <i name="version" type="string">5.4.4.18Apr17-6-g9f103f2a35  </i>
  <i name="subversion" type="string">(build May 31 2018 21:15:54) complex            parallel </i>
  <i name="platform" type="string">c7_intel_O1 </i>
  <i name="date" type="string">2020 07 27 </i>
  <i name="time" type="string">23:08:11 </i>
 </generator>
 <incar>
  <i type="string" name="SYSTEM"> bilayer_graphene_AA</i>
  <i type="int" name="ISTART">     0</i>
  <i type="string" name="PREC">accurate</i>
  <i type="string" name="ALGO"> N</i>
  <i type="logical" name="ADDGRID"> T  </i>
  <i name="AMIN">      0.01000000</i>
  <i type="int" name="NELMIN">     5</i>
  <i type="int" name="IBRION">     2</i>
  <i name="EDIFF">      0.00000001</i>
  <i name="EDIFFG">     -0.00010000</i>
  <i type="int" name="NSW">    40</i>
  <i name="SYMPREC">      0.00010000</i>
  <i name="ENCUT">    800.00000000</i>
  <i type="int" name="NEDOS">  9001</i>
  <i type="logical" name="LREAL"> F  </i>
  <i type="int" name="ISMEAR">     0</i>
  <i name="SIGMA">      0.01000000</i>
  <i type="logical" name="LWAVE"> F  </i>
  <v type="int" name="KPOINT_BSE">    -1     0     0     0</v>
 </incar>
 <structure name="primitive_cell" >
  <crystal>
   <varray name="basis" >
    <v>       2.13000000      -1.22975600       0.00000000 </v>
    <v>       2.13000000       1.22975600       0.00000000 </v>
    <v>       0.00000000       0.00000000      20.00000000 </v>
   </varray>
   <i name="volume">    104.77521120 </i>
   <varray name="rec_basis" >
    <v>       0.23474178      -0.40658472       0.00000000 </v>
    <v>       0.23474178       0.40658472       0.00000000 </v>
    <v>       0.00000000       0.00000000       0.05000000 </v>
   </varray>
  </crystal>
  <varray name="positions" >
   <v>       0.00000000       0.00000000       0.00000000 </v>
   <v>       0.33333300       0.33333300       0.00000000 </v>
   <v>       0.00000000       0.00000000       0.25000000 </v>
   <v>       0.33333300       0.33333300       0.25000000 </v>
  </varray>
 </structure>
 <varray name="primitive_index" >
  <v type="int" >        1 </v>
  <v type="int" >        2 </v>
  <v type="int" >        3 </v>
  <v type="int" >        4 </v>
 </varray>
 <kpoints>
  <generation param="Gamma">
   <v type="int" name="divisions">      21       21        1 </v>
   <v name="usershift">      0.00000000       0.00000000       0.00000000 </v>
   <v name="genvec1">      0.04761905       0.00000000       0.00000000 </v>
   <v name="genvec2">      0.00000000       0.04761905       0.00000000 </v>
   <v name="genvec3">      0.00000000       0.00000000       1.00000000 </v>
   <v name="shift">      0.00000000       0.00000000       0.00000000 </v>
  </generation>
  <varray name="kpointlist" >
   <v>       0.00000000       0.00000000       0.00000000 </v>
   <v>       0.04761905       0.00000000       0.00000000 </v>
   <v>       0.09523810       0.00000000       0.00000000 </v>
   <v>       0.14285714       0.00000000       0.00000000 </v>
   <v>       0.19047619       0.00000000       0.00000000 </v>
   <v>       0.23809524       0.00000000       0.00000000 </v>
   <v>       0.28571429       0.00000000       0.00000000 </v>
   <v>       0.33333333       0.00000000       0.00000000 </v>
   <v>       0.38095238       0.00000000       0.00000000 </v>
   <v>       0.42857143       0.00000000       0.00000000 </v>
   <v>       0.47619048       0.00000000       0.00000000 </v>
   <v>       0.09523810       0.04761905       0.00000000 </v>
   <v>       0.14285714       0.04761905       0.00000000 </v>
   <v>       0.19047619       0.04761905       0.00000000 </v>
   <v>       0.23809524       0.04761905       0.00000000 </v>
   <v>       0.28571429       0.04761905       0.00000000 </v>
   <v>       0.33333333       0.04761905       0.00000000 </v>
   <v>       0.38095238       0.04761905       0.00000000 </v>
   <v>       0.42857143       0.04761905       0.00000000 </v>
   <v>       0.47619048       0.04761905       0.00000000 </v>
   <v>      -0.47619048       0.04761905       0.00000000 </v>
   <v>       0.19047619       0.09523810       0.00000000 </v>
   <v>       0.23809524       0.09523810       0.00000000 </v>
   <v>       0.28571429       0.09523810       0.00000000 </v>
   <v>       0.33333333       0.09523810       0.00000000 </v>
   <v>       0.38095238       0.09523810       0.00000000 </v>
   <v>       0.42857143       0.09523810       0.00000000 </v>
   <v>       0.47619048       0.09523810       0.00000000 </v>
   <v>      -0.47619048       0.09523810       0.00000000 </v>
   <v>       0.28571429       0.14285714       0.00000000 </v>
   <v>       0.33333333       0.14285714       0.00000000 </v>
   <v>       0.38095238       0.14285714       0.00000000 </v>
   <v>       0.42857143       0.14285714       0.00000000 </v>
   <v>       0.47619048       0.14285714       0.00000000 </v>
   <v>      -0.47619048       0.14285714       0.00000000 </v>
   <v>      -0.42857143       0.14285714       0.00000000 </v>
   <v>       0.38095238       0.19047619       0.00000000 </v>
   <v>       0.42857143       0.19047619       0.00000000 </v>
   <v>       0.47619048       0.19047619       0.00000000 </v>
   <v>      -0.47619048       0.19047619       0.00000000 </v>
   <v>      -0.42857143       0.19047619       0.00000000 </v>
   <v>       0.47619048       0.23809524       0.00000000 </v>
   <v>      -0.47619048       0.23809524       0.00000000 </v>
   <v>      -0.42857143       0.23809524       0.00000000 </v>
   <v>      -0.38095238       0.23809524       0.00000000 </v>
   <v>      -0.42857143       0.28571429       0.00000000 </v>
   <v>      -0.38095238       0.28571429       0.00000000 </v>
   <v>      -0.33333333       0.33333333       0.00000000 </v>
  </varray>
  <varray name="weights" >
   <v>       0.00226757 </v>
   <v>       0.01360544 </v>
   <v>       0.01360544 </v>
   <v>       0.01360544 </v>
   <v>       0.01360544 </v>
   <v>       0.01360544 </v>
   <v>       0.01360544 </v>
   <v>       0.01360544 </v>
   <v>       0.01360544 </v>
   <v>       0.01360544 </v>
   <v>       0.01360544 </v>
   <v>       0.01360544 </v>
   <v>       0.02721088 </v>
   <v>       0.02721088 </v>
   <v>       0.02721088 </v>
   <v>       0.02721088 </v>
   <v>       0.02721088 </v>
   <v>       0.02721088 </v>
   <v>       0.02721088 </v>
   <v>       0.02721088 </v>
   <v>       0.01360544 </v>
   <v>       0.01360544 </v>
   <v>       0.02721088 </v>
   <v>       0.02721088 </v>
   <v>       0.02721088 </v>
   <v>       0.02721088 </v>
   <v>       0.02721088 </v>
   <v>       0.02721088 </v>
   <v>       0.02721088 </v>
   <v>       0.01360544 </v>
   <v>       0.02721088 </v>
   <v>       0.02721088 </v>
   <v>       0.02721088 </v>
   <v>       0.02721088 </v>
   <v>       0.02721088 </v>
   <v>       0.01360544 </v>
   <v>       0.01360544 </v>
   <v>       0.02721088 </v>
   <v>       0.02721088 </v>
   <v>       0.02721088 </v>
   <v>       0.02721088 </v>
   <v>       0.01360544 </v>
   <v>       0.02721088 </v>
   <v>       0.02721088 </v>
   <v>       0.01360544 </v>
   <v>       0.01360544 </v>
   <v>       0.02721088 </v>
   <v>       0.00453515 </v>
  </varray>
 </kpoints>
 <parameters>
  <separator name="general" >
   <i type="string" name="SYSTEM">bilayer_graphene_AA</i>
   <i type="logical" name="LCOMPAT"> F  </i>
  </separator>
  <separator name="electronic" >
   <i type="string" name="PREC">accura</i>
   <i name="ENMAX">    800.00000000</i>
   <i name="ENAUG">    644.87300000</i>
   <i name="EDIFF">      0.00000001</i>
   <i type="int" name="IALGO">    38</i>
   <i type="int" name="IWAVPR">    11</i>
   <i type="int" name="NBANDS">    12</i>
   <i name="NELECT">     16.00000000</i>
   <i type="int" name="TURBO">     0</i>
   <i type="int" name="IRESTART">     0</i>
   <i type="int" name="NREBOOT">     0</i>
   <i type="int" name="NMIN">     0</i>
   <i name="EREF">      0.00000000</i>
   <separator name="electronic smearing" >
    <i type="int" name="ISMEAR">     0</i>
    <i name="SIGMA">      0.01000000</i>
    <i name="KSPACING">      0.50000000</i>
    <i type="logical" name="KGAMMA"> T  </i>
   </separator>
   <separator name="electronic projectors" >
    <i type="logical" name="LREAL"> F  </i>
    <v name="ROPT">      0.00000000</v>
    <i type="int" name="LMAXPAW">  -100</i>
    <i type="int" name="LMAXMIX">     2</i>
    <i type="logical" name="NLSPLINE"> F  </i>
   </separator>
   <separator name="electronic startup" >
    <i type="int" name="ISTART">     0</i>
    <i type="int" name="ICHARG">     2</i>
    <i type="int" name="INIWAV">     1</i>
   </separator>
   <separator name="electronic spin" >
    <i type="int" name="ISPIN">     1</i>
    <i type="logical" name="LNONCOLLINEAR"> F  </i>
    <v name="MAGMOM">      1.00000000      1.00000000      1.00000000      1.00000000</v>
    <i name="NUPDOWN">     -1.00000000</i>
    <i type="logical" name="LSORBIT"> F  </i>
    <v name="SAXIS">      0.00000000      0.00000000      1.00000000</v>
    <i type="logical" name="LSPIRAL"> F  </i>
    <v name="QSPIRAL">      0.00000000      0.00000000      0.00000000</v>
    <i type="logical" name="LZEROZ"> F  </i>
   </separator>
   <separator name="electronic exchange-correlation" >
    <i type="logical" name="LASPH"> F  </i>
    <i type="logical" name="LMETAGGA"> F  </i>
   </separator>
   <separator name="electronic convergence" >
    <i type="int" name="NELM">    60</i>
    <i type="int" name="NELMDL">    -5</i>
    <i type="int" name="NELMIN">     5</i>
    <i name="ENINI">    800.00000000</i>
    <separator name="electronic convergence detail" >
     <i type="logical" name="LDIAG"> T  </i>
     <i type="logical" name="LSUBROT"> F  </i>
     <i name="WEIMIN">      0.00100000</i>
     <i name="EBREAK">      0.00000000</i>
     <i name="DEPER">      0.30000000</i>
     <i type="int" name="NRMM">     4</i>
     <i name="TIME">      0.40000000</i>
    </separator>
   </separator>
   <separator name="electronic mixer" >
    <i name="AMIX">      0.40000000</i>
    <i name="BMIX">      1.00000000</i>
    <i name="AMIN">      0.01000000</i>
    <i name="AMIX_MAG">      1.60000000</i>
    <i name="BMIX_MAG">      1.00000000</i>
    <separator name="electronic mixer details" >
     <i type="int" name="IMIX">     4</i>
     <i type="logical" name="MIXFIRST"> F  </i>
     <i type="int" name="MAXMIX">   -45</i>
     <i name="WC">    100.00000000</i>
     <i type="int" name="INIMIX">     1</i>
     <i type="int" name="MIXPRE">     1</i>
     <i type="int" name="MREMOVE">     5</i>
    </separator>
   </separator>
   <separator name="electronic dipolcorrection" >
    <i type="logical" name="LDIPOL"> F  </i>
    <i type="logical" name="LMONO"> F  </i>
    <i type="int" name="IDIPOL">     0</i>
    <i name="EPSILON">      1.00000000</i>
    <v name="DIPOL">   -100.00000000   -100.00000000   -100.00000000</v>
    <i name="EFIELD">      0.00000000</i>
   </separator>
  </separator>
  <separator name="grids" >
   <i type="int" name="NGX">    24</i>
   <i type="int" name="NGY">    24</i>
   <i type="int" name="NGZ">   192</i>
   <i type="int" name="NGXF">    48</i>
   <i type="int" name="NGYF">    48</i>
   <i type="int" name="NGZF">   384</i>
   <i type="logical" name="ADDGRID"> T  </i>
  </separator>
  <separator name="ionic" >
   <i type="int" name="NSW">    40</i>
   <i type="int" name="IBRION">     2</i>
   <i type="int" name="MDALGO">     0</i>
   <i type="int" name="ISIF">     2</i>
   <i name="PSTRESS">      0.00000000</i>
   <i name="EDIFFG">     -0.00010000</i>
   <i type="int" name="NFREE">     1</i>
   <i name="POTIM">      0.50000000</i>
   <i name="SMASS">     -3.00000000</i>
   <i name="SCALEE">      1.00000000</i>
  </separator>
  <separator name="ionic md" >
   <i name="TEBEG">      0.00010000</i>
   <i name="TEEND">      0.00010000</i>
   <i type="int" name="NBLOCK">     1</i>
   <i type="int" name="KBLOCK">    40</i>
   <i type="int" name="NPACO">   256</i>
   <i name="APACO">     16.00000000</i>
  </separator>
  <separator name="symmetry" >
   <i type="int" name="ISYM">     2</i>
   <i name="SYMPREC">      0.00010000</i>
  </separator>
  <separator name="dos" >
   <i type="int" name="LORBIT">     0</i>
   <v name="RWIGS">     -1.00000000</v>
   <i type="int" name="NEDOS">  9001</i>
   <i name="EMIN">     10.00000000</i>
   <i name="EMAX">    -10.00000000</i>
   <i name="EFERMI">      0.00000000</i>
  </separator>
  <separator name="writing" >
   <i type="int" name="NWRITE">     2</i>
   <i type="logical" name="LWAVE"> F  </i>
   <i type="logical" name="LDOWNSAMPLE"> F  </i>
   <i type="logical" name="LCHARG"> T  </i>
   <i type="logical" name="LPARD"> F  </i>
   <i type="logical" name="LVTOT"> F  </i>
   <i type="logical" name="LVHAR"> F  </i>
   <i type="logical" name="LELF"> F  </i>
   <i type="logical" name="LOPTICS"> F  </i>
   <v name="STM">      0.00000000      0.00000000      0.00000000      0.00000000      0.00000000      0.00000000      0.00000000</v>
  </separator>
  <separator name="performance" >
   <i type="int" name="NPAR">     4</i>
   <i type="int" name="NSIM">     4</i>
   <i type="int" name="NBLK">    -1</i>
   <i type="logical" name="LPLANE"> T  </i>
   <i type="logical" name="LSCALAPACK"> T  </i>
   <i type="logical" name="LSCAAWARE"> F  </i>
   <i type="logical" name="LSCALU"> F  </i>
   <i type="logical" name="LASYNC"> F  </i>
   <i type="logical" name="LORBITALREAL"> F  </i>
  </separator>
  <separator name="miscellaneous" >
   <i type="int" name="IDIOT">     3</i>
   <i type="int" name="ISPECIAL">     0</i>
   <i type="logical" name="LMUSIC"> F  </i>
   <v name="POMASS">     12.01100000</v>
   <v name="DARWINR">      0.00000000</v>
   <v name="DARWINV">      1.00000000</v>
   <i type="logical" name="LCORR"> T  </i>
  </separator>
  <i type="logical" name="GGA_COMPAT"> T  </i>
  <i type="logical" name="LBERRY"> F  </i>
  <i type="int" name="ICORELEVEL">     0</i>
  <i type="logical" name="LDAU"> F  </i>
  <i type="int" name="I_CONSTRAINED_M">     0</i>
  <separator name="electronic exchange-correlation" >
   <i type="string" name="GGA">--</i>
   <i type="int" name="VOSKOWN">     0</i>
   <i type="logical" name="LHFCALC"> F  </i>
   <i type="string" name="PRECFOCK"></i>
   <i type="logical" name="LSYMGRAD"> F  </i>
   <i type="logical" name="LHFONE"> F  </i>
   <i type="logical" name="LRHFCALC"> F  </i>
   <i type="logical" name="LTHOMAS"> F  </i>
   <i type="logical" name="LMODELHF"> F  </i>
   <i name="ENCUT4O">     -1.00000000</i>
   <i type="int" name="EXXOEP">     0</i>
   <i type="int" name="FOURORBIT">     0</i>
   <i name="AEXX">      0.00000000</i>
   <i name="HFALPHA">      0.00000000</i>
   <i name="MCALPHA">      0.00000000</i>
   <i name="ALDAX">      1.00000000</i>
   <i name="AGGAX">      1.00000000</i>
   <i name="ALDAC">      1.00000000</i>
   <i name="AGGAC">      1.00000000</i>
   <i type="int" name="NKREDX">     1</i>
   <i type="int" name="NKREDY">     1</i>
   <i type="int" name="NKREDZ">     1</i>
   <i type="logical" name="SHIFTRED"> F  </i>
   <i type="logical" name="ODDONLY"> F  </i>
   <i type="logical" name="EVENONLY"> F  </i>
   <i type="int" name="LMAXFOCK">     0</i>
   <i type="int" name="NMAXFOCKAE">     0</i>
   <i type="logical" name="LFOCKAEDFT"> F  </i>
   <i name="HFSCREEN">      0.00000000</i>
   <i name="HFSCREENC">      0.00000000</i>
   <i type="int" name="NBANDSGWLOW">     0</i>
  </separator>
  <separator name="vdW DFT" >
   <i type="logical" name="LUSE_VDW"> F  </i>
   <i name="Zab_VDW">     -0.84910000</i>
   <i name="PARAM1">      0.12340000</i>
   <i name="PARAM2">      1.00000000</i>
   <i name="PARAM3">      0.00000000</i>
  </separator>
  <separator name="model GW" >
   <i type="int" name="MODEL_GW">     0</i>
   <i name="MODEL_EPS0">     15.71628168</i>
   <i name="MODEL_ALPHA">      1.00000000</i>
  </separator>
  <separator name="linear response parameters" >
   <i type="logical" name="LEPSILON"> F  </i>
   <i type="logical" name="LRPA"> F  </i>
   <i type="logical" name="LNABLA"> F  </i>
   <i type="logical" name="LVEL"> F  </i>
   <i type="int" name="KINTER">     0</i>
   <i name="CSHIFT">      0.10000000</i>
   <i name="OMEGAMAX">     -1.00000000</i>
   <i name="DEG_THRESHOLD">      0.00200000</i>
   <i name="RTIME">     -0.10000000</i>
   <i name="WPLASMAI">      0.00000000</i>
   <v name="DFIELD">      0.00000000      0.00000000      0.00000000</v>
   <v name="WPLASMA">      0.00000000      0.00000000      0.00000000      0.00000000      0.00000000      0.00000000      0.00000000      0.00000000      0.00000000</v>
  </separator>
  <separator name="orbital magnetization" >
   <i type="logical" name="NUCIND"> F  </i>
   <v name="MAGPOS">      0.00000000      0.00000000      0.00000000</v>
   <i type="logical" name="LNICSALL"> T  </i>
   <i type="logical" name="ORBITALMAG"> F  </i>
   <i type="logical" name="LMAGBLOCH"> F  </i>
   <i type="logical" name="LCHIMAG"> F  </i>
   <i type="logical" name="LGAUGE"> T  </i>
   <i type="int" name="MAGATOM">     0</i>
   <v name="MAGDIPOL">      0.00000000      0.00000000      0.00000000</v>
   <v name="AVECCONST">      0.00000000      0.00000000      0.00000000</v>
  </separator>
  <separator name="response functions" >
   <i type="logical" name="LADDER"> F  </i>
   <i type="logical" name="LRPAFORCE"> F  </i>
   <i type="logical" name="LFXC"> F  </i>
   <i type="logical" name="LHARTREE"> T  </i>
   <i type="int" name="IBSE">     0</i>
   <v type="int" name="KPOINT">    -1     0     0     0</v>
   <i type="logical" name="LTCTE"> F  </i>
   <i type="logical" name="LTETE"> F  </i>
   <i type="logical" name="LTRIPLET"> F  </i>
   <i type="logical" name="LFXCEPS"> F  </i>
   <i type="logical" name="LFXHEG"> F  </i>
   <i type="int" name="NATURALO">     2</i>
   <i type="logical" name="L2ORDER"> F  </i>
   <i type="logical" name="LMP2LT"> F  </i>
   <i type="logical" name="LUSEW"> F  </i>
   <i name="ENCUTGW">     -2.00000000</i>
   <i name="ENCUTGWSOFT">     -2.00000000</i>
   <i name="ENCUTLF">     -1.00000000</i>
   <i type="int" name="LMAXMP2">    -1</i>
   <i name="SCISSOR">      0.00000000</i>
   <i type="int" name="NOMEGA">     0</i>
   <i type="int" name="NOMEGAR">     0</i>
   <i type="int" name="NBANDSGW">    -1</i>
   <i type="int" name="NBANDSO">    -1</i>
   <i type="int" name="NBANDSV">    -1</i>
   <i type="int" name="NELM">     1</i>
   <i type="int" name="NELMHF">     1</i>
   <i type="int" name="DIM">     3</i>
   <i type="int" name="ANTIRES">     0</i>
   <i name="OMEGAMAX">    -30.00000000</i>
   <i name="OMEGAMIN">    -30.00000000</i>
   <i name="OMEGATL">   -200.00000000</i>
   <i type="int" name="OMEGAGRID">   140</i>
   <i name="CSHIFT">     -0.10000000</i>
   <i type="logical" name="SELFENERGY"> F  </i>
   <i type="logical" name="LSPECTRAL"> F  </i>
   <i type="logical" name="LSPECTRALGW"> F  </i>
   <i type="logical" name="LSINGLES"> F  </i>
   <i type="logical" name="LFERMIGW"> F  </i>
   <i type="logical" name="ODDONLYGW"> F  </i>
   <i type="logical" name="EVENONLYGW"> F  </i>
   <i type="int" name="NKREDLFX">     1</i>
   <i type="int" name="NKREDLFY">     1</i>
   <i type="int" name="NKREDLFZ">     1</i>
   <i type="int" name="MAXMEM">  2800</i>
   <i type="int" name="TELESCOPE">     0</i>
   <i type="int" name="TAUPAR">     1</i>
   <i type="int" name="OMEGAPAR">    -1</i>
   <i name="LAMBDA">      1.00000000</i>
  </separator>
  <separator name="External order field" >
   <i name="OFIELD_KAPPA">      0.00000000</i>
   <v name="OFIELD_K">      0.00000000      0.00000000      0.00000000</v>
   <i name="OFIELD_Q6_NEAR">      0.00000000</i>
   <i name="OFIELD_Q6_FAR">      0.00000000</i>
   <i name="OFIELD_A">      0.00000000</i>
  </separator>
 </parameters>
 <atominfo>
  <atoms>       4 </atoms>
  <types>       1 </types>
  <array name="atoms" >
   <dimension dim="1">ion</dimension>
   <field type="string">element</field>
   <field type="int">atomtype</field>
   <set>
    <rc><c>C </c><c>   1</c></rc>
    <rc><c>C </c><c>   1</c></rc>
    <rc><c>C </c><c>   1</c></rc>
    <rc><c>C </c><c>   1</c></rc>
   </set>
  </array>
  <array name="atomtypes" >
   <dimension dim="1">type</dimension>
   <field type="int">atomspertype</field>
   <field type="string">element</field>
   <field>mass</field>
   <field>valence</field>
   <field type="string">pseudopotential</field>
   <set>
    <rc><c>   4</c><c>C </c><c>     12.01100000</c><c>      4.00000000</c><c>  PAW_PBE C 08Apr2002                   </c></rc>
   </set>
  </array>
 </atominfo>
 <structure name="initialpos" >
  <crystal>
   <varray name="basis" >
    <v>       2.13000000      -1.22975600       0.00000000 </v>
    <v>       2.13000000       1.22975600       0.00000000 </v>
    <v>       0.00000000       0.00000000      20.00000000 </v>
   </varray>
   <i name="volume">    104.77521120 </i>
   <varray name="rec_basis" >
    <v>       0.23474178      -0.40658472       0.00000000 </v>
    <v>       0.23474178       0.40658472       0.00000000 </v>
    <v>       0.00000000       0.00000000       0.05000000 </v>
   </varray>
  </crystal>
  <varray name="positions" >
   <v>       0.00000000       0.00000000       0.00000000 </v>
   <v>       0.33333300       0.33333300       0.00000000 </v>
   <v>       0.00000000       0.00000000       0.25000000 </v>
   <v>       0.33333300       0.33333300       0.25000000 </v>
  </varray>
  <varray name="selective"  type="logical" >
   <v type="logical" >  F  F  F </v>
   <v type="logical" >  F  F  F </v>
   <v type="logical" >  F  F  T </v>
   <v type="logical" >  F  F  T </v>
  </varray>
  <nose>
   <v>      -3.00000000       0.00000000       0.00010000       0.00010000 </v>
  </nose>
 </structure>
 <calculation>
  <scstep>
   <time name="dav">    1.41    1.42</time>
   <time name="total">    1.54    1.56</time>
   <energy>
    <i name="alphaZ">     12.54445055 </i>
    <i name="ewald">   2145.51726299 </i>
    <i name="hartreedc">  -2607.28434386 </i>
    <i name="XCdc">     52.79485799 </i>
    <i name="pawpsdc">    434.08818552 </i>
    <i name="pawaedc">   -436.36580876 </i>
    <i name="eentropy">     -0.00000000 </i>
    <i name="bandstr">    -62.18033464 </i>
    <i name="atom">    588.61769381 </i>
    <i name="e_fr_energy">    127.73196360 </i>
    <i name="e_wo_entrp">    127.73196360 </i>
    <i name="e_0_energy">    127.73196360 </i>
   </energy>
  </scstep>
  <scstep>
   <time name="dav">    1.98    1.99</time>
   <time name="total">    1.98    1.99</time>
   <energy>
    <i name="e_fr_energy">    -25.16097599 </i>
    <i name="e_wo_entrp">    -25.16085370 </i>
    <i name="e_0_energy">    -25.16091485 </i>
   </energy>
  </scstep>
  <scstep>
   <time name="dav">    1.61    1.62</time>
   <time name="total">    1.61    1.62</time>
   <energy>
    <i name="e_fr_energy">    -39.21587380 </i>
    <i name="e_wo_entrp">    -39.21584581 </i>
    <i name="e_0_energy">    -39.21585981 </i>
   </energy>
  </scstep>
  <scstep>
   <time name="dav">    1.63    1.64</time>
   <time name="total">    1.63    1.64</time>
   <energy>
    <i name="e_fr_energy">    -39.52353446 </i>
    <i name="e_wo_entrp">    -39.52348274 </i>
    <i name="e_0_energy">    -39.52350860 </i>
   </energy>
  </scstep>
  <scstep>
   <time name="dav">    1.64    1.65</time>
   <time name="total">    1.82    1.83</time>
   <energy>
    <i name="e_fr_energy">    -39.53252008 </i>
    <i name="e_wo_entrp">    -39.53246996 </i>
    <i name="e_0_energy">    -39.53249502 </i>
   </energy>
  </scstep>
  <scstep>
   <time name="dav">    1.59    1.60</time>
   <time name="total">    1.88    1.88</time>
   <energy>
    <i name="e_fr_energy">    -37.65243141 </i>
    <i name="e_wo_entrp">    -37.65240567 </i>
    <i name="e_0_energy">    -37.65241854 </i>
   </energy>
  </scstep>
  <scstep>
   <time name="dav">    1.63    1.63</time>
   <time name="total">    1.91    1.91</time>
   <energy>
    <i name="e_fr_energy">    -36.93838765 </i>
    <i name="e_wo_entrp">    -36.93838238 </i>
    <i name="e_0_energy">    -36.93838501 </i>
   </energy>
  </scstep>
  <scstep>
   <time name="dav">    1.64    1.65</time>
   <time name="total">    1.92    1.93</time>
   <energy>
    <i name="e_fr_energy">    -36.93855962 </i>
    <i name="e_wo_entrp">    -36.93855375 </i>
    <i name="e_0_energy">    -36.93855669 </i>
   </energy>
  </scstep>
  <scstep>
   <time name="dav">    1.67    1.67</time>
   <time name="total">    1.95    1.95</time>
   <energy>
    <i name="e_fr_energy">    -36.93738573 </i>
    <i name="e_wo_entrp">    -36.93737995 </i>
    <i name="e_0_energy">    -36.93738284 </i>
   </energy>
  </scstep>
  <scstep>
   <time name="dav">    1.58    1.58</time>
   <time name="total">    1.86    1.86</time>
   <energy>
    <i name="e_fr_energy">    -36.93341569 </i>
    <i name="e_wo_entrp">    -36.93341407 </i>
    <i name="e_0_energy">    -36.93341488 </i>
   </energy>
  </scstep>
  <scstep>
   <time name="dav">    1.52    1.53</time>
   <time name="total">    1.81    1.81</time>
   <energy>
    <i name="e_fr_energy">    -36.93242865 </i>
    <i name="e_wo_entrp">    -36.93242359 </i>
    <i name="e_0_energy">    -36.93242612 </i>
   </energy>
  </scstep>
  <scstep>
   <time name="dav">    1.46    1.47</time>
   <time name="total">    1.75    1.75</time>
   <energy>
    <i name="e_fr_energy">    -36.92947462 </i>
    <i name="e_wo_entrp">    -36.92946982 </i>
    <i name="e_0_energy">    -36.92947222 </i>
   </energy>
  </scstep>
  <scstep>
   <time name="dav">    1.54    1.54</time>
   <time name="total">    1.82    1.82</time>
   <energy>
    <i name="e_fr_energy">    -36.92759119 </i>
    <i name="e_wo_entrp">    -36.92758532 </i>
    <i name="e_0_energy">    -36.92758826 </i>
   </energy>
  </scstep>
  <scstep>
   <time name="dav">    1.54    1.54</time>
   <time name="total">    1.81    1.82</time>
   <energy>
    <i name="e_fr_energy">    -36.92864187 </i>
    <i name="e_wo_entrp">    -36.92863650 </i>
    <i name="e_0_energy">    -36.92863919 </i>
   </energy>
  </scstep>
  <scstep>
   <time name="dav">    1.56    1.56</time>
   <time name="total">    1.83    1.84</time>
   <energy>
    <i name="e_fr_energy">    -36.92904725 </i>
    <i name="e_wo_entrp">    -36.92904115 </i>
    <i name="e_0_energy">    -36.92904420 </i>
   </energy>
  </scstep>
  <scstep>
   <time name="dav">    1.50    1.51</time>
   <time name="total">    1.78    1.79</time>
   <energy>
    <i name="e_fr_energy">    -36.92985560 </i>
    <i name="e_wo_entrp">    -36.92984985 </i>
    <i name="e_0_energy">    -36.92985272 </i>
   </energy>
  </scstep>
  <scstep>
   <time name="dav">    1.53    1.54</time>
   <time name="total">    1.82    1.82</time>
   <energy>
    <i name="e_fr_energy">    -36.92994741 </i>
    <i name="e_wo_entrp">    -36.92994143 </i>
    <i name="e_0_energy">    -36.92994442 </i>
   </energy>
  </scstep>
  <scstep>
   <time name="dav">    1.52    1.53</time>
   <time name="total">    1.80    1.81</time>
   <energy>
    <i name="e_fr_energy">    -36.92996331 </i>
    <i name="e_wo_entrp">    -36.92995727 </i>
    <i name="e_0_energy">    -36.92996029 </i>
   </energy>
  </scstep>
  <scstep>
   <time name="dav">    1.56    1.56</time>
   <time name="total">    1.84    1.85</time>
   <energy>
    <i name="e_fr_energy">    -36.92996724 </i>
    <i name="e_wo_entrp">    -36.92996121 </i>
    <i name="e_0_energy">    -36.92996423 </i>
   </energy>
  </scstep>
  <scstep>
   <time name="dav">    1.56    1.57</time>
   <time name="total">    1.84    1.85</time>
   <energy>
    <i name="e_fr_energy">    -36.92996822 </i>
    <i name="e_wo_entrp">    -36.92996218 </i>
    <i name="e_0_energy">    -36.92996520 </i>
   </energy>
  </scstep>
  <scstep>
   <time name="dav">    1.34    1.35</time>
   <time name="total">    1.63    1.63</time>
   <energy>
    <i name="e_fr_energy">    -36.92996844 </i>
    <i name="e_wo_entrp">    -36.92996240 </i>
    <i name="e_0_energy">    -36.92996542 </i>
   </energy>
  </scstep>
  <scstep>
   <time name="dav">    1.26    1.27</time>
   <time name="total">    1.54    1.55</time>
   <energy>
    <i name="e_fr_energy">    -36.92996850 </i>
    <i name="e_wo_entrp">    -36.92996246 </i>
    <i name="e_0_energy">    -36.92996548 </i>
   </energy>
  </scstep>
  <scstep>
   <time name="dav">    1.22    1.23</time>
   <time name="total">    1.50    1.51</time>
   <energy>
    <i name="e_fr_energy">    -36.92996856 </i>
    <i name="e_wo_entrp">    -36.92996252 </i>
    <i name="e_0_energy">    -36.92996554 </i>
   </energy>
  </scstep>
  <scstep>
   <time name="dav">    1.19    1.19</time>
   <time name="total">    1.47    1.47</time>
   <energy>
    <i name="e_fr_energy">    -36.92996857 </i>
    <i name="e_wo_entrp">    -36.92996254 </i>
    <i name="e_0_energy">    -36.92996556 </i>
   </energy>
  </scstep>
  <scstep>
   <time name="dav">    1.22    1.23</time>
   <time name="total">    1.33    1.33</time>
   <energy>
    <i name="alphaZ">     12.54445055 </i>
    <i name="ewald">   2145.51726299 </i>
    <i name="hartreedc">  -2669.89767834 </i>
    <i name="XCdc">     55.18497831 </i>
    <i name="pawpsdc">   1695.61262594 </i>
    <i name="pawaedc">  -1698.33526588 </i>
    <i name="eentropy">     -0.00000603 </i>
    <i name="bandstr">   -166.17402993 </i>
    <i name="atom">    588.61769381 </i>
    <i name="e_fr_energy">    -36.92996858 </i>
    <i name="e_wo_entrp">    -36.92996255 </i>
    <i name="e_0_energy">    -36.92996556 </i>
   </energy>
  </scstep>
  <structure>
   <crystal>
    <varray name="basis" >
     <v>       2.13000000      -1.22975600       0.00000000 </v>
     <v>       2.13000000       1.22975600       0.00000000 </v>
     <v>       0.00000000       0.00000000      20.00000000 </v>
    </varray>
    <i name="volume">    104.77521120 </i>
    <varray name="rec_basis" >
     <v>       0.23474178      -0.40658472       0.00000000 </v>
     <v>       0.23474178       0.40658472       0.00000000 </v>
     <v>       0.00000000       0.00000000       0.05000000 </v>
    </varray>
   </crystal>
   <varray name="positions" >
    <v>       0.00000000       0.00000000       0.00000000 </v>
    <v>       0.33333300       0.33333300       0.00000000 </v>
    <v>       0.00000000       0.00000000       0.25000000 </v>
    <v>       0.33333300       0.33333300       0.25000000 </v>
   </varray>
  </structure>
  <varray name="forces" >
   <v>      -0.00000000      -0.00000000       0.00120785 </v>
   <v>       0.00000000       0.00000000       0.00120785 </v>
   <v>      -0.00000000      -0.00000000      -0.00120785 </v>
   <v>      -0.00000000       0.00000000      -0.00120785 </v>
  </varray>
  <varray name="stress" >
   <v>      12.73907189       0.00000000       0.00000000 </v>
   <v>       0.00000000      12.73907037       0.00000000 </v>
   <v>       0.00000000       0.00000000      -0.86191938 </v>
  </varray>
  <energy>
   <i name="e_fr_energy">    -36.92996858 </i>
   <i name="e_wo_entrp">    -36.92996556 </i>
   <i name="e_0_energy">     -0.00000603 </i>
  </energy>
  <time name="totalsc">   46.36   46.78</time>
 </calculation>
 <calculation>
  <scstep>
   <time name="dav">    1.50    1.51</time>
   <time name="total">    1.79    1.81</time>
   <energy>
    <i name="alphaZ">     12.54445055 </i>
    <i name="ewald">   2145.54946658 </i>
    <i name="hartreedc">  -2669.92990816 </i>
    <i name="XCdc">     55.18497963 </i>
    <i name="pawpsdc">   1695.61213361 </i>
    <i name="pawaedc">  -1698.33477412 </i>
    <i name="eentropy">     -0.00000603 </i>
    <i name="bandstr">   -166.17400459 </i>
    <i name="atom">    588.61769381 </i>
    <i name="e_fr_energy">    -36.92996872 </i>
    <i name="e_wo_entrp">    -36.92996269 </i>
    <i name="e_0_energy">    -36.92996571 </i>
   </energy>
  </scstep>
  <scstep>
   <time name="dav">    1.54    1.54</time>
   <time name="total">    1.81    1.82</time>
   <energy>
    <i name="e_fr_energy">    -36.92996873 </i>
    <i name="e_wo_entrp">    -36.92996270 </i>
    <i name="e_0_energy">    -36.92996571 </i>
   </energy>
  </scstep>
  <scstep>
   <time name="dav">    1.31    1.31</time>
   <time name="total">    1.59    1.59</time>
   <energy>
    <i name="e_fr_energy">    -36.92996873 </i>
    <i name="e_wo_entrp">    -36.92996270 </i>
    <i name="e_0_energy">    -36.92996571 </i>
   </energy>
  </scstep>
  <scstep>
   <time name="dav">    1.21    1.22</time>
   <time name="total">    1.50    1.50</time>
   <energy>
    <i name="e_fr_energy">    -36.92996873 </i>
    <i name="e_wo_entrp">    -36.92996270 </i>
    <i name="e_0_energy">    -36.92996571 </i>
   </energy>
  </scstep>
  <scstep>
   <time name="dav">    1.24    1.24</time>
   <time name="total">    1.35    1.35</time>
   <energy>
    <i name="alphaZ">     12.54445055 </i>
    <i name="ewald">   2145.54946658 </i>
    <i name="hartreedc">  -2669.92993891 </i>
    <i name="XCdc">     55.18497905 </i>
    <i name="pawpsdc">   1695.61273614 </i>
    <i name="pawaedc">  -1698.33537645 </i>
    <i name="eentropy">     -0.00000603 </i>
    <i name="bandstr">   -166.17397346 </i>
    <i name="atom">    588.61769381 </i>
    <i name="e_fr_energy">    -36.92996873 </i>
    <i name="e_wo_entrp">    -36.92996270 </i>
    <i name="e_0_energy">    -36.92996571 </i>
   </energy>
  </scstep>
  <structure>
   <crystal>
    <varray name="basis" >
     <v>       2.13000000      -1.22975600       0.00000000 </v>
     <v>       2.13000000       1.22975600       0.00000000 </v>
     <v>       0.00000000       0.00000000      20.00000000 </v>
    </varray>
    <i name="volume">    104.77521120 </i>
    <varray name="rec_basis" >
     <v>       0.23474178      -0.40658472       0.00000000 </v>
     <v>       0.23474178       0.40658472       0.00000000 </v>
     <v>       0.00000000       0.00000000       0.05000000 </v>
    </varray>
   </crystal>
   <varray name="positions" >
    <v>       0.00000000       0.00000000       0.00000000 </v>
    <v>       0.33333300       0.33333300       0.00000000 </v>
    <v>       0.00000000       0.00000000       0.24999709 </v>
    <v>       0.33333300       0.33333300       0.24999709 </v>
   </varray>
  </structure>
  <varray name="forces" >
   <v>       0.00000000       0.00000000       0.00119141 </v>
   <v>      -0.00000000      -0.00000000       0.00119141 </v>
   <v>       0.00000000      -0.00000000      -0.00119141 </v>
   <v>      -0.00000000      -0.00000000      -0.00119141 </v>
  </varray>
  <varray name="stress" >
   <v>      12.73896942       0.00000000       0.00000000 </v>
   <v>       0.00000000      12.73896790       0.00000000 </v>
   <v>       0.00000000       0.00000000      -0.86235323 </v>
  </varray>
  <energy>
   <i name="e_fr_energy">    -36.92996873 </i>
   <i name="e_wo_entrp">    -36.92996571 </i>
   <i name="e_0_energy">     -0.00000603 </i>
  </energy>
  <time name="totalsc">   10.18   10.30</time>
 </calculation>
 <calculation>
  <scstep>
   <time name="dav">    1.42    1.43</time>
   <time name="total">    1.71    1.73</time>
   <energy>
    <i name="alphaZ">     12.54445055 </i>
    <i name="ewald">   2145.64607960 </i>
    <i name="hartreedc">  -2670.02654946 </i>
    <i name="XCdc">     55.18497946 </i>
    <i name="pawpsdc">   1695.61260497 </i>
    <i name="pawaedc">  -1698.33524526 </i>
    <i name="eentropy">     -0.00000602 </i>
    <i name="bandstr">   -166.17397678 </i>
    <i name="atom">    588.61769381 </i>
    <i name="e_fr_energy">    -36.92996913 </i>
    <i name="e_wo_entrp">    -36.92996311 </i>
    <i name="e_0_energy">    -36.92996612 </i>
   </energy>
  </scstep>
  <scstep>
   <time name="dav">    1.54    1.54</time>
   <time name="total">    1.82    1.82</time>
   <energy>
    <i name="e_fr_energy">    -36.92996918 </i>
    <i name="e_wo_entrp">    -36.92996316 </i>
    <i name="e_0_energy">    -36.92996617 </i>
   </energy>
  </scstep>
  <scstep>
   <time name="dav">    1.58    1.59</time>
   <time name="total">    1.86    1.87</time>
   <energy>
    <i name="e_fr_energy">    -36.92996914 </i>
    <i name="e_wo_entrp">    -36.92996312 </i>
    <i name="e_0_energy">    -36.92996613 </i>
   </energy>
  </scstep>
  <scstep>
   <time name="dav">    1.51    1.52</time>
   <time name="total">    1.79    1.80</time>
   <energy>
    <i name="e_fr_energy">    -36.92996915 </i>
    <i name="e_wo_entrp">    -36.92996313 </i>
    <i name="e_0_energy">    -36.92996614 </i>
   </energy>
  </scstep>
  <scstep>
   <time name="dav">    1.23    1.23</time>
   <time name="total">    1.34    1.34</time>
   <energy>
    <i name="alphaZ">     12.54445055 </i>
    <i name="ewald">   2145.64607960 </i>
    <i name="hartreedc">  -2670.02666749 </i>
    <i name="XCdc">     55.18497908 </i>
    <i name="pawpsdc">   1695.61413628 </i>
    <i name="pawaedc">  -1698.33677694 </i>
    <i name="eentropy">     -0.00000602 </i>
    <i name="bandstr">   -166.17385801 </i>
    <i name="atom">    588.61769381 </i>
    <i name="e_fr_energy">    -36.92996915 </i>
    <i name="e_wo_entrp">    -36.92996313 </i>
    <i name="e_0_energy">    -36.92996614 </i>
   </energy>
  </scstep>
  <structure>
   <crystal>
    <varray name="basis" >
     <v>       2.13000000      -1.22975600       0.00000000 </v>
     <v>       2.13000000       1.22975600       0.00000000 </v>
     <v>       0.00000000       0.00000000      20.00000000 </v>
    </varray>
    <i name="volume">    104.77521120 </i>
    <varray name="rec_basis" >
     <v>       0.23474178      -0.40658472       0.00000000 </v>
     <v>       0.23474178       0.40658472       0.00000000 </v>
     <v>       0.00000000       0.00000000       0.05000000 </v>
    </varray>
   </crystal>
   <varray name="positions" >
    <v>       0.00000000       0.00000000       0.00000000 </v>
    <v>       0.33333300       0.33333300       0.00000000 </v>
    <v>       0.00000000       0.00000000       0.24998835 </v>
    <v>       0.33333300       0.33333300       0.24998835 </v>
   </varray>
  </structure>
  <varray name="forces" >
   <v>      -0.00000000       0.00000000       0.00117665 </v>
   <v>       0.00000000       0.00000000       0.00117665 </v>
   <v>       0.00000000      -0.00000000      -0.00117665 </v>
   <v>      -0.00000000      -0.00000000      -0.00117665 </v>
  </varray>
  <varray name="stress" >
   <v>      12.73887039       0.00000000       0.00000000 </v>
   <v>       0.00000000      12.73886887      -0.00000000 </v>
   <v>       0.00000000       0.00000000      -0.86270169 </v>
  </varray>
  <energy>
   <i name="e_fr_energy">    -36.92996915 </i>
   <i name="e_wo_entrp">    -36.92996614 </i>
   <i name="e_0_energy">     -0.00000602 </i>
  </energy>
  <time name="totalsc">   10.67   10.78</time>
 </calculation>
 <calculation>
  <scstep>
   <time name="dav">    1.42    1.42</time>
   <time name="total">    1.71    1.73</time>
   <energy>
    <i name="alphaZ">     12.54445055 </i>
    <i name="ewald">   2145.83931578 </i>
    <i name="hartreedc">  -2670.21989225 </i>
    <i name="XCdc">     55.18497997 </i>
    <i name="pawpsdc">   1695.61315418 </i>
    <i name="pawaedc">  -1698.33579474 </i>
    <i name="eentropy">     -0.00000599 </i>
    <i name="bandstr">   -166.17387117 </i>
    <i name="atom">    588.61769381 </i>
    <i name="e_fr_energy">    -36.92996987 </i>
    <i name="e_wo_entrp">    -36.92996388 </i>
    <i name="e_0_energy">    -36.92996688 </i>
   </energy>
  </scstep>
  <scstep>
   <time name="dav">    1.53    1.53</time>
   <time name="total">    1.81    1.81</time>
   <energy>
    <i name="e_fr_energy">    -36.92997010 </i>
    <i name="e_wo_entrp">    -36.92996411 </i>
    <i name="e_0_energy">    -36.92996711 </i>
   </energy>
  </scstep>
  <scstep>
   <time name="dav">    1.58    1.59</time>
   <time name="total">    1.86    1.87</time>
   <energy>
    <i name="e_fr_energy">    -36.92996996 </i>
    <i name="e_wo_entrp">    -36.92996397 </i>
    <i name="e_0_energy">    -36.92996697 </i>
   </energy>
  </scstep>
  <scstep>
   <time name="dav">    1.54    1.55</time>
   <time name="total">    1.82    1.83</time>
   <energy>
    <i name="e_fr_energy">    -36.92996998 </i>
    <i name="e_wo_entrp">    -36.92996399 </i>
    <i name="e_0_energy">    -36.92996699 </i>
   </energy>
  </scstep>
  <scstep>
   <time name="dav">    1.26    1.27</time>
   <time name="total">    1.37    1.37</time>
   <energy>
    <i name="alphaZ">     12.54445055 </i>
    <i name="ewald">   2145.83931578 </i>
    <i name="hartreedc">  -2670.22011571 </i>
    <i name="XCdc">     55.18497896 </i>
    <i name="pawpsdc">   1695.61924783 </i>
    <i name="pawaedc">  -1698.34188877 </i>
    <i name="eentropy">     -0.00000600 </i>
    <i name="bandstr">   -166.17364643 </i>
    <i name="atom">    588.61769381 </i>
    <i name="e_fr_energy">    -36.92996999 </i>
    <i name="e_wo_entrp">    -36.92996399 </i>
    <i name="e_0_energy">    -36.92996699 </i>
   </energy>
  </scstep>
  <structure>
   <crystal>
    <varray name="basis" >
     <v>       2.13000000      -1.22975600       0.00000000 </v>
     <v>       2.13000000       1.22975600       0.00000000 </v>
     <v>       0.00000000       0.00000000      20.00000000 </v>
    </varray>
    <i name="volume">    104.77521120 </i>
    <varray name="rec_basis" >
     <v>       0.23474178      -0.40658472       0.00000000 </v>
     <v>       0.23474178       0.40658472       0.00000000 </v>
     <v>       0.00000000       0.00000000       0.05000000 </v>
    </varray>
   </crystal>
   <varray name="positions" >
    <v>       0.00000000       0.00000000       0.00000000 </v>
    <v>       0.33333300       0.33333300       0.00000000 </v>
    <v>       0.00000000       0.00000000       0.24997087 </v>
    <v>       0.33333300       0.33333300       0.24997087 </v>
   </varray>
  </structure>
  <varray name="forces" >
   <v>       0.00000000       0.00000000       0.00114973 </v>
   <v>      -0.00000000       0.00000000       0.00114973 </v>
   <v>      -0.00000000      -0.00000000      -0.00114973 </v>
   <v>       0.00000000      -0.00000000      -0.00114973 </v>
  </varray>
  <varray name="stress" >
   <v>      12.73867474       0.00000000      -0.00000000 </v>
   <v>       0.00000000      12.73867322       0.00000000 </v>
   <v>      -0.00000000       0.00000000      -0.86348124 </v>
  </varray>
  <energy>
   <i name="e_fr_energy">    -36.92996999 </i>
   <i name="e_wo_entrp">    -36.92996699 </i>
   <i name="e_0_energy">     -0.00000600 </i>
  </energy>
  <time name="totalsc">   10.71   10.82</time>
 </calculation>
 <calculation>
  <scstep>
   <time name="dav">    1.41    1.41</time>
   <time name="total">    1.70    1.72</time>
   <energy>
    <i name="alphaZ">     12.54445055 </i>
    <i name="ewald">   2146.22582866 </i>
    <i name="hartreedc">  -2670.60658960 </i>
    <i name="XCdc">     55.18498047 </i>
    <i name="pawpsdc">   1695.61525045 </i>
    <i name="pawaedc">  -1698.33789121 </i>
    <i name="eentropy">     -0.00000595 </i>
    <i name="bandstr">   -166.17368838 </i>
    <i name="atom">    588.61769381 </i>
    <i name="e_fr_energy">    -36.92997120 </i>
    <i name="e_wo_entrp">    -36.92996525 </i>
    <i name="e_0_energy">    -36.92996822 </i>
   </energy>
  </scstep>
  <scstep>
   <time name="dav">    1.51    1.52</time>
   <time name="total">    1.79    1.80</time>
   <energy>
    <i name="e_fr_energy">    -36.92997214 </i>
    <i name="e_wo_entrp">    -36.92996619 </i>
    <i name="e_0_energy">    -36.92996917 </i>
   </energy>
  </scstep>
  <scstep>
   <time name="dav">    1.58    1.59</time>
   <time name="total">    1.87    1.87</time>
   <energy>
    <i name="e_fr_energy">    -36.92997158 </i>
    <i name="e_wo_entrp">    -36.92996563 </i>
    <i name="e_0_energy">    -36.92996861 </i>
   </energy>
  </scstep>
  <scstep>
   <time name="dav">    1.55    1.55</time>
   <time name="total">    1.83    1.83</time>
   <energy>
    <i name="e_fr_energy">    -36.92997166 </i>
    <i name="e_wo_entrp">    -36.92996570 </i>
    <i name="e_0_energy">    -36.92996868 </i>
   </energy>
  </scstep>
  <scstep>
   <time name="dav">    1.49    1.49</time>
   <time name="total">    1.59    1.60</time>
   <energy>
    <i name="alphaZ">     12.54445055 </i>
    <i name="ewald">   2146.22582866 </i>
    <i name="hartreedc">  -2670.60704039 </i>
    <i name="XCdc">     55.18497911 </i>
    <i name="pawpsdc">   1695.62787177 </i>
    <i name="pawaedc">  -1698.35051325 </i>
    <i name="eentropy">     -0.00000595 </i>
    <i name="bandstr">   -166.17323597 </i>
    <i name="atom">    588.61769381 </i>
    <i name="e_fr_energy">    -36.92997166 </i>
    <i name="e_wo_entrp">    -36.92996571 </i>
    <i name="e_0_energy">    -36.92996869 </i>
   </energy>
  </scstep>
  <structure>
   <crystal>
    <varray name="basis" >
     <v>       2.13000000      -1.22975600       0.00000000 </v>
     <v>       2.13000000       1.22975600       0.00000000 </v>
     <v>       0.00000000       0.00000000      20.00000000 </v>
    </varray>
    <i name="volume">    104.77521120 </i>
    <varray name="rec_basis" >
     <v>       0.23474178      -0.40658472       0.00000000 </v>
     <v>       0.23474178       0.40658472       0.00000000 </v>
     <v>       0.00000000       0.00000000       0.05000000 </v>
    </varray>
   </crystal>
   <varray name="positions" >
    <v>       0.00000000       0.00000000       0.00000000 </v>
    <v>       0.33333300       0.33333300       0.00000000 </v>
    <v>       0.00000000       0.00000000       0.24993590 </v>
    <v>       0.33333300       0.33333300       0.24993590 </v>
   </varray>
  </structure>
  <varray name="forces" >
   <v>       0.00000000       0.00000000       0.00110613 </v>
   <v>      -0.00000000      -0.00000000       0.00110613 </v>
   <v>       0.00000000       0.00000000      -0.00110613 </v>
   <v>      -0.00000000      -0.00000000      -0.00110613 </v>
  </varray>
  <varray name="stress" >
   <v>      12.73809641       0.00000000       0.00000000 </v>
   <v>       0.00000000      12.73809489       0.00000000 </v>
   <v>       0.00000000      -0.00000000      -0.86508053 </v>
  </varray>
  <energy>
   <i name="e_fr_energy">    -36.92997166 </i>
   <i name="e_wo_entrp">    -36.92996869 </i>
   <i name="e_0_energy">     -0.00000595 </i>
  </energy>
  <time name="totalsc">   10.93   11.04</time>
 </calculation>
 <calculation>
  <scstep>
   <time name="dav">    1.41    1.42</time>
   <time name="total">    1.71    1.73</time>
   <energy>
    <i name="alphaZ">     12.54445055 </i>
    <i name="ewald">   2146.99901656 </i>
    <i name="hartreedc">  -2671.38011206 </i>
    <i name="XCdc">     55.18498094 </i>
    <i name="pawpsdc">   1695.61938677 </i>
    <i name="pawaedc">  -1698.34202765 </i>
    <i name="eentropy">     -0.00000586 </i>
    <i name="bandstr">   -166.17335611 </i>
    <i name="atom">    588.61769381 </i>
    <i name="e_fr_energy">    -36.92997305 </i>
    <i name="e_wo_entrp">    -36.92996719 </i>
    <i name="e_0_energy">    -36.92997012 </i>
   </energy>
  </scstep>
  <scstep>
   <time name="dav">    1.51    1.52</time>
   <time name="total">    1.79    1.80</time>
   <energy>
    <i name="e_fr_energy">    -36.92997695 </i>
    <i name="e_wo_entrp">    -36.92997109 </i>
    <i name="e_0_energy">    -36.92997402 </i>
   </energy>
  </scstep>
  <scstep>
   <time name="dav">    1.57    1.58</time>
   <time name="total">    1.85    1.86</time>
   <energy>
    <i name="e_fr_energy">    -36.92997471 </i>
    <i name="e_wo_entrp">    -36.92996884 </i>
    <i name="e_0_energy">    -36.92997177 </i>
   </energy>
  </scstep>
  <scstep>
   <time name="dav">    1.54    1.54</time>
   <time name="total">    1.82    1.82</time>
   <energy>
    <i name="e_fr_energy">    -36.92997500 </i>
    <i name="e_wo_entrp">    -36.92996913 </i>
    <i name="e_0_energy">    -36.92997206 </i>
   </energy>
  </scstep>
  <scstep>
   <time name="dav">    1.67    1.67</time>
   <time name="total">    1.95    1.96</time>
   <energy>
    <i name="e_fr_energy">    -36.92997502 </i>
    <i name="e_wo_entrp">    -36.92996916 </i>
    <i name="e_0_energy">    -36.92997209 </i>
   </energy>
  </scstep>
  <scstep>
   <time name="dav">    1.56    1.57</time>
   <time name="total">    1.67    1.68</time>
   <energy>
    <i name="alphaZ">     12.54445055 </i>
    <i name="ewald">   2146.99901656 </i>
    <i name="hartreedc">  -2671.38093143 </i>
    <i name="XCdc">     55.18497968 </i>
    <i name="pawpsdc">   1695.62733471 </i>
    <i name="pawaedc">  -1698.34997559 </i>
    <i name="eentropy">     -0.00000587 </i>
    <i name="bandstr">   -166.17253747 </i>
    <i name="atom">    588.61769381 </i>
    <i name="e_fr_energy">    -36.92997503 </i>
    <i name="e_wo_entrp">    -36.92996916 </i>
    <i name="e_0_energy">    -36.92997210 </i>
   </energy>
  </scstep>
  <structure>
   <crystal>
    <varray name="basis" >
     <v>       2.13000000      -1.22975600       0.00000000 </v>
     <v>       2.13000000       1.22975600       0.00000000 </v>
     <v>       0.00000000       0.00000000      20.00000000 </v>
    </varray>
    <i name="volume">    104.77521120 </i>
    <varray name="rec_basis" >
     <v>       0.23474178      -0.40658472       0.00000000 </v>
     <v>       0.23474178       0.40658472       0.00000000 </v>
     <v>       0.00000000       0.00000000       0.05000000 </v>
    </varray>
   </crystal>
   <varray name="positions" >
    <v>       0.00000000       0.00000000       0.00000000 </v>
    <v>       0.33333300       0.33333300       0.00000000 </v>
    <v>       0.00000000       0.00000000       0.24986598 </v>
    <v>       0.33333300       0.33333300       0.24986598 </v>
   </varray>
  </structure>
  <varray name="forces" >
   <v>       0.00000000       0.00000000       0.00108221 </v>
   <v>      -0.00000000      -0.00000000       0.00108221 </v>
   <v>      -0.00000000       0.00000000      -0.00108221 </v>
   <v>      -0.00000000      -0.00000000      -0.00108221 </v>
  </varray>
  <varray name="stress" >
   <v>      12.73968738      -0.00000000       0.00000000 </v>
   <v>       0.00000000      12.73968586       0.00000000 </v>
   <v>       0.00000000       0.00000000      -0.86009073 </v>
  </varray>
  <energy>
   <i name="e_fr_energy">    -36.92997503 </i>
   <i name="e_wo_entrp">    -36.92997210 </i>
   <i name="e_0_energy">     -0.00000587 </i>
  </energy>
  <time name="totalsc">   12.94   13.06</time>
 </calculation>
 <calculation>
  <scstep>
   <time name="dav">    1.40    1.41</time>
   <time name="total">    1.70    1.72</time>
   <energy>
    <i name="alphaZ">     12.54445055 </i>
    <i name="ewald">   2148.54604090 </i>
    <i name="hartreedc">  -2672.92767827 </i>
    <i name="XCdc">     55.18498550 </i>
    <i name="pawpsdc">   1695.61663547 </i>
    <i name="pawaedc">  -1698.33927701 </i>
    <i name="eentropy">     -0.00000568 </i>
    <i name="bandstr">   -166.17282063 </i>
    <i name="atom">    588.61769381 </i>
    <i name="e_fr_energy">    -36.92997537 </i>
    <i name="e_wo_entrp">    -36.92996970 </i>
    <i name="e_0_energy">    -36.92997253 </i>
   </energy>
  </scstep>
  <scstep>
   <time name="dav">    1.52    1.52</time>
   <time name="total">    1.80    1.81</time>
   <energy>
    <i name="e_fr_energy">    -36.92998952 </i>
    <i name="e_wo_entrp">    -36.92998383 </i>
    <i name="e_0_energy">    -36.92998667 </i>
   </energy>
  </scstep>
  <scstep>
   <time name="dav">    1.57    1.58</time>
   <time name="total">    1.85    1.86</time>
   <energy>
    <i name="e_fr_energy">    -36.92998060 </i>
    <i name="e_wo_entrp">    -36.92997490 </i>
    <i name="e_0_energy">    -36.92997775 </i>
   </energy>
  </scstep>
  <scstep>
   <time name="dav">    1.55    1.55</time>
   <time name="total">    1.83    1.84</time>
   <energy>
    <i name="e_fr_energy">    -36.92998166 </i>
    <i name="e_wo_entrp">    -36.92997597 </i>
    <i name="e_0_energy">    -36.92997881 </i>
   </energy>
  </scstep>
  <scstep>
   <time name="dav">    1.70    1.71</time>
   <time name="total">    1.98    1.99</time>
   <energy>
    <i name="e_fr_energy">    -36.92998177 </i>
    <i name="e_wo_entrp">    -36.92997608 </i>
    <i name="e_0_energy">    -36.92997892 </i>
   </energy>
  </scstep>
  <scstep>
   <time name="dav">    1.57    1.57</time>
   <time name="total">    1.67    1.68</time>
   <energy>
    <i name="alphaZ">     12.54445055 </i>
    <i name="ewald">   2148.54604090 </i>
    <i name="hartreedc">  -2672.92937925 </i>
    <i name="XCdc">     55.18498333 </i>
    <i name="pawpsdc">   1695.64093060 </i>
    <i name="pawaedc">  -1698.36357198 </i>
    <i name="eentropy">     -0.00000569 </i>
    <i name="bandstr">   -166.17112404 </i>
    <i name="atom">    588.61769381 </i>
    <i name="e_fr_energy">    -36.92998177 </i>
    <i name="e_wo_entrp">    -36.92997608 </i>
    <i name="e_0_energy">    -36.92997892 </i>
   </energy>
  </scstep>
  <structure>
   <crystal>
    <varray name="basis" >
     <v>       2.13000000      -1.22975600       0.00000000 </v>
     <v>       2.13000000       1.22975600       0.00000000 </v>
     <v>       0.00000000       0.00000000      20.00000000 </v>
    </varray>
    <i name="volume">    104.77521120 </i>
    <varray name="rec_basis" >
     <v>       0.23474178      -0.40658472       0.00000000 </v>
     <v>       0.23474178       0.40658472       0.00000000 </v>
     <v>       0.00000000       0.00000000       0.05000000 </v>
    </varray>
   </crystal>
   <varray name="positions" >
    <v>       0.00000000       0.00000000       0.00000000 </v>
    <v>       0.33333300       0.33333300       0.00000000 </v>
    <v>       0.00000000       0.00000000       0.24972613 </v>
    <v>       0.33333300       0.33333300       0.24972613 </v>
   </varray>
  </structure>
  <varray name="forces" >
   <v>       0.00000000      -0.00000000       0.00098622 </v>
   <v>      -0.00000000       0.00000000       0.00098622 </v>
   <v>      -0.00000000      -0.00000000      -0.00098622 </v>
   <v>       0.00000000       0.00000000      -0.00098622 </v>
  </varray>
  <varray name="stress" >
   <v>      12.73991075       0.00000000       0.00000000 </v>
   <v>       0.00000000      12.73990923       0.00000000 </v>
   <v>       0.00000000       0.00000000      -0.85925241 </v>
  </varray>
  <energy>
   <i name="e_fr_energy">    -36.92998177 </i>
   <i name="e_wo_entrp">    -36.92997892 </i>
   <i name="e_0_energy">     -0.00000569 </i>
  </energy>
  <time name="totalsc">   12.99   13.11</time>
 </calculation>
 <calculation>
  <scstep>
   <time name="dav">    1.41    1.41</time>
   <time name="total">    1.70    1.72</time>
   <energy>
    <i name="alphaZ">     12.54445055 </i>
    <i name="ewald">   2151.64268365 </i>
    <i name="hartreedc">  -2676.02494136 </i>
    <i name="XCdc">     55.18497917 </i>
    <i name="pawpsdc">   1695.62188258 </i>
    <i name="pawaedc">  -1698.34452416 </i>
    <i name="eentropy">     -0.00000532 </i>
    <i name="bandstr">   -166.17218058 </i>
    <i name="atom">    588.61769381 </i>
    <i name="e_fr_energy">    -36.92996166 </i>
    <i name="e_wo_entrp">    -36.92995633 </i>
    <i name="e_0_energy">    -36.92995899 </i>
   </energy>
  </scstep>
  <scstep>
   <time name="dav">    1.51    1.52</time>
   <time name="total">    1.79    1.80</time>
   <energy>
    <i name="e_fr_energy">    -36.93002694 </i>
    <i name="e_wo_entrp">    -36.93002158 </i>
    <i name="e_0_energy">    -36.93002426 </i>
   </energy>
  </scstep>
  <scstep>
   <time name="dav">    1.58    1.58</time>
   <time name="total">    1.86    1.86</time>
   <energy>
    <i name="e_fr_energy">    -36.92999065 </i>
    <i name="e_wo_entrp">    -36.92998528 </i>
    <i name="e_0_energy">    -36.92998797 </i>
   </energy>
  </scstep>
  <scstep>
   <time name="dav">    1.54    1.54</time>
   <time name="total">    1.82    1.82</time>
   <energy>
    <i name="e_fr_energy">    -36.92999489 </i>
    <i name="e_wo_entrp">    -36.92998952 </i>
    <i name="e_0_energy">    -36.92999220 </i>
   </energy>
  </scstep>
  <scstep>
   <time name="dav">    1.70    1.71</time>
   <time name="total">    1.98    1.99</time>
   <energy>
    <i name="e_fr_energy">    -36.92999522 </i>
    <i name="e_wo_entrp">    -36.92998986 </i>
    <i name="e_0_energy">    -36.92999254 </i>
   </energy>
  </scstep>
  <scstep>
   <time name="dav">    1.58    1.59</time>
   <time name="total">    1.86    1.87</time>
   <energy>
    <i name="e_fr_energy">    -36.92999526 </i>
    <i name="e_wo_entrp">    -36.92998990 </i>
    <i name="e_0_energy">    -36.92999258 </i>
   </energy>
  </scstep>
  <scstep>
   <time name="dav">    1.59    1.60</time>
   <time name="total">    1.70    1.70</time>
   <energy>
    <i name="alphaZ">     12.54445055 </i>
    <i name="ewald">   2151.64268365 </i>
    <i name="hartreedc">  -2676.02865148 </i>
    <i name="XCdc">     55.18499826 </i>
    <i name="pawpsdc">   1695.63509273 </i>
    <i name="pawaedc">  -1698.35773331 </i>
    <i name="eentropy">     -0.00000536 </i>
    <i name="bandstr">   -166.16852411 </i>
    <i name="atom">    588.61769381 </i>
    <i name="e_fr_energy">    -36.92999526 </i>
    <i name="e_wo_entrp">    -36.92998990 </i>
    <i name="e_0_energy">    -36.92999258 </i>
   </energy>
  </scstep>
  <structure>
   <crystal>
    <varray name="basis" >
     <v>       2.13000000      -1.22975600       0.00000000 </v>
     <v>       2.13000000       1.22975600       0.00000000 </v>
     <v>       0.00000000       0.00000000      20.00000000 </v>
    </varray>
    <i name="volume">    104.77521120 </i>
    <varray name="rec_basis" >
     <v>       0.23474178      -0.40658472       0.00000000 </v>
     <v>       0.23474178       0.40658472       0.00000000 </v>
     <v>       0.00000000       0.00000000       0.05000000 </v>
    </varray>
   </crystal>
   <varray name="positions" >
    <v>       0.00000000       0.00000000       0.00000000 </v>
    <v>       0.33333300       0.33333300       0.00000000 </v>
    <v>       0.00000000       0.00000000       0.24944644 </v>
    <v>       0.33333300       0.33333300       0.24944644 </v>
   </varray>
  </structure>
  <varray name="forces" >
   <v>      -0.00000000       0.00000000       0.00106233 </v>
   <v>       0.00000000      -0.00000000       0.00106233 </v>
   <v>       0.00000000       0.00000000      -0.00106233 </v>
   <v>      -0.00000000       0.00000000      -0.00106233 </v>
  </varray>
  <varray name="stress" >
   <v>      12.73805103       0.00000000       0.00000000 </v>
   <v>       0.00000000      12.73804951      -0.00000000 </v>
   <v>       0.00000000       0.00000000      -0.86495723 </v>
  </varray>
  <energy>
   <i name="e_fr_energy">    -36.92999526 </i>
   <i name="e_wo_entrp">    -36.92999258 </i>
   <i name="e_0_energy">     -0.00000536 </i>
  </energy>
  <time name="totalsc">   14.86   14.97</time>
 </calculation>
 <calculation>
  <scstep>
   <time name="dav">    1.41    1.41</time>
   <time name="total">    1.70    1.72</time>
   <energy>
    <i name="alphaZ">     12.54445055 </i>
    <i name="ewald">   2157.84634557 </i>
    <i name="hartreedc">  -2682.22780847 </i>
    <i name="XCdc">     55.18492899 </i>
    <i name="pawpsdc">   1695.61580854 </i>
    <i name="pawaedc">  -1698.33844724 </i>
    <i name="eentropy">     -0.00000467 </i>
    <i name="bandstr">   -166.17280728 </i>
    <i name="atom">    588.61769381 </i>
    <i name="e_fr_energy">    -36.92984020 </i>
    <i name="e_wo_entrp">    -36.92983554 </i>
    <i name="e_0_energy">    -36.92983787 </i>
   </energy>
  </scstep>
  <scstep>
   <time name="dav">    1.52    1.52</time>
   <time name="total">    1.80    1.80</time>
   <energy>
    <i name="e_fr_energy">    -36.93015556 </i>
    <i name="e_wo_entrp">    -36.93015084 </i>
    <i name="e_0_energy">    -36.93015320 </i>
   </energy>
  </scstep>
  <scstep>
   <time name="dav">    1.62    1.63</time>
   <time name="total">    1.90    1.90</time>
   <energy>
    <i name="e_fr_energy">    -36.93000499 </i>
    <i name="e_wo_entrp">    -36.93000025 </i>
    <i name="e_0_energy">    -36.93000262 </i>
   </energy>
  </scstep>
  <scstep>
   <time name="dav">    1.50    1.50</time>
   <time name="total">    1.78    1.78</time>
   <energy>
    <i name="e_fr_energy">    -36.93002137 </i>
    <i name="e_wo_entrp">    -36.93001667 </i>
    <i name="e_0_energy">    -36.93001902 </i>
   </energy>
  </scstep>
  <scstep>
   <time name="dav">    1.68    1.68</time>
   <time name="total">    1.96    1.96</time>
   <energy>
    <i name="e_fr_energy">    -36.93002254 </i>
    <i name="e_wo_entrp">    -36.93001784 </i>
    <i name="e_0_energy">    -36.93002019 </i>
   </energy>
  </scstep>
  <scstep>
   <time name="dav">    1.57    1.58</time>
   <time name="total">    1.85    1.86</time>
   <energy>
    <i name="e_fr_energy">    -36.93002234 </i>
    <i name="e_wo_entrp">    -36.93001761 </i>
    <i name="e_0_energy">    -36.93001997 </i>
   </energy>
  </scstep>
  <scstep>
   <time name="dav">    1.59    1.59</time>
   <time name="total">    1.87    1.87</time>
   <energy>
    <i name="e_fr_energy">    -36.93002229 </i>
    <i name="e_wo_entrp">    -36.93001757 </i>
    <i name="e_0_energy">    -36.93001993 </i>
   </energy>
  </scstep>
  <scstep>
   <time name="dav">    1.63    1.64</time>
   <time name="total">    1.91    1.92</time>
   <energy>
    <i name="e_fr_energy">    -36.93002218 </i>
    <i name="e_wo_entrp">    -36.93001746 </i>
    <i name="e_0_energy">    -36.93001982 </i>
   </energy>
  </scstep>
  <scstep>
   <time name="dav">    1.27    1.28</time>
   <time name="total">    1.55    1.55</time>
   <energy>
    <i name="e_fr_energy">    -36.93002220 </i>
    <i name="e_wo_entrp">    -36.93001748 </i>
    <i name="e_0_energy">    -36.93001984 </i>
   </energy>
  </scstep>
  <scstep>
   <time name="dav">    1.48    1.48</time>
   <time name="total">    1.75    1.76</time>
   <energy>
    <i name="e_fr_energy">    -36.93002241 </i>
    <i name="e_wo_entrp">    -36.93001769 </i>
    <i name="e_0_energy">    -36.93002005 </i>
   </energy>
  </scstep>
  <scstep>
   <time name="dav">    1.40    1.40</time>
   <time name="total">    1.67    1.68</time>
   <energy>
    <i name="e_fr_energy">    -36.93002257 </i>
    <i name="e_wo_entrp">    -36.93001785 </i>
    <i name="e_0_energy">    -36.93002021 </i>
   </energy>
  </scstep>
  <scstep>
   <time name="dav">    1.48    1.48</time>
   <time name="total">    1.75    1.76</time>
   <energy>
    <i name="e_fr_energy">    -36.93002270 </i>
    <i name="e_wo_entrp">    -36.93001798 </i>
    <i name="e_0_energy">    -36.93002034 </i>
   </energy>
  </scstep>
  <scstep>
   <time name="dav">    1.26    1.27</time>
   <time name="total">    1.54    1.54</time>
   <energy>
    <i name="e_fr_energy">    -36.93002274 </i>
    <i name="e_wo_entrp">    -36.93001801 </i>
    <i name="e_0_energy">    -36.93002037 </i>
   </energy>
  </scstep>
  <scstep>
   <time name="dav">    1.27    1.28</time>
   <time name="total">    1.55    1.56</time>
   <energy>
    <i name="e_fr_energy">    -36.93002272 </i>
    <i name="e_wo_entrp">    -36.93001800 </i>
    <i name="e_0_energy">    -36.93002036 </i>
   </energy>
  </scstep>
  <scstep>
   <time name="dav">    1.31    1.31</time>
   <time name="total">    1.41    1.42</time>
   <energy>
    <i name="alphaZ">     12.54445055 </i>
    <i name="ewald">   2157.84634557 </i>
    <i name="hartreedc">  -2682.22798385 </i>
    <i name="XCdc">     55.18498536 </i>
    <i name="pawpsdc">   1695.61116364 </i>
    <i name="pawaedc">  -1698.33380392 </i>
    <i name="eentropy">     -0.00000472 </i>
    <i name="bandstr">   -166.17286916 </i>
    <i name="atom">    588.61769381 </i>
    <i name="e_fr_energy">    -36.93002271 </i>
    <i name="e_wo_entrp">    -36.93001799 </i>
    <i name="e_0_energy">    -36.93002035 </i>
   </energy>
  </scstep>
  <structure>
   <crystal>
    <varray name="basis" >
     <v>       2.13000000      -1.22975600       0.00000000 </v>
     <v>       2.13000000       1.22975600       0.00000000 </v>
     <v>       0.00000000       0.00000000      20.00000000 </v>
    </varray>
    <i name="volume">    104.77521120 </i>
    <varray name="rec_basis" >
     <v>       0.23474178      -0.40658472       0.00000000 </v>
     <v>       0.23474178       0.40658472       0.00000000 </v>
     <v>       0.00000000       0.00000000       0.05000000 </v>
    </varray>
   </crystal>
   <varray name="positions" >
    <v>       0.00000000       0.00000000       0.00000000 </v>
    <v>       0.33333300       0.33333300       0.00000000 </v>
    <v>       0.00000000       0.00000000       0.24888705 </v>
    <v>       0.33333300       0.33333300       0.24888705 </v>
   </varray>
  </structure>
  <varray name="forces" >
   <v>       0.00000000       0.00000000       0.00121730 </v>
   <v>       0.00000000      -0.00000000       0.00121730 </v>
   <v>      -0.00000000      -0.00000000      -0.00121730 </v>
   <v>       0.00000000       0.00000000      -0.00121730 </v>
  </varray>
  <varray name="stress" >
   <v>      12.73917723       0.00000000      -0.00000000 </v>
   <v>       0.00000000      12.73917571       0.00000000 </v>
   <v>      -0.00000000       0.00000000      -0.86293660 </v>
  </varray>
  <energy>
   <i name="e_fr_energy">    -36.93002271 </i>
   <i name="e_wo_entrp">    -36.93002035 </i>
   <i name="e_0_energy">     -0.00000472 </i>
  </energy>
  <time name="totalsc">   28.14   28.31</time>
 </calculation>
 <calculation>
  <scstep>
   <time name="dav">    1.41    1.41</time>
   <time name="total">    1.70    1.72</time>
   <energy>
    <i name="alphaZ">     12.54445055 </i>
    <i name="ewald">   2170.29517503 </i>
    <i name="hartreedc">  -2694.66104445 </i>
    <i name="XCdc">     55.18464561 </i>
    <i name="pawpsdc">   1695.61128131 </i>
    <i name="pawaedc">  -1698.33392138 </i>
    <i name="eentropy">     -0.00000351 </i>
    <i name="bandstr">   -166.18747727 </i>
    <i name="atom">    588.61769381 </i>
    <i name="e_fr_energy">    -36.92920031 </i>
    <i name="e_wo_entrp">    -36.92919680 </i>
    <i name="e_0_energy">    -36.92919855 </i>
   </energy>
  </scstep>
  <scstep>
   <time name="dav">    1.53    1.54</time>
   <time name="total">    1.81    1.82</time>
   <energy>
    <i name="e_fr_energy">    -36.93061548 </i>
    <i name="e_wo_entrp">    -36.93061192 </i>
    <i name="e_0_energy">    -36.93061370 </i>
   </energy>
  </scstep>
  <scstep>
   <time name="dav">    1.59    1.59</time>
   <time name="total">    1.87    1.87</time>
   <energy>
    <i name="e_fr_energy">    -36.93000656 </i>
    <i name="e_wo_entrp">    -36.93000320 </i>
    <i name="e_0_energy">    -36.93000488 </i>
   </energy>
  </scstep>
  <scstep>
   <time name="dav">    1.50    1.51</time>
   <time name="total">    1.78    1.79</time>
   <energy>
    <i name="e_fr_energy">    -36.93007982 </i>
    <i name="e_wo_entrp">    -36.93007666 </i>
    <i name="e_0_energy">    -36.93007824 </i>
   </energy>
  </scstep>
  <scstep>
   <time name="dav">    1.74    1.75</time>
   <time name="total">    2.02    2.03</time>
   <energy>
    <i name="e_fr_energy">    -36.93007562 </i>
    <i name="e_wo_entrp">    -36.93007203 </i>
    <i name="e_0_energy">    -36.93007382 </i>
   </energy>
  </scstep>
  <scstep>
   <time name="dav">    1.57    1.58</time>
   <time name="total">    1.86    1.86</time>
   <energy>
    <i name="e_fr_energy">    -36.93007603 </i>
    <i name="e_wo_entrp">    -36.93007241 </i>
    <i name="e_0_energy">    -36.93007422 </i>
   </energy>
  </scstep>
  <scstep>
   <time name="dav">    1.59    1.60</time>
   <time name="total">    1.87    1.88</time>
   <energy>
    <i name="e_fr_energy">    -36.93007625 </i>
    <i name="e_wo_entrp">    -36.93007263 </i>
    <i name="e_0_energy">    -36.93007444 </i>
   </energy>
  </scstep>
  <scstep>
   <time name="dav">    1.59    1.59</time>
   <time name="total">    1.87    1.88</time>
   <energy>
    <i name="e_fr_energy">    -36.93007606 </i>
    <i name="e_wo_entrp">    -36.93007245 </i>
    <i name="e_0_energy">    -36.93007425 </i>
   </energy>
  </scstep>
  <scstep>
   <time name="dav">    1.56    1.56</time>
   <time name="total">    1.84    1.84</time>
   <energy>
    <i name="e_fr_energy">    -36.93007627 </i>
    <i name="e_wo_entrp">    -36.93007266 </i>
    <i name="e_0_energy">    -36.93007446 </i>
   </energy>
  </scstep>
  <scstep>
   <time name="dav">    1.47    1.47</time>
   <time name="total">    1.75    1.76</time>
   <energy>
    <i name="e_fr_energy">    -36.93007678 </i>
    <i name="e_wo_entrp">    -36.93007317 </i>
    <i name="e_0_energy">    -36.93007498 </i>
   </energy>
  </scstep>
  <scstep>
   <time name="dav">    1.56    1.56</time>
   <time name="total">    1.84    1.84</time>
   <energy>
    <i name="e_fr_energy">    -36.93007727 </i>
    <i name="e_wo_entrp">    -36.93007366 </i>
    <i name="e_0_energy">    -36.93007547 </i>
   </energy>
  </scstep>
  <scstep>
   <time name="dav">    1.56    1.56</time>
   <time name="total">    1.84    1.84</time>
   <energy>
    <i name="e_fr_energy">    -36.93007750 </i>
    <i name="e_wo_entrp">    -36.93007390 </i>
    <i name="e_0_energy">    -36.93007570 </i>
   </energy>
  </scstep>
  <scstep>
   <time name="dav">    1.32    1.32</time>
   <time name="total">    1.59    1.60</time>
   <energy>
    <i name="e_fr_energy">    -36.93007756 </i>
    <i name="e_wo_entrp">    -36.93007395 </i>
    <i name="e_0_energy">    -36.93007575 </i>
   </energy>
  </scstep>
  <scstep>
   <time name="dav">    1.26    1.27</time>
   <time name="total">    1.54    1.55</time>
   <energy>
    <i name="e_fr_energy">    -36.93007754 </i>
    <i name="e_wo_entrp">    -36.93007393 </i>
    <i name="e_0_energy">    -36.93007574 </i>
   </energy>
  </scstep>
  <scstep>
   <time name="dav">    1.28    1.29</time>
   <time name="total">    1.56    1.57</time>
   <energy>
    <i name="e_fr_energy">    -36.93007751 </i>
    <i name="e_wo_entrp">    -36.93007390 </i>
    <i name="e_0_energy">    -36.93007570 </i>
   </energy>
  </scstep>
  <scstep>
   <time name="dav">    1.26    1.27</time>
   <time name="total">    1.54    1.55</time>
   <energy>
    <i name="e_fr_energy">    -36.93007748 </i>
    <i name="e_wo_entrp">    -36.93007387 </i>
    <i name="e_0_energy">    -36.93007567 </i>
   </energy>
  </scstep>
  <scstep>
   <time name="dav">    1.16    1.16</time>
   <time name="total">    1.26    1.26</time>
   <energy>
    <i name="alphaZ">     12.54445055 </i>
    <i name="ewald">   2170.29517503 </i>
    <i name="hartreedc">  -2694.67653457 </i>
    <i name="XCdc">     55.18499381 </i>
    <i name="pawpsdc">   1695.61208766 </i>
    <i name="pawaedc">  -1698.33472669 </i>
    <i name="eentropy">     -0.00000361 </i>
    <i name="bandstr">   -166.17321346 </i>
    <i name="atom">    588.61769381 </i>
    <i name="e_fr_energy">    -36.93007747 </i>
    <i name="e_wo_entrp">    -36.93007386 </i>
    <i name="e_0_energy">    -36.93007567 </i>
   </energy>
  </scstep>
  <structure>
   <crystal>
    <varray name="basis" >
     <v>       2.13000000      -1.22975600       0.00000000 </v>
     <v>       2.13000000       1.22975600       0.00000000 </v>
     <v>       0.00000000       0.00000000      20.00000000 </v>
    </varray>
    <i name="volume">    104.77521120 </i>
    <varray name="rec_basis" >
     <v>       0.23474178      -0.40658472       0.00000000 </v>
     <v>       0.23474178       0.40658472       0.00000000 </v>
     <v>       0.00000000       0.00000000       0.05000000 </v>
    </varray>
   </crystal>
   <varray name="positions" >
    <v>       0.00000000       0.00000000       0.00000000 </v>
    <v>       0.33333300       0.33333300       0.00000000 </v>
    <v>       0.00000000       0.00000000       0.24776826 </v>
    <v>       0.33333300       0.33333300       0.24776826 </v>
   </varray>
  </structure>
  <varray name="forces" >
   <v>      -0.00000000      -0.00000000       0.00122352 </v>
   <v>       0.00000000       0.00000000       0.00122352 </v>
   <v>       0.00000000       0.00000000      -0.00122352 </v>
   <v>       0.00000000       0.00000000      -0.00122352 </v>
  </varray>
  <varray name="stress" >
   <v>      12.73929083       0.00000000       0.00000000 </v>
   <v>       0.00000000      12.73928931       0.00000000 </v>
   <v>      -0.00000000       0.00000000      -0.86304659 </v>
  </varray>
  <energy>
   <i name="e_fr_energy">    -36.93007747 </i>
   <i name="e_wo_entrp">    -36.93007567 </i>
   <i name="e_0_energy">     -0.00000361 </i>
  </energy>
  <time name="totalsc">   31.69   31.88</time>
 </calculation>
 <calculation>
  <scstep>
   <time name="dav">    1.41    1.41</time>
   <time name="total">    1.70    1.72</time>
   <energy>
    <i name="alphaZ">     12.54445055 </i>
    <i name="ewald">   2195.35885669 </i>
    <i name="hartreedc">  -2719.67833680 </i>
    <i name="XCdc">     55.18353072 </i>
    <i name="pawpsdc">   1695.61240069 </i>
    <i name="pawaedc">  -1698.33503982 </i>
    <i name="eentropy">     -0.00000183 </i>
    <i name="bandstr">   -166.22946389 </i>
    <i name="atom">    588.61769381 </i>
    <i name="e_fr_energy">    -36.92590987 </i>
    <i name="e_wo_entrp">    -36.92590804 </i>
    <i name="e_0_energy">    -36.92590895 </i>
   </energy>
  </scstep>
  <scstep>
   <time name="dav">    1.46    1.47</time>
   <time name="total">    1.74    1.74</time>
   <energy>
    <i name="e_fr_energy">    -36.93236884 </i>
    <i name="e_wo_entrp">    -36.93236725 </i>
    <i name="e_0_energy">    -36.93236805 </i>
   </energy>
  </scstep>
  <scstep>
   <time name="dav">    1.60    1.61</time>
   <time name="total">    1.88    1.89</time>
   <energy>
    <i name="e_fr_energy">    -36.93005233 </i>
    <i name="e_wo_entrp">    -36.93005112 </i>
    <i name="e_0_energy">    -36.93005173 </i>
   </energy>
  </scstep>
  <scstep>
   <time name="dav">    1.58    1.58</time>
   <time name="total">    1.86    1.86</time>
   <energy>
    <i name="e_fr_energy">    -36.93022135 </i>
    <i name="e_wo_entrp">    -36.93022051 </i>
    <i name="e_0_energy">    -36.93022093 </i>
   </energy>
  </scstep>
  <scstep>
   <time name="dav">    1.64    1.64</time>
   <time name="total">    1.92    1.92</time>
   <energy>
    <i name="e_fr_energy">    -36.93018076 </i>
    <i name="e_wo_entrp">    -36.93017879 </i>
    <i name="e_0_energy">    -36.93017978 </i>
   </energy>
  </scstep>
  <scstep>
   <time name="dav">    1.57    1.57</time>
   <time name="total">    1.85    1.85</time>
   <energy>
    <i name="e_fr_energy">    -36.93018227 </i>
    <i name="e_wo_entrp">    -36.93018030 </i>
    <i name="e_0_energy">    -36.93018128 </i>
   </energy>
  </scstep>
  <scstep>
   <time name="dav">    1.60    1.61</time>
   <time name="total">    1.88    1.88</time>
   <energy>
    <i name="e_fr_energy">    -36.93018279 </i>
    <i name="e_wo_entrp">    -36.93018083 </i>
    <i name="e_0_energy">    -36.93018181 </i>
   </energy>
  </scstep>
  <scstep>
   <time name="dav">    1.59    1.60</time>
   <time name="total">    1.87    1.87</time>
   <energy>
    <i name="e_fr_energy">    -36.93018236 </i>
    <i name="e_wo_entrp">    -36.93018039 </i>
    <i name="e_0_energy">    -36.93018137 </i>
   </energy>
  </scstep>
  <scstep>
   <time name="dav">    1.67    1.67</time>
   <time name="total">    1.95    1.95</time>
   <energy>
    <i name="e_fr_energy">    -36.93018304 </i>
    <i name="e_wo_entrp">    -36.93018108 </i>
    <i name="e_0_energy">    -36.93018206 </i>
   </energy>
  </scstep>
  <scstep>
   <time name="dav">    1.48    1.48</time>
   <time name="total">    1.76    1.77</time>
   <energy>
    <i name="e_fr_energy">    -36.93018520 </i>
    <i name="e_wo_entrp">    -36.93018324 </i>
    <i name="e_0_energy">    -36.93018422 </i>
   </energy>
  </scstep>
  <scstep>
   <time name="dav">    1.58    1.59</time>
   <time name="total">    1.86    1.87</time>
   <energy>
    <i name="e_fr_energy">    -36.93018581 </i>
    <i name="e_wo_entrp">    -36.93018385 </i>
    <i name="e_0_energy">    -36.93018483 </i>
   </energy>
  </scstep>
  <scstep>
   <time name="dav">    1.57    1.57</time>
   <time name="total">    1.84    1.85</time>
   <energy>
    <i name="e_fr_energy">    -36.93018668 </i>
    <i name="e_wo_entrp">    -36.93018472 </i>
    <i name="e_0_energy">    -36.93018570 </i>
   </energy>
  </scstep>
  <scstep>
   <time name="dav">    1.32    1.32</time>
   <time name="total">    1.60    1.60</time>
   <energy>
    <i name="e_fr_energy">    -36.93018675 </i>
    <i name="e_wo_entrp">    -36.93018479 </i>
    <i name="e_0_energy">    -36.93018577 </i>
   </energy>
  </scstep>
  <scstep>
   <time name="dav">    1.53    1.53</time>
   <time name="total">    1.80    1.81</time>
   <energy>
    <i name="e_fr_energy">    -36.93018677 </i>
    <i name="e_wo_entrp">    -36.93018481 </i>
    <i name="e_0_energy">    -36.93018579 </i>
   </energy>
  </scstep>
  <scstep>
   <time name="dav">    1.28    1.29</time>
   <time name="total">    1.56    1.56</time>
   <energy>
    <i name="e_fr_energy">    -36.93018668 </i>
    <i name="e_wo_entrp">    -36.93018472 </i>
    <i name="e_0_energy">    -36.93018570 </i>
   </energy>
  </scstep>
  <scstep>
   <time name="dav">    1.26    1.27</time>
   <time name="total">    1.54    1.55</time>
   <energy>
    <i name="e_fr_energy">    -36.93018663 </i>
    <i name="e_wo_entrp">    -36.93018467 </i>
    <i name="e_0_energy">    -36.93018565 </i>
   </energy>
  </scstep>
  <scstep>
   <time name="dav">    1.18    1.18</time>
   <time name="total">    1.46    1.47</time>
   <energy>
    <i name="e_fr_energy">    -36.93018662 </i>
    <i name="e_wo_entrp">    -36.93018466 </i>
    <i name="e_0_energy">    -36.93018564 </i>
   </energy>
  </scstep>
  <scstep>
   <time name="dav">    1.22    1.22</time>
   <time name="total">    1.50    1.50</time>
   <energy>
    <i name="e_fr_energy">    -36.93018661 </i>
    <i name="e_wo_entrp">    -36.93018465 </i>
    <i name="e_0_energy">    -36.93018563 </i>
   </energy>
  </scstep>
  <scstep>
   <time name="dav">    1.20    1.21</time>
   <time name="total">    1.31    1.31</time>
   <energy>
    <i name="alphaZ">     12.54445055 </i>
    <i name="ewald">   2195.35885669 </i>
    <i name="hartreedc">  -2719.73996960 </i>
    <i name="XCdc">     55.18501167 </i>
    <i name="pawpsdc">   1695.60943884 </i>
    <i name="pawaedc">  -1698.33207747 </i>
    <i name="eentropy">     -0.00000196 </i>
    <i name="bandstr">   -166.17358915 </i>
    <i name="atom">    588.61769381 </i>
    <i name="e_fr_energy">    -36.93018662 </i>
    <i name="e_wo_entrp">    -36.93018466 </i>
    <i name="e_0_energy">    -36.93018564 </i>
   </energy>
  </scstep>
  <structure>
   <crystal>
    <varray name="basis" >
     <v>       2.13000000      -1.22975600       0.00000000 </v>
     <v>       2.13000000       1.22975600       0.00000000 </v>
     <v>       0.00000000       0.00000000      20.00000000 </v>
    </varray>
    <i name="volume">    104.77521120 </i>
    <varray name="rec_basis" >
     <v>       0.23474178      -0.40658472       0.00000000 </v>
     <v>       0.23474178       0.40658472       0.00000000 </v>
     <v>       0.00000000       0.00000000       0.05000000 </v>
    </varray>
   </crystal>
   <varray name="positions" >
    <v>       0.00000000       0.00000000       0.00000000 </v>
    <v>       0.33333300       0.33333300       0.00000000 </v>
    <v>       0.00000000       0.00000000       0.24553070 </v>
    <v>       0.33333300       0.33333300       0.24553070 </v>
   </varray>
  </structure>
  <varray name="forces" >
   <v>      -0.00000000       0.00000000       0.00122449 </v>
[...]
       <r>    10.3000     0.0000    24.0000 </r>
       <r>    10.3038     0.0000    24.0000 </r>
       <r>    10.3076     0.0000    24.0000 </r>
       <r>    10.3114     0.0000    24.0000 </r>
       <r>    10.3152     0.0000    24.0000 </r>
       <r>    10.3190     0.0000    24.0000 </r>
       <r>    10.3227     0.0000    24.0000 </r>
       <r>    10.3265     0.0000    24.0000 </r>
       <r>    10.3303     0.0000    24.0000 </r>
       <r>    10.3341     0.0000    24.0000 </r>
       <r>    10.3379     0.0000    24.0000 </r>
       <r>    10.3417     0.0000    24.0000 </r>
       <r>    10.3455     0.0000    24.0000 </r>
       <r>    10.3493     0.0000    24.0000 </r>
       <r>    10.3530     0.0000    24.0000 </r>
       <r>    10.3568     0.0000    24.0000 </r>
       <r>    10.3606     0.0000    24.0000 </r>
       <r>    10.3644     0.0000    24.0000 </r>
       <r>    10.3682     0.0000    24.0000 </r>
       <r>    10.3720     0.0000    24.0000 </r>
       <r>    10.3758     0.0000    24.0000 </r>
       <r>    10.3796     0.0000    24.0000 </r>
       <r>    10.3833     0.0000    24.0000 </r>
       <r>    10.3871     0.0000    24.0000 </r>
       <r>    10.3909     0.0000    24.0000 </r>
       <r>    10.3947     0.0000    24.0000 </r>
       <r>    10.3985     0.0000    24.0000 </r>
       <r>    10.4023     0.0000    24.0000 </r>
       <r>    10.4061     0.0000    24.0000 </r>
       <r>    10.4099     0.0000    24.0000 </r>
       <r>    10.4137     0.0000    24.0000 </r>
       <r>    10.4174     0.0000    24.0000 </r>
       <r>    10.4212     0.0000    24.0000 </r>
       <r>    10.4250     0.0000    24.0000 </r>
       <r>    10.4288     0.0000    24.0000 </r>
       <r>    10.4326     0.0000    24.0000 </r>
       <r>    10.4364     0.0000    24.0000 </r>
       <r>    10.4402     0.0000    24.0000 </r>
       <r>    10.4440     0.0000    24.0000 </r>
       <r>    10.4477     0.0000    24.0000 </r>
       <r>    10.4515     0.0000    24.0000 </r>
       <r>    10.4553     0.0000    24.0000 </r>
       <r>    10.4591     0.0000    24.0000 </r>
       <r>    10.4629     0.0000    24.0000 </r>
       <r>    10.4667     0.0000    24.0000 </r>
       <r>    10.4705     0.0000    24.0000 </r>
       <r>    10.4743     0.0000    24.0000 </r>
       <r>    10.4781     0.0000    24.0000 </r>
       <r>    10.4818     0.0000    24.0000 </r>
       <r>    10.4856     0.0000    24.0000 </r>
       <r>    10.4894     0.0000    24.0000 </r>
       <r>    10.4932     0.0000    24.0000 </r>
       <r>    10.4970     0.0000    24.0000 </r>
       <r>    10.5008     0.0000    24.0000 </r>
       <r>    10.5046     0.0000    24.0000 </r>
       <r>    10.5084     0.0000    24.0000 </r>
       <r>    10.5121     0.0000    24.0000 </r>
       <r>    10.5159     0.0000    24.0000 </r>
       <r>    10.5197     0.0000    24.0000 </r>
       <r>    10.5235     0.0000    24.0000 </r>
       <r>    10.5273     0.0000    24.0000 </r>
       <r>    10.5311     0.0000    24.0000 </r>
       <r>    10.5349     0.0000    24.0000 </r>
       <r>    10.5387     0.0000    24.0000 </r>
       <r>    10.5425     0.0000    24.0000 </r>
       <r>    10.5462     0.0000    24.0000 </r>
       <r>    10.5500     0.0000    24.0000 </r>
       <r>    10.5538     0.0000    24.0000 </r>
       <r>    10.5576     0.0000    24.0000 </r>
       <r>    10.5614     0.0000    24.0000 </r>
       <r>    10.5652     0.0000    24.0000 </r>
       <r>    10.5690     0.0000    24.0000 </r>
       <r>    10.5728     0.0000    24.0000 </r>
       <r>    10.5765     0.0000    24.0000 </r>
       <r>    10.5803     0.0000    24.0000 </r>
       <r>    10.5841     0.0000    24.0000 </r>
       <r>    10.5879     0.0000    24.0000 </r>
       <r>    10.5917     0.0000    24.0000 </r>
       <r>    10.5955     0.0000    24.0000 </r>
       <r>    10.5993     0.0000    24.0000 </r>
       <r>    10.6031     0.0000    24.0000 </r>
       <r>    10.6068     0.0000    24.0000 </r>
       <r>    10.6106     0.0000    24.0000 </r>
       <r>    10.6144     0.0000    24.0000 </r>
       <r>    10.6182     0.0000    24.0000 </r>
       <r>    10.6220     0.0000    24.0000 </r>
       <r>    10.6258     0.0000    24.0000 </r>
       <r>    10.6296     0.0000    24.0000 </r>
       <r>    10.6334     0.0000    24.0000 </r>
       <r>    10.6372     0.0000    24.0000 </r>
       <r>    10.6409     0.0000    24.0000 </r>
       <r>    10.6447     0.0000    24.0000 </r>
       <r>    10.6485     0.0000    24.0000 </r>
       <r>    10.6523     0.0000    24.0000 </r>
       <r>    10.6561     0.0000    24.0000 </r>
       <r>    10.6599     0.0000    24.0000 </r>
       <r>    10.6637     0.0000    24.0000 </r>
       <r>    10.6675     0.0000    24.0000 </r>
       <r>    10.6712     0.0000    24.0000 </r>
       <r>    10.6750     0.0000    24.0000 </r>
       <r>    10.6788     0.0000    24.0000 </r>
       <r>    10.6826     0.0000    24.0000 </r>
       <r>    10.6864     0.0000    24.0000 </r>
       <r>    10.6902     0.0000    24.0000 </r>
       <r>    10.6940     0.0000    24.0000 </r>
       <r>    10.6978     0.0000    24.0000 </r>
       <r>    10.7016     0.0000    24.0000 </r>
       <r>    10.7053     0.0000    24.0000 </r>
       <r>    10.7091     0.0000    24.0000 </r>
       <r>    10.7129     0.0000    24.0000 </r>
       <r>    10.7167     0.0000    24.0000 </r>
       <r>    10.7205     0.0000    24.0000 </r>
       <r>    10.7243     0.0000    24.0000 </r>
       <r>    10.7281     0.0000    24.0000 </r>
       <r>    10.7319     0.0000    24.0000 </r>
       <r>    10.7356     0.0000    24.0000 </r>
       <r>    10.7394     0.0000    24.0000 </r>
       <r>    10.7432     0.0000    24.0000 </r>
       <r>    10.7470     0.0000    24.0000 </r>
       <r>    10.7508     0.0000    24.0000 </r>
       <r>    10.7546     0.0000    24.0000 </r>
       <r>    10.7584     0.0000    24.0000 </r>
       <r>    10.7622     0.0000    24.0000 </r>
       <r>    10.7660     0.0000    24.0000 </r>
       <r>    10.7697     0.0000    24.0000 </r>
       <r>    10.7735     0.0000    24.0000 </r>
       <r>    10.7773     0.0000    24.0000 </r>
       <r>    10.7811     0.0000    24.0000 </r>
       <r>    10.7849     0.0000    24.0000 </r>
       <r>    10.7887     0.0000    24.0000 </r>
       <r>    10.7925     0.0000    24.0000 </r>
       <r>    10.7963     0.0000    24.0000 </r>
       <r>    10.8000     0.0000    24.0000 </r>
       <r>    10.8038     0.0000    24.0000 </r>
       <r>    10.8076     0.0000    24.0000 </r>
       <r>    10.8114     0.0000    24.0000 </r>
       <r>    10.8152     0.0000    24.0000 </r>
       <r>    10.8190     0.0000    24.0000 </r>
       <r>    10.8228     0.0000    24.0000 </r>
       <r>    10.8266     0.0000    24.0000 </r>
       <r>    10.8303     0.0000    24.0000 </r>
       <r>    10.8341     0.0000    24.0000 </r>
       <r>    10.8379     0.0000    24.0000 </r>
       <r>    10.8417     0.0000    24.0000 </r>
       <r>    10.8455     0.0000    24.0000 </r>
       <r>    10.8493     0.0000    24.0000 </r>
       <r>    10.8531     0.0000    24.0000 </r>
       <r>    10.8569     0.0000    24.0000 </r>
       <r>    10.8607     0.0000    24.0000 </r>
       <r>    10.8644     0.0000    24.0000 </r>
       <r>    10.8682     0.0000    24.0000 </r>
       <r>    10.8720     0.0000    24.0000 </r>
       <r>    10.8758     0.0000    24.0000 </r>
       <r>    10.8796     0.0000    24.0000 </r>
       <r>    10.8834     0.0000    24.0000 </r>
       <r>    10.8872     0.0000    24.0000 </r>
       <r>    10.8910     0.0000    24.0000 </r>
       <r>    10.8947     0.0000    24.0000 </r>
       <r>    10.8985     0.0000    24.0000 </r>
       <r>    10.9023     0.0000    24.0000 </r>
       <r>    10.9061     0.0000    24.0000 </r>
       <r>    10.9099     0.0000    24.0000 </r>
       <r>    10.9137     0.0000    24.0000 </r>
       <r>    10.9175     0.0000    24.0000 </r>
       <r>    10.9213     0.0000    24.0000 </r>
       <r>    10.9251     0.0000    24.0000 </r>
       <r>    10.9288     0.0000    24.0000 </r>
       <r>    10.9326     0.0000    24.0000 </r>
       <r>    10.9364     0.0000    24.0000 </r>
       <r>    10.9402     0.0000    24.0000 </r>
       <r>    10.9440     0.0000    24.0000 </r>
       <r>    10.9478     0.0000    24.0000 </r>
       <r>    10.9516     0.0000    24.0000 </r>
       <r>    10.9554     0.0000    24.0000 </r>
       <r>    10.9591     0.0000    24.0000 </r>
       <r>    10.9629     0.0000    24.0000 </r>
       <r>    10.9667     0.0000    24.0000 </r>
       <r>    10.9705     0.0000    24.0000 </r>
       <r>    10.9743     0.0000    24.0000 </r>
       <r>    10.9781     0.0000    24.0000 </r>
       <r>    10.9819     0.0000    24.0000 </r>
       <r>    10.9857     0.0000    24.0000 </r>
       <r>    10.9895     0.0000    24.0000 </r>
       <r>    10.9932     0.0000    24.0000 </r>
       <r>    10.9970     0.0000    24.0000 </r>
       <r>    11.0008     0.0000    24.0000 </r>
       <r>    11.0046     0.0000    24.0000 </r>
       <r>    11.0084     0.0000    24.0000 </r>
       <r>    11.0122     0.0000    24.0000 </r>
       <r>    11.0160     0.0000    24.0000 </r>
       <r>    11.0198     0.0000    24.0000 </r>
       <r>    11.0235     0.0000    24.0000 </r>
       <r>    11.0273     0.0000    24.0000 </r>
       <r>    11.0311     0.0000    24.0000 </r>
       <r>    11.0349     0.0000    24.0000 </r>
       <r>    11.0387     0.0000    24.0000 </r>
       <r>    11.0425     0.0000    24.0000 </r>
       <r>    11.0463     0.0000    24.0000 </r>
       <r>    11.0501     0.0000    24.0000 </r>
       <r>    11.0538     0.0000    24.0000 </r>
       <r>    11.0576     0.0000    24.0000 </r>
       <r>    11.0614     0.0000    24.0000 </r>
       <r>    11.0652     0.0000    24.0000 </r>
       <r>    11.0690     0.0000    24.0000 </r>
       <r>    11.0728     0.0000    24.0000 </r>
       <r>    11.0766     0.0000    24.0000 </r>
       <r>    11.0804     0.0000    24.0000 </r>
       <r>    11.0842     0.0000    24.0000 </r>
       <r>    11.0879     0.0000    24.0000 </r>
       <r>    11.0917     0.0000    24.0000 </r>
       <r>    11.0955     0.0000    24.0000 </r>
       <r>    11.0993     0.0000    24.0000 </r>
       <r>    11.1031     0.0000    24.0000 </r>
       <r>    11.1069     0.0000    24.0000 </r>
       <r>    11.1107     0.0000    24.0000 </r>
       <r>    11.1145     0.0000    24.0000 </r>
       <r>    11.1182     0.0000    24.0000 </r>
       <r>    11.1220     0.0000    24.0000 </r>
       <r>    11.1258     0.0000    24.0000 </r>
       <r>    11.1296     0.0000    24.0000 </r>
       <r>    11.1334     0.0000    24.0000 </r>
       <r>    11.1372     0.0000    24.0000 </r>
       <r>    11.1410     0.0000    24.0000 </r>
       <r>    11.1448     0.0000    24.0000 </r>
       <r>    11.1486     0.0000    24.0000 </r>
       <r>    11.1523     0.0000    24.0000 </r>
       <r>    11.1561     0.0000    24.0000 </r>
       <r>    11.1599     0.0000    24.0000 </r>
       <r>    11.1637     0.0000    24.0000 </r>
       <r>    11.1675     0.0000    24.0000 </r>
       <r>    11.1713     0.0000    24.0000 </r>
       <r>    11.1751     0.0000    24.0000 </r>
       <r>    11.1789     0.0000    24.0000 </r>
       <r>    11.1826     0.0000    24.0000 </r>
       <r>    11.1864     0.0000    24.0000 </r>
       <r>    11.1902     0.0000    24.0000 </r>
       <r>    11.1940     0.0000    24.0000 </r>
       <r>    11.1978     0.0000    24.0000 </r>
       <r>    11.2016     0.0000    24.0000 </r>
       <r>    11.2054     0.0000    24.0000 </r>
       <r>    11.2092     0.0000    24.0000 </r>
       <r>    11.2130     0.0000    24.0000 </r>
       <r>    11.2167     0.0000    24.0000 </r>
       <r>    11.2205     0.0000    24.0000 </r>
       <r>    11.2243     0.0000    24.0000 </r>
       <r>    11.2281     0.0000    24.0000 </r>
       <r>    11.2319     0.0000    24.0000 </r>
       <r>    11.2357     0.0000    24.0000 </r>
       <r>    11.2395     0.0000    24.0000 </r>
       <r>    11.2433     0.0000    24.0000 </r>
       <r>    11.2470     0.0000    24.0000 </r>
       <r>    11.2508     0.0000    24.0000 </r>
       <r>    11.2546     0.0000    24.0000 </r>
       <r>    11.2584     0.0000    24.0000 </r>
       <r>    11.2622     0.0000    24.0000 </r>
       <r>    11.2660     0.0000    24.0000 </r>
       <r>    11.2698     0.0000    24.0000 </r>
       <r>    11.2736     0.0000    24.0000 </r>
       <r>    11.2773     0.0000    24.0000 </r>
       <r>    11.2811     0.0000    24.0000 </r>
       <r>    11.2849     0.0000    24.0000 </r>
       <r>    11.2887     0.0000    24.0000 </r>
       <r>    11.2925     0.0000    24.0000 </r>
       <r>    11.2963     0.0000    24.0000 </r>
       <r>    11.3001     0.0000    24.0000 </r>
       <r>    11.3039     0.0000    24.0000 </r>
       <r>    11.3077     0.0000    24.0000 </r>
       <r>    11.3114     0.0000    24.0000 </r>
       <r>    11.3152     0.0000    24.0000 </r>
       <r>    11.3190     0.0000    24.0000 </r>
       <r>    11.3228     0.0000    24.0000 </r>
       <r>    11.3266     0.0000    24.0000 </r>
       <r>    11.3304     0.0000    24.0000 </r>
       <r>    11.3342     0.0000    24.0000 </r>
       <r>    11.3380     0.0000    24.0000 </r>
       <r>    11.3417     0.0000    24.0000 </r>
       <r>    11.3455     0.0000    24.0000 </r>
       <r>    11.3493     0.0000    24.0000 </r>
       <r>    11.3531     0.0000    24.0000 </r>
       <r>    11.3569     0.0000    24.0000 </r>
       <r>    11.3607     0.0000    24.0000 </r>
       <r>    11.3645     0.0000    24.0000 </r>
       <r>    11.3683     0.0000    24.0000 </r>
       <r>    11.3721     0.0000    24.0000 </r>
       <r>    11.3758     0.0000    24.0000 </r>
       <r>    11.3796     0.0000    24.0000 </r>
       <r>    11.3834     0.0000    24.0000 </r>
       <r>    11.3872     0.0000    24.0000 </r>
       <r>    11.3910     0.0000    24.0000 </r>
       <r>    11.3948     0.0000    24.0000 </r>
       <r>    11.3986     0.0000    24.0000 </r>
       <r>    11.4024     0.0000    24.0000 </r>
       <r>    11.4061     0.0000    24.0000 </r>
       <r>    11.4099     0.0000    24.0000 </r>
       <r>    11.4137     0.0000    24.0000 </r>
       <r>    11.4175     0.0000    24.0000 </r>
       <r>    11.4213     0.0000    24.0000 </r>
       <r>    11.4251     0.0000    24.0000 </r>
       <r>    11.4289     0.0000    24.0000 </r>
       <r>    11.4327     0.0000    24.0000 </r>
       <r>    11.4365     0.0000    24.0000 </r>
       <r>    11.4402     0.0000    24.0000 </r>
       <r>    11.4440     0.0000    24.0000 </r>
       <r>    11.4478     0.0000    24.0000 </r>
       <r>    11.4516     0.0000    24.0000 </r>
       <r>    11.4554     0.0000    24.0000 </r>
       <r>    11.4592     0.0000    24.0000 </r>
       <r>    11.4630     0.0000    24.0000 </r>
       <r>    11.4668     0.0000    24.0000 </r>
       <r>    11.4705     0.0000    24.0000 </r>
       <r>    11.4743     0.0000    24.0000 </r>
       <r>    11.4781     0.0000    24.0000 </r>
       <r>    11.4819     0.0000    24.0000 </r>
       <r>    11.4857     0.0000    24.0000 </r>
       <r>    11.4895     0.0000    24.0000 </r>
       <r>    11.4933     0.0000    24.0000 </r>
       <r>    11.4971     0.0000    24.0000 </r>
       <r>    11.5008     0.0000    24.0000 </r>
       <r>    11.5046     0.0000    24.0000 </r>
       <r>    11.5084     0.0000    24.0000 </r>
       <r>    11.5122     0.0000    24.0000 </r>
       <r>    11.5160     0.0000    24.0000 </r>
       <r>    11.5198     0.0000    24.0000 </r>
       <r>    11.5236     0.0000    24.0000 </r>
       <r>    11.5274     0.0000    24.0000 </r>
       <r>    11.5312     0.0000    24.0000 </r>
       <r>    11.5349     0.0000    24.0000 </r>
       <r>    11.5387     0.0000    24.0000 </r>
       <r>    11.5425     0.0000    24.0000 </r>
       <r>    11.5463     0.0000    24.0000 </r>
       <r>    11.5501     0.0000    24.0000 </r>
       <r>    11.5539     0.0000    24.0000 </r>
       <r>    11.5577     0.0000    24.0000 </r>
       <r>    11.5615     0.0000    24.0000 </r>
       <r>    11.5652     0.0000    24.0000 </r>
       <r>    11.5690     0.0000    24.0000 </r>
       <r>    11.5728     0.0000    24.0000 </r>
       <r>    11.5766     0.0000    24.0000 </r>
       <r>    11.5804     0.0000    24.0000 </r>
       <r>    11.5842     0.0000    24.0000 </r>
       <r>    11.5880     0.0000    24.0000 </r>
       <r>    11.5918     0.0000    24.0000 </r>
       <r>    11.5956     0.0000    24.0000 </r>
       <r>    11.5993     0.0000    24.0000 </r>
       <r>    11.6031     0.0000    24.0000 </r>
       <r>    11.6069     0.0000    24.0000 </r>
       <r>    11.6107     0.0000    24.0000 </r>
       <r>    11.6145     0.0000    24.0000 </r>
       <r>    11.6183     0.0000    24.0000 </r>
       <r>    11.6221     0.0000    24.0000 </r>
       <r>    11.6259     0.0000    24.0000 </r>
       <r>    11.6296     0.0000    24.0000 </r>
       <r>    11.6334     0.0000    24.0000 </r>
       <r>    11.6372     0.0000    24.0000 </r>
       <r>    11.6410     0.0000    24.0000 </r>
       <r>    11.6448     0.0000    24.0000 </r>
       <r>    11.6486     0.0000    24.0000 </r>
       <r>    11.6524     0.0000    24.0000 </r>
       <r>    11.6562     0.0000    24.0000 </r>
       <r>    11.6600     0.0000    24.0000 </r>
       <r>    11.6637     0.0000    24.0000 </r>
       <r>    11.6675     0.0000    24.0000 </r>
       <r>    11.6713     0.0000    24.0000 </r>
       <r>    11.6751     0.0000    24.0000 </r>
       <r>    11.6789     0.0000    24.0000 </r>
       <r>    11.6827     0.0000    24.0000 </r>
       <r>    11.6865     0.0000    24.0000 </r>
       <r>    11.6903     0.0000    24.0000 </r>
       <r>    11.6940     0.0000    24.0000 </r>
       <r>    11.6978     0.0000    24.0000 </r>
       <r>    11.7016     0.0000    24.0000 </r>
       <r>    11.7054     0.0000    24.0000 </r>
       <r>    11.7092     0.0000    24.0000 </r>
       <r>    11.7130     0.0000    24.0000 </r>
       <r>    11.7168     0.0000    24.0000 </r>
       <r>    11.7206     0.0000    24.0000 </r>
       <r>    11.7243     0.0000    24.0000 </r>
       <r>    11.7281     0.0000    24.0000 </r>
       <r>    11.7319     0.0000    24.0000 </r>
       <r>    11.7357     0.0000    24.0000 </r>
       <r>    11.7395     0.0000    24.0000 </r>
       <r>    11.7433     0.0000    24.0000 </r>
      </set>
     </set>
    </array>
   </total>
  </dos>
 </calculation>
 <structure name="finalpos" >
  <crystal>
   <varray name="basis" >
    <v>       2.13000000      -1.22975600       0.00000000 </v>
    <v>       2.13000000       1.22975600       0.00000000 </v>
    <v>       0.00000000       0.00000000      20.00000000 </v>
   </varray>
   <i name="volume">    104.77521120 </i>
   <varray name="rec_basis" >
    <v>       0.23474178      -0.40658472       0.00000000 </v>
    <v>       0.23474178       0.40658472       0.00000000 </v>
    <v>       0.00000000       0.00000000       0.05000000 </v>
   </varray>
  </crystal>
  <varray name="positions" >
   <v>       0.00000000       0.00000000       0.00000000 </v>
   <v>       0.33333300       0.33333300       0.00000000 </v>
   <v>       0.00000000       0.00000000       0.22206301 </v>
   <v>       0.33333300       0.33333300       0.22206301 </v>
  </varray>
  <varray name="selective"  type="logical" >
   <v type="logical" >  F  F  F </v>
   <v type="logical" >  F  F  F </v>
   <v type="logical" >  F  F  T </v>
   <v type="logical" >  F  F  T </v>
  </varray>
  <nose>
   <v>      -3.00000000       0.00000000       0.00010000       0.00010000 </v>
  </nose>
 </structure>
</modeling>
