    3    3    1    1
  0.6214970E+02  0.3282000E-09  0.3280428E-09  0.2000000E-08  0.5000000E-15
  1.000000000000000E-004
  CAR 
 W-1, se-2                               
     18    463     18
 
  0.3742002E-15  0.3742002E-15  0.1262379E-14  0.5668934E-03
    1      -16.547477   1.000000
    2      -15.366069   1.000000
    3       -8.004577   1.000000
    4       -4.049990   1.000000
    5       -4.046216   1.000000
    6       -4.039024   1.000000
    7       -2.915138   1.000000
    8       -2.910250   1.000000
    9       -2.235916   1.000000
   10        1.228723   0.000000
   11        1.232357   0.000000
   12        1.369598   0.000000
   13        1.376120   0.000000
   14        2.499610   0.000000
   15        2.959559   0.000000
   16        3.444123   0.000000
   17        4.161246   0.000000
   18        4.913096   0.000000
 
  0.2380952E-01  0.3742908E-15  0.1262379E-14  0.2267574E-02
    1      -16.538976   1.000000
    2      -15.361351   1.000000
    3       -7.993354   1.000000
    4       -4.071934   1.000000
    5       -4.068811   1.000000
    6       -4.032018   1.000000
    7       -2.927362   1.000000
    8       -2.910576   1.000000
    9       -2.237035   1.000000
   10        1.203251   0.000000
   11        1.247079   0.000000
   12        1.318630   0.000000
   13        1.362651   0.000000
   14        2.536877   0.000000
   15        2.971602   0.000000
   16        3.470073   0.000000
   17        4.184839   0.000000
   18        4.924210   0.000000
 
  0.4761905E-01  0.3796665E-15  0.1262379E-14  0.2267574E-02
    1      -16.513538   1.000000
    2      -15.347249   1.000000
    3       -7.959855   1.000000
    4       -4.151868   1.000000
    5       -4.123076   1.000000
    6       -4.006657   1.000000
    7       -2.972921   1.000000
    8       -2.904789   1.000000
    9       -2.241025   1.000000
   10        1.131540   0.000000
   11        1.182805   0.000000
   12        1.292457   0.000000
   13        1.327365   0.000000
   14        2.628524   0.000000
   15        3.007154   0.000000
   16        3.543945   0.000000
   17        4.257715   0.000000
   18        4.957164   0.000000
 
  0.7142857E-01  0.3807723E-15  0.1262379E-14  0.2267574E-02
    1      -16.471412   1.000000
    2      -15.323913   1.000000
    3       -7.904596   1.000000
    4       -4.279995   1.000000
    5       -4.207520   1.000000
    6       -3.964652   1.000000
    7       -3.045598   1.000000
    8       -2.904071   1.000000
    9       -2.249778   1.000000
   10        1.001292   0.000000
   11        1.032852   0.000000
   12        1.271558   0.000000
   13        1.364050   0.000000
   14        2.742295   0.000000
   15        3.064957   0.000000
   16        3.653435   0.000000
   17        4.384260   0.000000
   18        5.011085   0.000000
 
  0.9523810E-01  0.3841020E-15  0.1262379E-14  0.2267574E-02
    1      -16.413027   1.000000
    2      -15.291601   1.000000
    3       -7.828491   1.000000
    4       -4.449299   1.000000
    5       -4.316396   1.000000
    6       -3.906928   1.000000
    7       -3.140701   1.000000
    8       -2.918077   1.000000
    9       -2.266410   1.000000
   10        0.803171   0.000000
   11        0.930005   0.000000
   12        1.198939   0.000000
   13        1.456537   0.000000
   14        2.861708   0.000000
   15        3.143807   0.000000
   16        3.781678   0.000000
   17        4.564522   0.000000
   18        5.085067   0.000000
 
  0.1190476E+00  0.3792472E-15  0.1262379E-14  0.2267574E-02
    1      -16.338970   1.000000
    2      -15.250679   1.000000
    3       -7.732925   1.000000
    4       -4.651874   1.000000
    5       -4.445205   1.000000
    6       -3.834647   1.000000
    7       -3.253064   1.000000
    8       -2.954379   1.000000
    9       -2.295033   1.000000
   10        0.608404   0.000000
   11        0.843828   0.000000
   12        1.114111   0.000000
   13        1.563846   0.000000
   14        2.983936   0.000000
   15        3.242812   0.000000
   16        3.916630   0.000000
   17        4.785776   0.000000
   18        5.178288   0.000000
 
  0.1428571E+00  0.3850610E-15  0.1262379E-14  0.2267574E-02
    1      -16.250021   1.000000
    2      -15.201638   1.000000
    3       -7.619902   1.000000
    4       -4.879719   1.000000
    5       -4.591116   1.000000
    6       -3.749321   1.000000
    7       -3.377557   1.000000
    8       -3.016333   1.000000
    9       -2.340106   1.000000
   10        0.432264   0.000000
   11        0.789326   0.000000
   12        1.022055   0.000000
   13        1.679884   0.000000
   14        3.111103   0.000000
   15        3.361259   0.000000
   16        4.055071   0.000000
   17        5.021063   0.000000
   18        5.289844   0.000000
 
  0.1666667E+00  0.3908818E-15  0.1262379E-14  0.2267574E-02
    1      -16.147157   1.000000
    2      -15.145093   1.000000
    3       -7.492286   1.000000
    4       -5.125118   1.000000
    5       -4.752613   1.000000
    6       -3.652851   1.000000
    7       -3.509471   1.000000
    8       -3.102148   1.000000
    9       -2.405167   1.000000
   10        0.286906   0.000000
   11        0.774190   0.000000
   12        0.927758   0.000000
   13        1.799039   0.000000
   14        3.245581   0.000000
   15        3.498402   0.000000
   16        4.198473   0.000000
   17        5.235973   0.000000
   18        5.418465   0.000000
 
  0.1904762E+00  0.3803337E-15  0.1262379E-14  0.2267574E-02
    1      -16.031594   1.000000
    2      -15.081811   1.000000
    3       -7.354275   1.000000
    4       -5.380531   1.000000
    5       -4.928777   1.000000
    6       -3.644687   1.000000
    7       -3.547538   1.000000
    8       -3.205624   1.000000
    9       -2.491077   1.000000
   10        0.180788   0.000000
   11        0.799299   0.000000
   12        0.835990   0.000000
   13        1.916510   0.000000
   14        3.388539   0.000000
   15        3.653289   0.000000
   16        4.348570   0.000000
   17        5.398825   0.000000
   18        5.562079   0.000000
 
  0.2142857E+00  0.3836634E-15  0.1262379E-14  0.2267574E-02
    1      -15.904798   1.000000
    2      -15.012715   1.000000
    3       -7.212408   1.000000
    4       -5.637702   1.000000
    5       -5.118482   1.000000
    6       -3.779714   1.000000
    7       -3.436080   1.000000
    8       -3.318231   1.000000
    9       -2.594562   1.000000
   10        0.117665   0.000000
   11        0.751131   0.000000
   12        0.860592   0.000000
   13        2.028454   0.000000
   14        3.539670   0.000000
   15        3.824628   0.000000
   16        4.505348   0.000000
   17        5.490517   0.000000
   18        5.716891   0.000000
 
  0.2380952E+00  0.3756063E-15  0.1262379E-14  0.2267574E-02
    1      -15.768509   1.000000
    2      -14.938908   1.000000
    3       -7.078136   1.000000
    4       -5.885017   1.000000
    5       -5.319706   1.000000
    6       -3.911643   1.000000
    7       -3.431493   1.000000
    8       -3.321546   1.000000
    9       -2.708001   1.000000
   10        0.096544   0.000000
   11        0.677057   0.000000
   12        0.951277   0.000000
   13        2.132029   0.000000
   14        3.697059   0.000000
   15        4.010603   0.000000
   16        4.665288   0.000000
   17        5.508326   0.000000
   18        5.874838   0.000000
 
  0.2619048E+00  0.3903227E-15  0.1262379E-14  0.2267574E-02
    1      -15.624812   1.000000
    2      -14.861693   1.000000
    3       -6.974919   1.000000
    4       -6.100250   1.000000
    5       -5.529132   1.000000
    6       -4.038080   1.000000
    7       -3.538687   1.000000
    8       -3.207267   1.000000
    9       -2.820687   1.000000
   10        0.112928   0.000000
   11        0.617012   0.000000
   12        1.063534   0.000000
   13        2.225354   0.000000
   14        3.856568   0.000000
   15        4.208572   0.000000
   16        4.815345   0.000000
   17        5.467544   0.000000
   18        6.015554   0.000000
 
  0.2857143E+00  0.4050391E-15  0.1262379E-14  0.2267574E-02
    1      -15.476171   1.000000
    2      -14.782555   1.000000
    3       -6.950740   1.000000
    4       -6.237714   1.000000
    5       -5.742207   1.000000
    6       -4.157061   1.000000
    7       -3.635477   1.000000
    8       -3.096676   1.000000
    9       -2.920820   1.000000
   10        0.160610   0.000000
   11        0.573420   0.000000
   12        1.189472   0.000000
   13        2.307421   0.000000
   14        4.009785   0.000000
   15        4.414507   0.000000
   16        4.909165   0.000000
   17        5.423784   0.000000
   18        6.089028   0.000000
 
  0.3095238E+00  0.3969821E-15  0.1262379E-14  0.2267574E-02
    1      -15.325500   1.000000
    2      -14.703216   1.000000
    3       -7.047123   1.000000
    4       -6.258621   1.000000
    5       -5.953517   1.000000
    6       -4.266984   1.000000
    7       -3.719725   1.000000
    8       -2.998058   1.000000
    9       -2.992512   1.000000
   10        0.233137   0.000000
   11        0.547634   0.000000
   12        1.321527   0.000000
   13        2.377942   0.000000
   14        4.136044   0.000000
   15        4.621884   0.000000
   16        4.865158   0.000000
   17        5.484951   0.000000
   18        6.055251   0.000000
 
  0.3333333E+00  0.3889250E-15  0.1262379E-14  0.2267574E-02
    1      -15.176190   1.000000
    2      -14.625588   1.000000
    3       -7.224110   1.000000
    4       -6.205063   1.000000
    5       -6.157269   1.000000
    6       -4.366544   1.000000
    7       -3.790901   1.000000
    8       -3.042532   1.000000
    9       -2.899297   1.000000
   10        0.324602   0.000000
   11        0.539658   0.000000
   12        1.452594   0.000000
   13        2.437189   0.000000
   14        4.172639   0.000000
   15        4.757823   0.000000
   16        4.819697   0.000000
   17        5.652301   0.000000
   18        5.980389   0.000000
 
  0.3571429E+00  0.4036414E-15  0.1262379E-14  0.2267574E-02
    1      -15.032164   1.000000
    2      -14.551764   1.000000
    3       -7.424698   1.000000
    4       -6.347682   1.000000
    5       -6.134189   1.000000
    6       -4.454682   1.000000
    7       -3.849458   1.000000
    8       -3.051965   1.000000
    9       -2.817624   1.000000
   10        0.429898   0.000000
   11        0.547910   0.000000
   12        1.576190   0.000000
   13        2.485825   0.000000
   14        4.024980   0.000000
   15        4.757902   0.000000
   16        4.990389   0.000000
   17        5.868193   0.000000
   18        5.939946   0.000000
 
  0.3809524E+00  0.4069642E-15  0.1262379E-14  0.2267574E-02
    1      -14.897845   1.000000
    2      -14.483962   1.000000
    3       -7.620081   1.000000
    4       -6.519299   1.000000
    5       -6.071656   1.000000
    6       -4.530548   1.000000
    7       -3.896356   1.000000
    8       -3.027711   1.000000
    9       -2.749291   1.000000
   10        0.544492   0.000000
   11        0.569223   0.000000
   12        1.686725   0.000000
   13        2.524738   0.000000
   14        3.748944   0.000000
   15        4.851422   0.000000
   16        5.114546   0.000000
   17        5.969967   0.000000
   18        6.110073   0.000000
 
  0.4047619E+00  0.4266627E-15  0.1262379E-14  0.2267574E-02
    1      -14.778083   1.000000
    2      -14.424456   1.000000
    3       -7.795721   1.000000
    4       -6.667178   1.000000
    5       -6.025183   1.000000
    6       -4.593467   1.000000
    7       -3.932732   1.000000
    8       -2.977727   1.000000
    9       -2.694693   1.000000
   10        0.598378   0.000000
   11        0.664456   0.000000
   12        1.779884   0.000000
   13        2.554898   0.000000
   14        3.439024   0.000000
   15        4.970179   0.000000
   16        5.189648   0.000000
   17        6.068378   0.000000
   18        6.366675   0.000000
 
  0.4285714E+00  0.4186057E-15  0.1262379E-14  0.2267574E-02
    1      -14.677904   1.000000
    2      -14.375425   1.000000
    3       -7.942163   1.000000
    4       -6.787032   1.000000
    5       -5.994650   1.000000
    6       -4.642916   1.000000
    7       -3.959695   1.000000
    8       -2.914921   1.000000
    9       -2.653507   1.000000
   10        0.630175   0.000000
   11        0.783479   0.000000
   12        1.852953   0.000000
   13        2.577236   0.000000
   14        3.142289   0.000000
   15        5.087867   0.000000
   16        5.234556   0.000000
   17        6.198125   0.000000
   18        6.619000   0.000000
 
  0.4523810E+00  0.3550375E-15  0.1262379E-14  0.2267574E-02
    1      -14.602102   1.000000
    2      -14.338807   1.000000
    3       -8.052261   1.000000
    4       -6.875314   1.000000
    5       -5.976803   1.000000
    6       -4.678505   1.000000
    7       -3.978208   1.000000
    8       -2.854637   1.000000
    9       -2.624987   1.000000
   10        0.658353   0.000000
   11        0.892010   0.000000
   12        1.904834   0.000000
   13        2.592562   0.000000
   14        2.891204   0.000000
   15        5.190106   0.000000
   16        5.265936   0.000000
   17        6.314828   0.000000
   18        6.818619   0.000000
 
  0.4761905E+00  0.3747360E-15  0.1262379E-14  0.2267574E-02
    1      -14.554768   1.000000
    2      -14.316160   1.000000
    3       -8.120636   1.000000
    4       -6.929379   1.000000
    5       -5.967913   1.000000
    6       -4.699964   1.000000
    7       -3.989012   1.000000
    8       -2.811428   1.000000
    9       -2.608299   1.000000
   10        0.677688   0.000000
   11        0.972865   0.000000
   12        1.935605   0.000000
   13        2.601501   0.000000
   14        2.718297   0.000000
   15        5.261877   0.000000
   16        5.287366   0.000000
   17        6.388986   0.000000
   18        6.907339   0.000000
 
  0.5000000E+00  0.4122258E-15  0.1262379E-14  0.1133787E-02
    1      -14.538666   1.000000
    2      -14.308493   1.000000
    3       -8.143828   1.000000
    4       -6.947588   1.000000
    5       -5.965275   1.000000
    6       -4.707135   1.000000
    7       -3.992562   1.000000
    8       -2.795757   1.000000
    9       -2.602815   1.000000
   10        0.684563   0.000000
   11        1.003718   0.000000
   12        1.945774   0.000000
   13        2.604436   0.000000
   14        2.655623   0.000000
   15        5.288096   0.000000
   16        5.295303   0.000000
   17        6.413141   0.000000
   18        6.922361   0.000000
 
  0.3742002E-15  0.2380952E-01  0.1262379E-14  0.1133787E-02
    1      -16.538966   1.000000
    2      -15.361341   1.000000
    3       -7.993342   1.000000
    4       -4.068741   1.000000
    5       -4.066375   1.000000
    6       -4.037644   1.000000
    7       -2.930814   1.000000
    8       -2.907207   1.000000
    9       -2.237008   1.000000
   10        1.205894   0.000000
   11        1.244330   0.000000
   12        1.323647   0.000000
   13        1.357564   0.000000
   14        2.536922   0.000000
   15        2.971614   0.000000
   16        3.470088   0.000000
   17        4.184868   0.000000
   18        4.924222   0.000000
 
  0.4761905E-01  0.2380952E-01  0.1262379E-14  0.1133787E-02
    1      -16.522014   1.000000
    2      -15.351951   1.000000
    3       -7.971004   1.000000
    4       -4.126987   1.000000
    5       -4.105348   1.000000
    6       -4.013540   1.000000
    7       -2.958377   1.000000
    8       -2.905699   1.000000
    9       -2.239613   1.000000
   10        1.153311   0.000000
   11        1.224214   0.000000
   12        1.278601   0.000000
   13        1.339882   0.000000
   14        2.600694   0.000000
   15        2.995382   0.000000
   16        3.520016   0.000000
   17        4.233084   0.000000
   18        4.946229   0.000000
 
  0.7142857E-01  0.2380952E-01  0.1262379E-14  0.2267574E-02
    1      -16.488241   1.000000
    2      -15.333242   1.000000
    3       -7.926628   1.000000
    4       -4.230519   1.000000
    5       -4.174312   1.000000
    6       -3.980281   1.000000
    7       -3.022247   1.000000
    8       -2.897945   1.000000
    9       -2.245986   1.000000
   10        1.067753   0.000000
   11        1.068971   0.000000
   12        1.292795   0.000000
   13        1.337657   0.000000
   14        2.701177   0.000000
   15        3.042028   0.000000
   16        3.611807   0.000000
   17        4.333145   0.000000
   18        4.989635   0.000000
 
  0.9523810E-01  0.2380952E-01  0.1262379E-14  0.2267574E-02
    1      -16.437992   1.000000
    2      -15.305425   1.000000
    3       -7.860930   1.000000
    4       -4.378436   1.000000
    5       -4.269931   1.000000
    6       -3.931131   1.000000
    7       -3.112803   1.000000
    8       -2.898609   1.000000
    9       -2.258630   1.000000
   10        0.883261   0.000000
   11        0.966498   0.000000
   12        1.226593   0.000000
   13        1.420465   0.000000
   14        2.815063   0.000000
   15        3.110332   0.000000
   16        3.730396   0.000000
   17        4.487914   0.000000
   18        5.053553   0.000000
 
  0.1190476E+00  0.2380952E-01  0.1262379E-14  0.2267574E-02
    1      -16.371779   1.000000
    2      -15.268813   1.000000
    3       -7.775035   1.000000
    4       -4.563456   1.000000
    5       -4.387039   1.000000
    6       -3.866995   1.000000
    7       -3.224675   1.000000
    8       -2.916778   1.000000
    9       -2.281127   1.000000
   10        0.690302   0.000000
   11        0.871402   0.000000
   12        1.145947   0.000000
   13        1.521194   0.000000
   14        2.933798   0.000000
   15        3.199282   0.000000
   16        3.861014   0.000000
   17        4.691463   0.000000
   18        5.137148   0.000000
 
  0.1428571E+00  0.2380952E-01  0.1262379E-14  0.2267574E-02
    1      -16.290276   1.000000
    2      -15.223832   1.000000
    3       -7.670606   1.000000
    4       -4.777646   1.000000
    5       -4.522134   1.000000
    6       -3.789319   1.000000
    7       -3.352153   1.000000
    8       -2.958439   1.000000
    9       -2.317734   1.000000
   10        0.507346   0.000000
   11        0.800478   0.000000
   12        1.055969   0.000000
   13        1.633594   0.000000
   14        3.057296   0.000000
   15        3.308096   0.000000
   16        3.996586   0.000000
   17        4.923580   0.000000
   18        5.239590   0.000000
 
  0.1666667E+00  0.2380952E-01  0.1262379E-14  0.2267574E-02
    1      -16.194361   1.000000
    2      -15.171031   1.000000
    3       -7.550018   1.000000
    4       -5.013196   1.000000
    5       -4.673359   1.000000
    6       -3.699988   1.000000
    7       -3.489505   1.000000
    8       -3.025044   1.000000
    9       -2.372417   1.000000
   10        0.348121   0.000000
   11        0.765191   0.000000
   12        0.961932   0.000000
   13        1.751702   0.000000
   14        3.187667   0.000000
   15        3.436037   0.000000
   16        4.136844   0.000000
   17        5.152829   0.000000
   18        5.359833   0.000000
 
  0.1904762E+00  0.2380952E-01  0.1262379E-14  0.2267574E-02
    1      -16.085133   1.000000
    2      -15.111104   1.000000
    3       -7.416699   1.000000
    4       -5.262588   1.000000
    5       -4.839900   1.000000
    6       -3.631260   1.000000
    7       -3.601388   1.000000
    8       -3.113368   1.000000
    9       -2.447257   1.000000
   10        0.223044   0.000000
   11        0.769904   0.000000
   12        0.868970   0.000000
   13        1.870245   0.000000
   14        3.326516   0.000000
   15        3.582247   0.000000
   16        4.283569   0.000000
   17        5.345009   0.000000
   18        5.496289   0.000000
 
  0.2142857E+00  0.2380952E-01  0.1262379E-14  0.2267574E-02
    1      -15.963920   1.000000
    2      -15.044885   1.000000
    3       -7.275804   1.000000
    4       -5.518150   1.000000
    5       -5.021132   1.000000
    6       -3.772464   1.000000
    7       -3.496535   1.000000
    8       -3.216825   1.000000
    9       -2.540641   1.000000
   10        0.138268   0.000000
   11        0.781887   0.000000
   12        0.813037   0.000000
   13        1.984858   0.000000
   14        3.474200   0.000000
   15        3.745598   0.000000
   16        4.437695   0.000000
   17        5.473452   0.000000
   18        5.646239   0.000000
 
  0.2380952E+00  0.2380952E-01  0.1262379E-14  0.2267574E-02
    1      -15.832331   1.000000
    2      -14.973390   1.000000
    3       -7.135805   1.000000
    4       -5.770504   1.000000
    5       -5.215737   1.000000
    6       -3.909001   1.000000
    7       -3.389355   1.000000
    8       -3.327554   1.000000
    9       -2.646072   1.000000
   10        0.095075   0.000000
   11        0.705019   0.000000
   12        0.889160   0.000000
   13        2.092146   0.000000
   14        3.629677   0.000000
   15        3.924554   0.000000
   16        4.597817   0.000000
   17        5.526379   0.000000
   18        5.804414   0.000000
 
  0.2619048E+00  0.2380952E-01  0.1262379E-14  0.2267574E-02
    1      -15.692261   1.000000
    2      -14.897815   1.000000
    3       -7.012817   1.000000
    4       -6.004091   1.000000
    5       -5.421071   1.000000
    6       -4.037844   1.000000
    7       -3.438263   1.000000
    8       -3.285510   1.000000
    9       -2.751826   1.000000
   10        0.090524   0.000000
   11        0.642118   0.000000
   12        0.990991   0.000000
   13        2.189676   0.000000
   14        3.790182   0.000000
   15        4.116946   0.000000
   16        4.757231   0.000000
   17        5.508298   0.000000
   18        5.958788   0.000000
 
  0.2857143E+00  0.2380952E-01  0.1262379E-14  0.2267574E-02
    1      -15.545983   1.000000
    2      -14.819552   1.000000
    3       -6.941721   1.000000
    4       -6.185865   1.000000
    5       -5.633020   1.000000
    6       -4.157107   1.000000
    7       -3.543285   1.000000
    8       -3.195219   1.000000
    9       -2.839704   1.000000
   10        0.119047   0.000000
   11        0.596199   0.000000
   12        1.110758   0.000000
   13        2.275876   0.000000
   14        3.950176   0.000000
   15        4.319589   0.000000
   16        4.891170   0.000000
   17        5.449043   0.000000
   18        6.078078   0.000000
 
  0.3095238E+00  0.2380952E-01  0.1262379E-14  0.2267574E-02
    1      -15.396175   1.000000
    2      -14.740201   1.000000
    3       -6.978276   1.000000
    4       -6.262709   1.000000
    5       -5.846326   1.000000
    6       -4.265819   1.000000
    7       -3.638821   1.000000
    8       -3.139547   1.000000
    9       -2.880517   1.000000
   10        0.174098   0.000000
   11        0.569333   0.000000
   12        1.240877   0.000000
   13        2.349901   0.000000
   14        4.097544   0.000000
   15        4.527544   0.000000
   16        4.921545   0.000000
   17        5.442332   0.000000
   18        6.104919   0.000000
 
  0.3333333E+00  0.2380952E-01  0.1262379E-14  0.2267574E-02
    1      -15.245981   1.000000
    2      -14.661581   1.000000
    3       -7.124380   1.000000
    4       -6.235336   1.000000
    5       -6.055127   1.000000
    6       -4.363542   1.000000
    7       -3.722749   1.000000
    8       -3.131142   1.000000
    9       -2.854909   1.000000
   10        0.249144   0.000000
   11        0.562498   0.000000
   12        1.374227   0.000000
   13        2.411482   0.000000
   14        4.197044   0.000000
   15        4.732753   0.000000
   16        4.815196   0.000000
   17        5.566718   0.000000
   18        6.046295   0.000000
 
  0.3571429E+00  0.2380952E-01  0.1262379E-14  0.2267574E-02
    1      -15.099056   1.000000
    2      -14.585694   1.000000
    3       -7.318250   1.000000
    4       -6.253461   1.000000
    5       -6.166914   1.000000
    6       -4.450045   1.000000
    7       -3.794238   1.000000
    8       -3.134273   1.000000
    9       -2.794778   1.000000
   10        0.337716   0.000000
   11        0.575750   0.000000
   12        1.504251   0.000000
   13        2.460788   0.000000
   14        4.149758   0.000000
   15        4.744915   0.000000
   16        4.922030   0.000000
   17        5.764976   0.000000
   18        5.985898   0.000000
 
  0.3809524E+00  0.2380952E-01  0.1262379E-14  0.2267574E-02
    1      -14.959565   1.000000
    2      -14.514699   1.000000
    3       -7.518088   1.000000
    4       -6.435606   1.000000
    5       -6.097903   1.000000
    6       -4.525096   1.000000
    7       -3.853342   1.000000
    8       -3.119301   1.000000
    9       -2.730153   1.000000
   10        0.432024   0.000000
   11        0.609528   0.000000
   12        1.625121   0.000000
   13        2.498378   0.000000
   14        3.918583   0.000000
   15        4.807545   0.000000
   16        5.077062   0.000000
   17        5.978456   0.000000
   18        5.996812   0.000000
 
  0.4047619E+00  0.2380952E-01  0.1262379E-14  0.2267574E-02
    1      -14.832156   1.000000
    2      -14.450855   1.000000
    3       -7.704346   1.000000
    4       -6.596316   1.000000
    5       -6.042865   1.000000
    6       -4.588400   1.000000
    7       -3.900654   1.000000
    8       -3.081563   1.000000
    9       -2.671242   1.000000
   10        0.519707   0.000000
   11        0.667635   0.000000
   12        1.731927   0.000000
   13        2.525220   0.000000
   14        3.614114   0.000000
   15        4.923905   0.000000
   16        5.184845   0.000000
   17        6.041741   0.000000
   18        6.248532   0.000000
 
  0.4285714E+00  0.2380952E-01  0.1262379E-14  0.2267574E-02
    1      -14.721793   1.000000
    2      -14.396399   1.000000
    3       -7.865787   1.000000
    4       -6.730964   1.000000
    5       -6.004637   1.000000
    6       -4.639615   1.000000
    7       -3.937018   1.000000
    8       -3.028635   1.000000
    9       -2.620930   1.000000
   10        0.587180   0.000000
   11        0.753360   0.000000
   12        1.820870   0.000000
   13        2.542771   0.000000
   14        3.304361   0.000000
   15        5.048503   0.000000
   16        5.253033   0.000000
   17        6.155978   0.000000
   18        6.507569   0.000000
 
  0.4523810E+00  0.2380952E-01  0.1262379E-14  0.2267574E-02
    1      -14.633424   1.000000
    2      -14.353408   1.000000
    3       -7.994342   1.000000
    4       -6.835630   1.000000
    5       -5.981004   1.000000
    6       -4.678398   1.000000
    7       -3.963320   1.000000
    8       -2.973263   1.000000
    9       -2.580246   1.000000
   10        0.633979   0.000000
   11        0.853791   0.000000
   12        1.889310   0.000000
   13        2.552983   0.000000
   14        3.025415   0.000000
   15        5.164009   0.000000
   16        5.299790   0.000000
   17        6.278411   0.000000
   18        6.743576   0.000000
 
  0.4761905E+00  0.2380952E-01  0.1262379E-14  0.2267574E-02
    1      -14.571545   1.000000
    2      -14.323645   1.000000
    3       -8.083799   1.000000
    4       -6.907212   1.000000
    5       -5.968149   1.000000
    6       -4.704454   1.000000
    7       -3.980344   1.000000
    8       -2.928419   1.000000
    9       -2.550683   1.000000
   10        0.664659   0.000000
   11        0.945518   0.000000
   12        1.935622   0.000000
   13        2.558080   0.000000
   14        2.808547   0.000000
   15        5.256142   0.000000
   16        5.333912   0.000000
   17        6.370736   0.000000
   18        6.891196   0.000000
 
  0.5000000E+00  0.2380952E-01  0.1262379E-14  0.2267574E-02
    1      -14.539649   1.000000
    2      -14.308410   1.000000
    3       -8.129727   1.000000
    4       -6.943570   1.000000
    5       -5.962674   1.000000
    6       -4.717566   1.000000
    7       -3.988666   1.000000
    8       -2.903577   1.000000
    9       -2.534874   1.000000
   10        0.680112   0.000000
   11        1.002439   0.000000
   12        1.958909   0.000000
   13        2.560084   0.000000
   14        2.686916   0.000000
   15        5.308608   0.000000
   16        5.353294   0.000000
   17        6.416152   0.000000
   18        6.932625   0.000000
 
 -0.4761905E+00  0.2380952E-01  0.1262379E-14  0.2267574E-02
    1      -14.539628   1.000000
    2      -14.308394   1.000000
    3       -8.129770   1.000000
    4       -6.943599   1.000000
    5       -5.962663   1.000000
    6       -4.717622   1.000000
    7       -3.988585   1.000000
    8       -2.903307   1.000000
    9       -2.535164   1.000000
   10        0.679869   0.000000
   11        1.002940   0.000000
   12        1.958784   0.000000
   13        2.560213   0.000000
   14        2.686761   0.000000
   15        5.308616   0.000000
   16        5.353280   0.000000
   17        6.416117   0.000000
   18        6.932608   0.000000
 
 -0.4523810E+00  0.2380952E-01  0.1262379E-14  0.2267574E-02
    1      -14.571484   1.000000
    2      -14.323597   1.000000
    3       -8.083925   1.000000
    4       -6.907301   1.000000
    5       -5.968116   1.000000
    6       -4.704617   1.000000
    7       -3.980105   1.000000
    8       -2.927654   1.000000
    9       -2.551501   1.000000
   10        0.663838   0.000000
   11        0.947035   0.000000
   12        1.935256   0.000000
   13        2.558458   0.000000
   14        2.808140   0.000000
   15        5.256167   0.000000
   16        5.333871   0.000000
   17        6.370651   0.000000
   18        6.891192   0.000000
 
 -0.4285714E+00  0.2380952E-01  0.1262379E-14  0.2267574E-02
    1      -14.633327   1.000000
    2      -14.353332   1.000000
    3       -7.994544   1.000000
    4       -6.835774   1.000000
    5       -5.980955   1.000000