       N       E                     dE             d eps       ncg     rms          rms(c)
DAV:   1     0.120238530397E+03    0.12024E+03   -0.76636E+03 16668   0.104E+03
DAV:   2    -0.989271902845E+01   -0.13013E+03   -0.12183E+03 26904   0.160E+02
DAV:   3    -0.214521139081E+02   -0.11559E+02   -0.11437E+02 22524   0.530E+01
DAV:   4    -0.216315886120E+02   -0.17947E+00   -0.17932E+00 22104   0.760E+00
DAV:   5    -0.216334251866E+02   -0.18366E-02   -0.18365E-02 22758   0.659E-01    0.704E-03
DAV:   6    -0.216323830412E+02    0.10421E-02   -0.28885E-04 23670   0.863E-02    0.334E-03
DAV:   7    -0.216323829238E+02    0.11732E-06   -0.46915E-06 22800   0.131E-02    0.203E-03
DAV:   8    -0.216323829185E+02    0.53066E-08   -0.62410E-08 23970   0.150E-03
   1 F= -.21632383E+02 E0= -.21632383E+02  d E =-.351640E-10
