 vasp.5.4.4.18Apr17-6-g9f103f2a35 (build May 31 2018 21:15:54) complex          
  
 executed on          c7_intel_O1 date 2020.08.12  12:19:42
 running on   36 total cores
 distrk:  each k-point on   36 cores,    1 groups
 distr:  one band on NCORES_PER_BAND=   6 cores,    6 groups


--------------------------------------------------------------------------------------------------------


 INCAR:
 POTCAR:   PAW_PBE W 08Apr2002                    
 POTCAR:   PAW_PBE Se 06Sep2000                   
 POTCAR:   PAW_PBE W 08Apr2002                    
   VRHFIN =W : 6s5d                                                             
   LEXCH  = PE                                                                  
   EATOM  =   204.6100 eV,   15.0384 Ry                                         
                                                                                
   TITEL  = PAW_PBE W 08Apr2002                                                 
   LULTRA =        F    use ultrasoft PP ?                                      
   IUNSCR =        1    unscreen: 0-lin 1-nonlin 2-no                           
   RPACOR =    2.330    partial core radius                                     
   POMASS =  183.850; ZVAL   =    6.000    mass and valenz                      
   RCORE  =    2.750    outmost cutoff radius                                   
   RWIGS  =    2.750; RWIGS  =    1.455    wigner-seitz radius (au A)           
   ENMAX  =  223.057; ENMIN  =  167.293 eV                                      
   RCLOC  =    2.147    cutoff for local pot                                    
   LCOR   =        T    correct aug charges                                     
   LPAW   =        T    paw PP                                                  
   EAUG   =  373.438                                                            
   DEXC   =    -.060                                                            
   RMAX   =    3.087    core radius for proj-oper                               
   RAUG   =    1.300    factor for augmentation sphere                          
   RDEP   =    2.886    radius for radial grids                                 
   QCUT   =   -4.049; QGAM   =    8.098    optimization parameters              
                                                                                
   Description                                                                  
     l     E      TYP  RCUT    TYP  RCUT                                        
     2   .000     23  2.500                                                     
     2   .000     23  2.500                                                     
     0   .000     23  2.500                                                     
     0   .000     23  2.500                                                     
     1   .200     23  2.750                                                     
     1  2.000     23  2.750                                                     
     3   .000      7   .000                                                     
  local pseudopotential read in
  partial core-charges read in
  atomic valenz-charges read in
  non local Contribution for L=           2  read in
    real space projection operators read in
  non local Contribution for L=           2  read in
    real space projection operators read in
  non local Contribution for L=           0  read in
    real space projection operators read in
  non local Contribution for L=           0  read in
    real space projection operators read in
  non local Contribution for L=           1  read in
    real space projection operators read in
  non local Contribution for L=           1  read in
    real space projection operators read in
    PAW grid and wavefunctions read in
 
   number of l-projection  operators is LMAX  =           6
   number of lm-projection operators is LMMAX =          18
 
 POTCAR:   PAW_PBE Se 06Sep2000                   
   VRHFIN =Se: s2p4                                                             
   LEXCH  = PE                                                                  
   EATOM  =   256.9644 eV,   18.8864 Ry                                         
                                                                                
   TITEL  = PAW_PBE Se 06Sep2000                                                
   LULTRA =        F    use ultrasoft PP ?                                      
   IUNSCR =        1    unscreen: 0-lin 1-nonlin 2-no                           
   RPACOR =    1.900    partial core radius                                     
   POMASS =   78.960; ZVAL   =    6.000    mass and valenz                      
   RCORE  =    2.100    outmost cutoff radius                                   
   RWIGS  =    2.200; RWIGS  =    1.164    wigner-seitz radius (au A)           
   ENMAX  =  211.534; ENMIN  =  158.651 eV                                      
   ICORE  =        3    local potential                                         
   LCOR   =        T    correct aug charges                                     
   LPAW   =        T    paw PP                                                  
   EAUG   =  446.842                                                            
   DEXC   =    -.031                                                            
   RMAX   =    3.170    core radius for proj-oper                               
   RAUG   =    1.300    factor for augmentation sphere                          
   RDEP   =    2.177    radius for radial grids                                 
   QCUT   =   -3.943; QGAM   =    7.886    optimization parameters              
                                                                                
   Description                                                                  
     l     E      TYP  RCUT    TYP  RCUT                                        
     0   .000     23  2.100                                                     
     0   .000     23  2.100                                                     
     1   .000     23  2.100                                                     
     1   .000     23  2.100                                                     
     2   .000     23  2.100                                                     
     3  -.100      7  2.100                                                     
  local pseudopotential read in
  partial core-charges read in
  atomic valenz-charges read in
  non local Contribution for L=           0  read in
    real space projection operators read in
  non local Contribution for L=           0  read in
    real space projection operators read in
  non local Contribution for L=           1  read in
    real space projection operators read in
  non local Contribution for L=           1  read in
    real space projection operators read in
  non local Contribution for L=           2  read in
    real space projection operators read in
    PAW grid and wavefunctions read in
 
   number of l-projection  operators is LMAX  =           5
   number of lm-projection operators is LMMAX =          13
 
 WARNING: PSMAXN for non-local potential too small
          PSMAXN should be >   14.4904333269122       NTYP=           1
 PAW_PBE W 08Apr2002                    :
 energy of atom  1       EATOM= -204.6100
 kinetic energy error for atom=    0.0002 (will be added to EATOM!!)
 PAW_PBE Se 06Sep2000                   :
 energy of atom  2       EATOM= -256.9644
 kinetic energy error for atom=    0.0002 (will be added to EATOM!!)
 
 
 POSCAR: WSe2 Mono                               
  positions in direct lattice
  velocities in cartesian coordinates
 exchange correlation table for  LEXCH =        8
   RHO(1)=    0.500       N(1)  =     2000
   RHO(2)=  100.500       N(2)  =     4000
 


--------------------------------------------------------------------------------------------------------


 ion  position               nearest neighbor table
   1  1.000  0.000  0.000-   2 2.54   3 2.54   2 2.54   3 2.54   2 2.54   3 2.54
   2  0.333  0.333  0.915-   1 2.54   1 2.54   1 2.54
   3  0.333  0.333  0.085-   1 2.54   1 2.54   1 2.54
 
  LATTYP: Found a base centered orthorhombic cell.
 ALAT       =     3.2820000000
 B/A-ratio  =     1.7309445460
 C/A-ratio  =     6.0938452163
  
  Lattice vectors:
  
 A1 = (  -1.6410000000,  -2.8404800000,   0.0000000000)
 A2 = (  -1.6410000000,   2.8404800000,   0.0000000000)
 A3 = (   0.0000000000,   0.0000000000, -20.0000000000)


Analysis of symmetry for initial positions (statically):
=====================================================================
 Subroutine PRICEL returns:
 Original cell was already a primitive cell.
 

 Routine SETGRP: Setting up the symmetry group for a 
 base centered orthorhombic supercell.


 Subroutine GETGRP returns: Found  4 space group operations
 (whereof  4 operations were pure point group operations)
 out of a pool of  8 trial point group operations.


The static configuration has the point symmetry C_2v.


Analysis of symmetry for dynamics (positions and initial velocities):
=====================================================================
 Subroutine PRICEL returns:
 Original cell was already a primitive cell.
 

 Routine SETGRP: Setting up the symmetry group for a 
 base centered orthorhombic supercell.


 Subroutine GETGRP returns: Found  4 space group operations
 (whereof  4 operations were pure point group operations)
 out of a pool of  8 trial point group operations.


The dynamic configuration has the point symmetry C_2v.


 Subroutine INISYM returns: Found  4 space group operations
 (whereof  4 operations are pure point group operations),
 and found     1 'primitive' translations

 
 
 KPOINTS: W-1, Se-2                               

Automatic generation of k-mesh.
Space group operators:
 irot       det(A)        alpha          n_x          n_y          n_z        tau_x        tau_y        tau_z
    1     1.000000     0.000000     1.000000     0.000000     0.000000     0.000000     0.000000     0.000000
    2    -1.000000   180.000000     0.000000     0.000000     1.000000     0.000000     0.000000     0.000000
    3     1.000000   180.000000     0.000000     1.000000     0.000000     0.000000     0.000000     0.000000
    4    -1.000000   180.000000     1.000000    -0.000000     0.000000     0.000000     0.000000     0.000000
 
 Subroutine IBZKPT returns following result:
 ===========================================
 
 Found    463 irreducible k-points:
 
 Following reciprocal coordinates:
            Coordinates               Weight
  0.000000  0.000000  0.000000      1.000000
  0.023810  0.000000  0.000000      4.000000
  0.047619  0.000000  0.000000      4.000000
  0.071429  0.000000  0.000000      4.000000
  0.095238  0.000000  0.000000      4.000000
  0.119048  0.000000  0.000000      4.000000
  0.142857  0.000000  0.000000      4.000000
  0.166667  0.000000  0.000000      4.000000
  0.190476  0.000000  0.000000      4.000000
  0.214286  0.000000  0.000000      4.000000
  0.238095  0.000000  0.000000      4.000000
  0.261905  0.000000  0.000000      4.000000
  0.285714  0.000000  0.000000      4.000000
  0.309524  0.000000  0.000000      4.000000
  0.333333  0.000000  0.000000      4.000000
  0.357143  0.000000  0.000000      4.000000
  0.380952  0.000000  0.000000      4.000000
  0.404762  0.000000  0.000000      4.000000
  0.428571  0.000000  0.000000      4.000000
  0.452381  0.000000  0.000000      4.000000
  0.476190  0.000000  0.000000      4.000000
  0.500000  0.000000  0.000000      2.000000
  0.000000  0.023810  0.000000      2.000000
  0.047619  0.023810  0.000000      2.000000
  0.071429  0.023810  0.000000      4.000000
  0.095238  0.023810  0.000000      4.000000
  0.119048  0.023810  0.000000      4.000000
  0.142857  0.023810  0.000000      4.000000
  0.166667  0.023810  0.000000      4.000000
  0.190476  0.023810  0.000000      4.000000
  0.214286  0.023810  0.000000      4.000000
  0.238095  0.023810  0.000000      4.000000
  0.261905  0.023810  0.000000      4.000000
  0.285714  0.023810  0.000000      4.000000
  0.309524  0.023810  0.000000      4.000000
  0.333333  0.023810  0.000000      4.000000
  0.357143  0.023810  0.000000      4.000000
  0.380952  0.023810  0.000000      4.000000
  0.404762  0.023810  0.000000      4.000000
  0.428571  0.023810  0.000000      4.000000
  0.452381  0.023810  0.000000      4.000000
  0.476190  0.023810  0.000000      4.000000
  0.500000  0.023810  0.000000      4.000000
 -0.476190  0.023810  0.000000      4.000000
 -0.452381  0.023810  0.000000      4.000000
 -0.428571  0.023810  0.000000      4.000000
 -0.404762  0.023810  0.000000      4.000000
 -0.380952  0.023810  0.000000      4.000000
 -0.357143  0.023810  0.000000      4.000000
 -0.333333  0.023810  0.000000      4.000000
 -0.309524  0.023810  0.000000      4.000000
 -0.285714  0.023810  0.000000      4.000000
 -0.261905  0.023810  0.000000      4.000000
 -0.238095  0.023810  0.000000      4.000000
 -0.214286  0.023810  0.000000      4.000000
 -0.190476  0.023810  0.000000      4.000000
 -0.166667  0.023810  0.000000      4.000000
 -0.142857  0.023810  0.000000      4.000000
 -0.119048  0.023810  0.000000      4.000000
 -0.095238  0.023810  0.000000      4.000000
 -0.071429  0.023810  0.000000      4.000000
 -0.047619  0.023810  0.000000      4.000000
 -0.023810  0.023810  0.000000      4.000000
  0.000000  0.047619  0.000000      2.000000
  0.095238  0.047619  0.000000      2.000000
  0.119048  0.047619  0.000000      4.000000
  0.142857  0.047619  0.000000      4.000000
  0.166667  0.047619  0.000000      4.000000
  0.190476  0.047619  0.000000      4.000000
  0.214286  0.047619  0.000000      4.000000
  0.238095  0.047619  0.000000      4.000000
  0.261905  0.047619  0.000000      4.000000
  0.285714  0.047619  0.000000      4.000000
  0.309524  0.047619  0.000000      4.000000
  0.333333  0.047619  0.000000      4.000000
  0.357143  0.047619  0.000000      4.000000
  0.380952  0.047619  0.000000      4.000000
  0.404762  0.047619  0.000000      4.000000
  0.428571  0.047619  0.000000      4.000000
  0.452381  0.047619  0.000000      4.000000
  0.476190  0.047619  0.000000      4.000000
  0.500000  0.047619  0.000000      4.000000
 -0.476190  0.047619  0.000000      4.000000
 -0.452381  0.047619  0.000000      4.000000
 -0.428571  0.047619  0.000000      4.000000
 -0.404762  0.047619  0.000000      4.000000
 -0.380952  0.047619  0.000000      4.000000
 -0.357143  0.047619  0.000000      4.000000
 -0.333333  0.047619  0.000000      4.000000
 -0.309524  0.047619  0.000000      4.000000
 -0.285714  0.047619  0.000000      4.000000
 -0.261905  0.047619  0.000000      4.000000
 -0.238095  0.047619  0.000000      4.000000
 -0.214286  0.047619  0.000000      4.000000
 -0.190476  0.047619  0.000000      4.000000
 -0.166667  0.047619  0.000000      4.000000
 -0.142857  0.047619  0.000000      4.000000
 -0.119048  0.047619  0.000000      4.000000
 -0.095238  0.047619  0.000000      4.000000
 -0.071429  0.047619  0.000000      4.000000
 -0.047619  0.047619  0.000000      4.000000
 -0.023810  0.047619  0.000000      4.000000
  0.000000  0.071429  0.000000      2.000000
  0.142857  0.071429  0.000000      2.000000
  0.166667  0.071429  0.000000      4.000000
  0.190476  0.071429  0.000000      4.000000
  0.214286  0.071429  0.000000      4.000000
  0.238095  0.071429  0.000000      4.000000
  0.261905  0.071429  0.000000      4.000000
  0.285714  0.071429  0.000000      4.000000
  0.309524  0.071429  0.000000      4.000000
  0.333333  0.071429  0.000000      4.000000
  0.357143  0.071429  0.000000      4.000000
  0.380952  0.071429  0.000000      4.000000
  0.404762  0.071429  0.000000      4.000000
  0.428571  0.071429  0.000000      4.000000
  0.452381  0.071429  0.000000      4.000000
  0.476190  0.071429  0.000000      4.000000
  0.500000  0.071429  0.000000      4.000000
 -0.476190  0.071429  0.000000      4.000000
 -0.452381  0.071429  0.000000      4.000000
 -0.428571  0.071429  0.000000      4.000000
 -0.404762  0.071429  0.000000      4.000000
 -0.380952  0.071429  0.000000      4.000000
 -0.357143  0.071429  0.000000      4.000000
 -0.333333  0.071429  0.000000      4.000000
 -0.309524  0.071429  0.000000      4.000000
 -0.285714  0.071429  0.000000      4.000000
 -0.261905  0.071429  0.000000      4.000000
 -0.238095  0.071429  0.000000      4.000000
 -0.214286  0.071429  0.000000      4.000000
 -0.190476  0.071429  0.000000      4.000000
 -0.166667  0.071429  0.000000      4.000000
 -0.142857  0.071429  0.000000      4.000000
 -0.119048  0.071429  0.000000      4.000000
 -0.095238  0.071429  0.000000      4.000000
 -0.071429  0.071429  0.000000      4.000000
 -0.047619  0.071429  0.000000      4.000000
 -0.023810  0.071429  0.000000      4.000000
  0.000000  0.095238  0.000000      2.000000
  0.190476  0.095238  0.000000      2.000000
  0.214286  0.095238  0.000000      4.000000
  0.238095  0.095238  0.000000      4.000000
  0.261905  0.095238  0.000000      4.000000
  0.285714  0.095238  0.000000      4.000000
  0.309524  0.095238  0.000000      4.000000
  0.333333  0.095238  0.000000      4.000000
  0.357143  0.095238  0.000000      4.000000
  0.380952  0.095238  0.000000      4.000000
  0.404762  0.095238  0.000000      4.000000
  0.428571  0.095238  0.000000      4.000000
  0.452381  0.095238  0.000000      4.000000
  0.476190  0.095238  0.000000      4.000000
  0.500000  0.095238  0.000000      4.000000
 -0.476190  0.095238  0.000000      4.000000
 -0.452381  0.095238  0.000000      4.000000
 -0.428571  0.095238  0.000000      4.000000
 -0.404762  0.095238  0.000000      4.000000
 -0.380952  0.095238  0.000000      4.000000
 -0.357143  0.095238  0.000000      4.000000
 -0.333333  0.095238  0.000000      4.000000
 -0.309524  0.095238  0.000000      4.000000
 -0.285714  0.095238  0.000000      4.000000
 -0.261905  0.095238  0.000000      4.000000
 -0.238095  0.095238  0.000000      4.000000
 -0.214286  0.095238  0.000000      4.000000
 -0.190476  0.095238  0.000000      4.000000
 -0.166667  0.095238  0.000000      4.000000
 -0.142857  0.095238  0.000000      4.000000
 -0.119048  0.095238  0.000000      4.000000
 -0.095238  0.095238  0.000000      4.000000
 -0.071429  0.095238  0.000000      4.000000
 -0.047619  0.095238  0.000000      4.000000
 -0.023810  0.095238  0.000000      4.000000
  0.000000  0.119048  0.000000      2.000000
  0.238095  0.119048  0.000000      2.000000
  0.261905  0.119048  0.000000      4.000000
  0.285714  0.119048  0.000000      4.000000
  0.309524  0.119048  0.000000      4.000000
  0.333333  0.119048  0.000000      4.000000
  0.357143  0.119048  0.000000      4.000000
  0.380952  0.119048  0.000000      4.000000
  0.404762  0.119048  0.000000      4.000000
  0.428571  0.119048  0.000000      4.000000
  0.452381  0.119048  0.000000      4.000000
  0.476190  0.119048  0.000000      4.000000
  0.500000  0.119048  0.000000      4.000000
 -0.476190  0.119048  0.000000      4.000000
 -0.452381  0.119048  0.000000      4.000000
 -0.428571  0.119048  0.000000      4.000000
 -0.404762  0.119048  0.000000      4.000000
 -0.380952  0.119048  0.000000      4.000000
 -0.357143  0.119048  0.000000      4.000000
 -0.333333  0.119048  0.000000      4.000000
 -0.309524  0.119048  0.000000      4.000000
 -0.285714  0.119048  0.000000      4.000000
 -0.261905  0.119048  0.000000      4.000000
 -0.238095  0.119048  0.000000      4.000000
 -0.214286  0.119048  0.000000      4.000000
 -0.190476  0.119048  0.000000      4.000000
 -0.166667  0.119048  0.000000      4.000000
 -0.142857  0.119048  0.000000      4.000000
 -0.119048  0.119048  0.000000      4.000000
 -0.095238  0.119048  0.000000      4.000000
 -0.071429  0.119048  0.000000      4.000000
 -0.047619  0.119048  0.000000      4.000000
 -0.023810  0.119048  0.000000      4.000000
  0.000000  0.142857  0.000000      2.000000
  0.285714  0.142857  0.000000      2.000000
  0.309524  0.142857  0.000000      4.000000
  0.333333  0.142857  0.000000      4.000000
  0.357143  0.142857  0.000000      4.000000
  0.380952  0.142857  0.000000      4.000000
  0.404762  0.142857  0.000000      4.000000
  0.428571  0.142857  0.000000      4.000000
  0.452381  0.142857  0.000000      4.000000
  0.476190  0.142857  0.000000      4.000000
  0.500000  0.142857  0.000000      4.000000
 -0.476190  0.142857  0.000000      4.000000
 -0.452381  0.142857  0.000000      4.000000
 -0.428571  0.142857  0.000000      4.000000
 -0.404762  0.142857  0.000000      4.000000
 -0.380952  0.142857  0.000000      4.000000
 -0.357143  0.142857  0.000000      4.000000
 -0.333333  0.142857  0.000000      4.000000
 -0.309524  0.142857  0.000000      4.000000
 -0.285714  0.142857  0.000000      4.000000
 -0.261905  0.142857  0.000000      4.000000
 -0.238095  0.142857  0.000000      4.000000
 -0.214286  0.142857  0.000000      4.000000
 -0.190476  0.142857  0.000000      4.000000
 -0.166667  0.142857  0.000000      4.000000
 -0.142857  0.142857  0.000000      4.000000
 -0.119048  0.142857  0.000000      4.000000
 -0.095238  0.142857  0.000000      4.000000
 -0.071429  0.142857  0.000000      4.000000
 -0.047619  0.142857  0.000000      4.000000
 -0.023810  0.142857  0.000000      4.000000
  0.000000  0.166667  0.000000      2.000000
  0.333333  0.166667  0.000000      2.000000
  0.357143  0.166667  0.000000      4.000000
  0.380952  0.166667  0.000000      4.000000
  0.404762  0.166667  0.000000      4.000000
  0.428571  0.166667  0.000000      4.000000
  0.452381  0.166667  0.000000      4.000000
  0.476190  0.166667  0.000000      4.000000
  0.500000  0.166667  0.000000      4.000000
 -0.476190  0.166667  0.000000      4.000000
 -0.452381  0.166667  0.000000      4.000000
 -0.428571  0.166667  0.000000      4.000000
 -0.404762  0.166667  0.000000      4.000000
 -0.380952  0.166667  0.000000      4.000000
 -0.357143  0.166667  0.000000      4.000000
 -0.333333  0.166667  0.000000      4.000000
 -0.309524  0.166667  0.000000      4.000000
 -0.285714  0.166667  0.000000      4.000000
 -0.261905  0.166667  0.000000      4.000000
 -0.238095  0.166667  0.000000      4.000000
 -0.214286  0.166667  0.000000      4.000000
 -0.190476  0.166667  0.000000      4.000000
 -0.166667  0.166667  0.000000      4.000000
 -0.142857  0.166667  0.000000      4.000000
 -0.119048  0.166667  0.000000      4.000000
 -0.095238  0.166667  0.000000      4.000000
 -0.071429  0.166667  0.000000      4.000000
 -0.047619  0.166667  0.000000      4.000000
 -0.023810  0.166667  0.000000      4.000000
  0.000000  0.190476  0.000000      2.000000
  0.380952  0.190476  0.000000      2.000000
  0.404762  0.190476  0.000000      4.000000
  0.428571  0.190476  0.000000      4.000000
  0.452381  0.190476  0.000000      4.000000
  0.476190  0.190476  0.000000      4.000000
  0.500000  0.190476  0.000000      4.000000
 -0.476190  0.190476  0.000000      4.000000
 -0.452381  0.190476  0.000000      4.000000
 -0.428571  0.190476  0.000000      4.000000
 -0.404762  0.190476  0.000000      4.000000
 -0.380952  0.190476  0.000000      4.000000
 -0.357143  0.190476  0.000000      4.000000
 -0.333333  0.190476  0.000000      4.000000
 -0.309524  0.190476  0.000000      4.000000
 -0.285714  0.190476  0.000000      4.000000
 -0.261905  0.190476  0.000000      4.000000
 -0.238095  0.190476  0.000000      4.000000
 -0.214286  0.190476  0.000000      4.000000
 -0.190476  0.190476  0.000000      4.000000
 -0.166667  0.190476  0.000000      4.000000
 -0.142857  0.190476  0.000000      4.000000
 -0.119048  0.190476  0.000000      4.000000
 -0.095238  0.190476  0.000000      4.000000
 -0.071429  0.190476  0.000000      4.000000
 -0.047619  0.190476  0.000000      4.000000
 -0.023810  0.190476  0.000000      4.000000
  0.000000  0.214286  0.000000      2.000000
  0.428571  0.214286  0.000000      2.000000
  0.452381  0.214286  0.000000      4.000000
  0.476190  0.214286  0.000000      4.000000
  0.500000  0.214286  0.000000      4.000000
 -0.476190  0.214286  0.000000      4.000000
 -0.452381  0.214286  0.000000      4.000000
 -0.428571  0.214286  0.000000      4.000000
 -0.404762  0.214286  0.000000      4.000000
 -0.380952  0.214286  0.000000      4.000000
 -0.357143  0.214286  0.000000      4.000000
 -0.333333  0.214286  0.000000      4.000000
 -0.309524  0.214286  0.000000      4.000000
 -0.285714  0.214286  0.000000      4.000000
 -0.261905  0.214286  0.000000      4.000000
 -0.238095  0.214286  0.000000      4.000000
 -0.214286  0.214286  0.000000      4.000000
 -0.190476  0.214286  0.000000      4.000000
 -0.166667  0.214286  0.000000      4.000000
 -0.142857  0.214286  0.000000      4.000000
 -0.119048  0.214286  0.000000      4.000000
 -0.095238  0.214286  0.000000      4.000000
 -0.071429  0.214286  0.000000      4.000000
 -0.047619  0.214286  0.000000      4.000000
 -0.023810  0.214286  0.000000      4.000000
  0.000000  0.238095  0.000000      2.000000
  0.476190  0.238095  0.000000      2.000000
  0.500000  0.238095  0.000000      4.000000
 -0.476190  0.238095  0.000000      4.000000
 -0.452381  0.238095  0.000000      4.000000
 -0.428571  0.238095  0.000000      4.000000
 -0.404762  0.238095  0.000000      4.000000
 -0.380952  0.238095  0.000000      4.000000
 -0.357143  0.238095  0.000000      4.000000
 -0.333333  0.238095  0.000000      4.000000
 -0.309524  0.238095  0.000000      4.000000
 -0.285714  0.238095  0.000000      4.000000
 -0.261905  0.238095  0.000000      4.000000
 -0.238095  0.238095  0.000000      4.000000
 -0.214286  0.238095  0.000000      4.000000
 -0.190476  0.238095  0.000000      4.000000
 -0.166667  0.238095  0.000000      4.000000
 -0.142857  0.238095  0.000000      4.000000
 -0.119048  0.238095  0.000000      4.000000
 -0.095238  0.238095  0.000000      4.000000
 -0.071429  0.238095  0.000000      4.000000
 -0.047619  0.238095  0.000000      4.000000
 -0.023810  0.238095  0.000000      4.000000
  0.000000  0.261905  0.000000      2.000000
 -0.476190  0.261905  0.000000      2.000000
 -0.452381  0.261905  0.000000      4.000000
 -0.428571  0.261905  0.000000      4.000000
 -0.404762  0.261905  0.000000      4.000000
 -0.380952  0.261905  0.000000      4.000000
 -0.357143  0.261905  0.000000      4.000000
 -0.333333  0.261905  0.000000      4.000000
 -0.309524  0.261905  0.000000      4.000000
 -0.285714  0.261905  0.000000      4.000000
 -0.261905  0.261905  0.000000      4.000000
 -0.238095  0.261905  0.000000      4.000000
 -0.214286  0.261905  0.000000      4.000000
 -0.190476  0.261905  0.000000      4.000000
 -0.166667  0.261905  0.000000      4.000000
 -0.142857  0.261905  0.000000      4.000000
 -0.119048  0.261905  0.000000      4.000000
 -0.095238  0.261905  0.000000      4.000000
 -0.071429  0.261905  0.000000      4.000000
 -0.047619  0.261905  0.000000      4.000000
 -0.023810  0.261905  0.000000      4.000000
  0.000000  0.285714  0.000000      2.000000
 -0.428571  0.285714  0.000000      2.000000
 -0.404762  0.285714  0.000000      4.000000
 -0.380952  0.285714  0.000000      4.000000
 -0.357143  0.285714  0.000000      4.000000
 -0.333333  0.285714  0.000000      4.000000
 -0.309524  0.285714  0.000000      4.000000
 -0.285714  0.285714  0.000000      4.000000
 -0.261905  0.285714  0.000000      4.000000
 -0.238095  0.285714  0.000000      4.000000
 -0.214286  0.285714  0.000000      4.000000
 -0.190476  0.285714  0.000000      4.000000
 -0.166667  0.285714  0.000000      4.000000
 -0.142857  0.285714  0.000000      4.000000
 -0.119048  0.285714  0.000000      4.000000
 -0.095238  0.285714  0.000000      4.000000
 -0.071429  0.285714  0.000000      4.000000
 -0.047619  0.285714  0.000000      4.000000
 -0.023810  0.285714  0.000000      4.000000
  0.000000  0.309524  0.000000      2.000000
 -0.380952  0.309524  0.000000      2.000000
 -0.357143  0.309524  0.000000      4.000000
 -0.333333  0.309524  0.000000      4.000000
 -0.309524  0.309524  0.000000      4.000000
 -0.285714  0.309524  0.000000      4.000000
 -0.261905  0.309524  0.000000      4.000000
 -0.238095  0.309524  0.000000      4.000000
 -0.214286  0.309524  0.000000      4.000000
 -0.190476  0.309524  0.000000      4.000000
 -0.166667  0.309524  0.000000      4.000000
 -0.142857  0.309524  0.000000      4.000000
 -0.119048  0.309524  0.000000      4.000000
 -0.095238  0.309524  0.000000      4.000000
 -0.071429  0.309524  0.000000      4.000000
 -0.047619  0.309524  0.000000      4.000000
 -0.023810  0.309524  0.000000      4.000000
  0.000000  0.333333  0.000000      2.000000
 -0.333333  0.333333  0.000000      2.000000
 -0.309524  0.333333  0.000000      4.000000
 -0.285714  0.333333  0.000000      4.000000
 -0.261905  0.333333  0.000000      4.000000
 -0.238095  0.333333  0.000000      4.000000
 -0.214286  0.333333  0.000000      4.000000
 -0.190476  0.333333  0.000000      4.000000
 -0.166667  0.333333  0.000000      4.000000
 -0.142857  0.333333  0.000000      4.000000
 -0.119048  0.333333  0.000000      4.000000
 -0.095238  0.333333  0.000000      4.000000
 -0.071429  0.333333  0.000000      4.000000
 -0.047619  0.333333  0.000000      4.000000
 -0.023810  0.333333  0.000000      4.000000
  0.000000  0.357143  0.000000      2.000000
 -0.285714  0.357143  0.000000      2.000000
 -0.261905  0.357143  0.000000      4.000000
 -0.238095  0.357143  0.000000      4.000000
 -0.214286  0.357143  0.000000      4.000000
 -0.190476  0.357143  0.000000      4.000000
 -0.166667  0.357143  0.000000      4.000000
 -0.142857  0.357143  0.000000      4.000000
 -0.119048  0.357143  0.000000      4.000000
 -0.095238  0.357143  0.000000      4.000000
 -0.071429  0.357143  0.000000      4.000000
 -0.047619  0.357143  0.000000      4.000000
 -0.023810  0.357143  0.000000      4.000000
  0.000000  0.380952  0.000000      2.000000
 -0.238095  0.380952  0.000000      2.000000
 -0.214286  0.380952  0.000000      4.000000
 -0.190476  0.380952  0.000000      4.000000
 -0.166667  0.380952  0.000000      4.000000
 -0.142857  0.380952  0.000000      4.000000
 -0.119048  0.380952  0.000000      4.000000
 -0.095238  0.380952  0.000000      4.000000
 -0.071429  0.380952  0.000000      4.000000
 -0.047619  0.380952  0.000000      4.000000
 -0.023810  0.380952  0.000000      4.000000
  0.000000  0.404762  0.000000      2.000000
 -0.190476  0.404762  0.000000      2.000000
 -0.166667  0.404762  0.000000      4.000000
 -0.142857  0.404762  0.000000      4.000000
 -0.119048  0.404762  0.000000      4.000000
 -0.095238  0.404762  0.000000      4.000000
 -0.071429  0.404762  0.000000      4.000000
 -0.047619  0.404762  0.000000      4.000000
 -0.023810  0.404762  0.000000      4.000000
  0.000000  0.428571  0.000000      2.000000
 -0.142857  0.428571  0.000000      2.000000
 -0.119048  0.428571  0.000000      4.000000
 -0.095238  0.428571  0.000000      4.000000
 -0.071429  0.428571  0.000000      4.000000
 -0.047619  0.428571  0.000000      4.000000
 -0.023810  0.428571  0.000000      4.000000
  0.000000  0.452381  0.000000      2.000000
 -0.095238  0.452381  0.000000      2.000000
 -0.071429  0.452381  0.000000      4.000000
 -0.047619  0.452381  0.000000      4.000000
 -0.023810  0.452381  0.000000      4.000000
  0.000000  0.476190  0.000000      2.000000
 -0.047619  0.476190  0.000000      2.000000
 -0.023810  0.476190  0.000000      4.000000
  0.000000  0.500000  0.000000      1.000000
 
 Following cartesian coordinates:
            Coordinates               Weight
  0.000000  0.000000  0.000000      1.000000
  0.007255 -0.004191  0.000000      4.000000
  0.014509 -0.008382  0.000000      4.000000
  0.021764 -0.012573  0.000000      4.000000
  0.029018 -0.016764  0.000000      4.000000
  0.036273 -0.020956  0.000000      4.000000
  0.043527 -0.025147  0.000000      4.000000
  0.050782 -0.029338  0.000000      4.000000
  0.058037 -0.033529  0.000000      4.000000
  0.065291 -0.037720  0.000000      4.000000
  0.072546 -0.041911  0.000000      4.000000
  0.079800 -0.046102  0.000000      4.000000
  0.087055 -0.050293  0.000000      4.000000
  0.094310 -0.054484  0.000000      4.000000
  0.101564 -0.058676  0.000000      4.000000
  0.108819 -0.062867  0.000000      4.000000
  0.116073 -0.067058  0.000000      4.000000
  0.123328 -0.071249  0.000000      4.000000
  0.130582 -0.075440  0.000000      4.000000
  0.137837 -0.079631  0.000000      4.000000
  0.145092 -0.083822  0.000000      4.000000
  0.152346 -0.088013  0.000000      2.000000
  0.000000  0.008382  0.000000      2.000000
  0.014509  0.000000  0.000000      2.000000
  0.021764 -0.004191  0.000000      4.000000
  0.029018 -0.008382  0.000000      4.000000
  0.036273 -0.012573  0.000000      4.000000
  0.043527 -0.016764  0.000000      4.000000
  0.050782 -0.020956  0.000000      4.000000
  0.058037 -0.025147  0.000000      4.000000
  0.065291 -0.029338  0.000000      4.000000
  0.072546 -0.033529  0.000000      4.000000
  0.079800 -0.037720  0.000000      4.000000
  0.087055 -0.041911  0.000000      4.000000
  0.094310 -0.046102  0.000000      4.000000
  0.101564 -0.050293  0.000000      4.000000
  0.108819 -0.054484  0.000000      4.000000
  0.116073 -0.058676  0.000000      4.000000
  0.123328 -0.062867  0.000000      4.000000
  0.130582 -0.067058  0.000000      4.000000
  0.137837 -0.071249  0.000000      4.000000
  0.145092 -0.075440  0.000000      4.000000
  0.152346 -0.079631  0.000000      4.000000
 -0.145092  0.092204  0.000000      4.000000
 -0.137837  0.088013  0.000000      4.000000
 -0.130582  0.083822  0.000000      4.000000
 -0.123328  0.079631  0.000000      4.000000
 -0.116073  0.075440  0.000000      4.000000
 -0.108819  0.071249  0.000000      4.000000
 -0.101564  0.067058  0.000000      4.000000
 -0.094310  0.062867  0.000000      4.000000
 -0.087055  0.058676  0.000000      4.000000
 -0.079800  0.054484  0.000000      4.000000
 -0.072546  0.050293  0.000000      4.000000
 -0.065291  0.046102  0.000000      4.000000
 -0.058037  0.041911  0.000000      4.000000
 -0.050782  0.037720  0.000000      4.000000
 -0.043527  0.033529  0.000000      4.000000
 -0.036273  0.029338  0.000000      4.000000
 -0.029018  0.025147  0.000000      4.000000
 -0.021764  0.020956  0.000000      4.000000
 -0.014509  0.016764  0.000000      4.000000
 -0.007255  0.012573  0.000000      4.000000
  0.000000  0.016764  0.000000      2.000000
  0.029018  0.000000  0.000000      2.000000
  0.036273 -0.004191  0.000000      4.000000
  0.043527 -0.008382  0.000000      4.000000
  0.050782 -0.012573  0.000000      4.000000
  0.058037 -0.016764  0.000000      4.000000
  0.065291 -0.020956  0.000000      4.000000
  0.072546 -0.025147  0.000000      4.000000
  0.079800 -0.029338  0.000000      4.000000
  0.087055 -0.033529  0.000000      4.000000
  0.094310 -0.037720  0.000000      4.000000
  0.101564 -0.041911  0.000000      4.000000
  0.108819 -0.046102  0.000000      4.000000
  0.116073 -0.050293  0.000000      4.000000
  0.123328 -0.054484  0.000000      4.000000
  0.130582 -0.058676  0.000000      4.000000
  0.137837 -0.062867  0.000000      4.000000
  0.145092 -0.067058  0.000000      4.000000
  0.152346 -0.071249  0.000000      4.000000
 -0.145092  0.100587  0.000000      4.000000
 -0.137837  0.096396  0.000000      4.000000
 -0.130582  0.092204  0.000000      4.000000
 -0.123328  0.088013  0.000000      4.000000
 -0.116073  0.083822  0.000000      4.000000
 -0.108819  0.079631  0.000000      4.000000
 -0.101564  0.075440  0.000000      4.000000
 -0.094310  0.071249  0.000000      4.000000
 -0.087055  0.067058  0.000000      4.000000
 -0.079800  0.062867  0.000000      4.000000
 -0.072546  0.058676  0.000000      4.000000
 -0.065291  0.054484  0.000000      4.000000
 -0.058037  0.050293  0.000000      4.000000
 -0.050782  0.046102  0.000000      4.000000
 -0.043527  0.041911  0.000000      4.000000
 -0.036273  0.037720  0.000000      4.000000
 -0.029018  0.033529  0.000000      4.000000
 -0.021764  0.029338  0.000000      4.000000
 -0.014509  0.025147  0.000000      4.000000
 -0.007255  0.020956  0.000000      4.000000
  0.000000  0.025147  0.000000      2.000000
  0.043527 -0.000000  0.000000      2.000000
  0.050782 -0.004191  0.000000      4.000000
  0.058037 -0.008382  0.000000      4.000000
  0.065291 -0.012573  0.000000      4.000000
  0.072546 -0.016764  0.000000      4.000000
  0.079800 -0.020956  0.000000      4.000000
  0.087055 -0.025147  0.000000      4.000000
  0.094310 -0.029338  0.000000      4.000000
  0.101564 -0.033529  0.000000      4.000000
  0.108819 -0.037720  0.000000      4.000000
  0.116073 -0.041911  0.000000      4.000000
  0.123328 -0.046102  0.000000      4.000000
  0.130582 -0.050293  0.000000      4.000000
  0.137837 -0.054484  0.000000      4.000000
  0.145092 -0.058676  0.000000      4.000000
  0.152346 -0.062867  0.000000      4.000000
 -0.145092  0.108969  0.000000      4.000000
 -0.137837  0.104778  0.000000      4.000000
 -0.130582  0.100587  0.000000      4.000000
 -0.123328  0.096396  0.000000      4.000000
 -0.116073  0.092204  0.000000      4.000000
 -0.108819  0.088013  0.000000      4.000000
 -0.101564  0.083822  0.000000      4.000000
 -0.094310  0.079631  0.000000      4.000000
 -0.087055  0.075440  0.000000      4.000000
 -0.079800  0.071249  0.000000      4.000000
 -0.072546  0.067058  0.000000      4.000000
 -0.065291  0.062867  0.000000      4.000000
 -0.058037  0.058676  0.000000      4.000000
 -0.050782  0.054484  0.000000      4.000000
 -0.043527  0.050293  0.000000      4.000000
 -0.036273  0.046102  0.000000      4.000000
 -0.029018  0.041911  0.000000      4.000000
 -0.021764  0.037720  0.000000      4.000000
 -0.014509  0.033529  0.000000      4.000000
 -0.007255  0.029338  0.000000      4.000000
  0.000000  0.033529  0.000000      2.000000
  0.058037 -0.000000  0.000000      2.000000
  0.065291 -0.004191  0.000000      4.000000
  0.072546 -0.008382  0.000000      4.000000
  0.079800 -0.012573  0.000000      4.000000
  0.087055 -0.016764  0.000000      4.000000
  0.094310 -0.020956  0.000000      4.000000
  0.101564 -0.025147  0.000000      4.000000
  0.108819 -0.029338  0.000000      4.000000
  0.116073 -0.033529  0.000000      4.000000
  0.123328 -0.037720  0.000000      4.000000
  0.130582 -0.041911  0.000000      4.000000
  0.137837 -0.046102  0.000000      4.000000
  0.145092 -0.050293  0.000000      4.000000
  0.152346 -0.054484  0.000000      4.000000
 -0.145092  0.117351  0.000000      4.000000
 -0.137837  0.113160  0.000000      4.000000
 -0.130582  0.108969  0.000000      4.000000
 -0.123328  0.104778  0.000000      4.000000
 -0.116073  0.100587  0.000000      4.000000
 -0.108819  0.096396  0.000000      4.000000
 -0.101564  0.092204  0.000000      4.000000
 -0.094310  0.088013  0.000000      4.000000
 -0.087055  0.083822  0.000000      4.000000
 -0.079800  0.079631  0.000000      4.000000
 -0.072546  0.075440  0.000000      4.000000
 -0.065291  0.071249  0.000000      4.000000
 -0.058037  0.067058  0.000000      4.000000
 -0.050782  0.062867  0.000000      4.000000
 -0.043527  0.058676  0.000000      4.000000
 -0.036273  0.054484  0.000000      4.000000
 -0.029018  0.050293  0.000000      4.000000
 -0.021764  0.046102  0.000000      4.000000
 -0.014509  0.041911  0.000000      4.000000
 -0.007255  0.037720  0.000000      4.000000
  0.000000  0.041911  0.000000      2.000000
  0.072546 -0.000000  0.000000      2.000000
  0.079800 -0.004191  0.000000      4.000000
  0.087055 -0.008382  0.000000      4.000000
  0.094310 -0.012573  0.000000      4.000000
  0.101564 -0.016764  0.000000      4.000000
  0.108819 -0.020956  0.000000      4.000000
  0.116073 -0.025147  0.000000      4.000000
  0.123328 -0.029338  0.000000      4.000000
  0.130582 -0.033529  0.000000      4.000000
  0.137837 -0.037720  0.000000      4.000000
  0.145092 -0.041911  0.000000      4.000000
  0.152346 -0.046102  0.000000      4.000000
 -0.145092  0.125733  0.000000      4.000000
 -0.137837  0.121542  0.000000      4.000000
 -0.130582  0.117351  0.000000      4.000000
 -0.123328  0.113160  0.000000      4.000000
 -0.116073  0.108969  0.000000      4.000000
 -0.108819  0.104778  0.000000      4.000000
 -0.101564  0.100587  0.000000      4.000000
 -0.094310  0.096396  0.000000      4.000000
 -0.087055  0.092204  0.000000      4.000000
 -0.079800  0.088013  0.000000      4.000000
 -0.072546  0.083822  0.000000      4.000000
 -0.065291  0.079631  0.000000      4.000000
 -0.058037  0.075440  0.000000      4.000000
 -0.050782  0.071249  0.000000      4.000000
 -0.043527  0.067058  0.000000      4.000000
 -0.036273  0.062867  0.000000      4.000000
 -0.029018  0.058676  0.000000      4.000000
 -0.021764  0.054484  0.000000      4.000000
 -0.014509  0.050293  0.000000      4.000000
 -0.007255  0.046102  0.000000      4.000000
  0.000000  0.050293  0.000000      2.000000
  0.087055  0.000000  0.000000      2.000000
  0.094310 -0.004191  0.000000      4.000000
  0.101564 -0.008382  0.000000      4.000000
  0.108819 -0.012573  0.000000      4.000000
  0.116073 -0.016764  0.000000      4.000000
  0.123328 -0.020956  0.000000      4.000000
  0.130582 -0.025147  0.000000      4.000000
  0.137837 -0.029338  0.000000      4.000000
  0.145092 -0.033529  0.000000      4.000000
  0.152346 -0.037720  0.000000      4.000000
 -0.145092  0.134115  0.000000      4.000000
 -0.137837  0.129924  0.000000      4.000000
 -0.130582  0.125733  0.000000      4.000000
 -0.123328  0.121542  0.000000      4.000000
 -0.116073  0.117351  0.000000      4.000000
 -0.108819  0.113160  0.000000      4.000000
 -0.101564  0.108969  0.000000      4.000000
 -0.094310  0.104778  0.000000      4.000000
 -0.087055  0.100587  0.000000      4.000000
 -0.079800  0.096396  0.000000      4.000000
 -0.072546  0.092204  0.000000      4.000000
 -0.065291  0.088013  0.000000      4.000000
 -0.058037  0.083822  0.000000      4.000000
 -0.050782  0.079631  0.000000      4.000000
 -0.043527  0.075440  0.000000      4.000000
 -0.036273  0.071249  0.000000      4.000000
 -0.029018  0.067058  0.000000      4.000000
 -0.021764  0.062867  0.000000      4.000000
 -0.014509  0.058676  0.000000      4.000000
 -0.007255  0.054484  0.000000      4.000000
  0.000000  0.058676  0.000000      2.000000
  0.101564  0.000000  0.000000      2.000000
  0.108819 -0.004191  0.000000      4.000000
  0.116073 -0.008382  0.000000      4.000000
  0.123328 -0.012573  0.000000      4.000000
  0.130582 -0.016764  0.000000      4.000000
  0.137837 -0.020956  0.000000      4.000000
  0.145092 -0.025147  0.000000      4.000000
  0.152346 -0.029338  0.000000      4.000000
 -0.145092  0.142498  0.000000      4.000000
 -0.137837  0.138307  0.000000      4.000000
 -0.130582  0.134115  0.000000      4.000000
 -0.123328  0.129924  0.000000      4.000000
 -0.116073  0.125733  0.000000      4.000000
 -0.108819  0.121542  0.000000      4.000000
 -0.101564  0.117351  0.000000      4.000000
 -0.094310  0.113160  0.000000      4.000000
 -0.087055  0.108969  0.000000      4.000000
 -0.079800  0.104778  0.000000      4.000000
 -0.072546  0.100587  0.000000      4.000000
 -0.065291  0.096396  0.000000      4.000000
 -0.058037  0.092204  0.000000      4.000000
 -0.050782  0.088013  0.000000      4.000000
 -0.043527  0.083822  0.000000      4.000000
 -0.036273  0.079631  0.000000      4.000000
 -0.029018  0.075440  0.000000      4.000000
 -0.021764  0.071249  0.000000      4.000000
 -0.014509  0.067058  0.000000      4.000000
 -0.007255  0.062867  0.000000      4.000000
  0.000000  0.067058  0.000000      2.000000
  0.116073  0.000000  0.000000      2.000000
  0.123328 -0.004191  0.000000      4.000000
  0.130582 -0.008382  0.000000      4.000000
  0.137837 -0.012573  0.000000      4.000000
  0.145092 -0.016764  0.000000      4.000000
  0.152346 -0.020956  0.000000      4.000000
 -0.145092  0.150880  0.000000      4.000000
 -0.137837  0.146689  0.000000      4.000000
 -0.130582  0.142498  0.000000      4.000000
 -0.123328  0.138307  0.000000      4.000000
 -0.116073  0.134115  0.000000      4.000000
 -0.108819  0.129924  0.000000      4.000000
 -0.101564  0.125733  0.000000      4.000000
 -0.094310  0.121542  0.000000      4.000000
 -0.087055  0.117351  0.000000      4.000000
 -0.079800  0.113160  0.000000      4.000000
 -0.072546  0.108969  0.000000      4.000000
 -0.065291  0.104778  0.000000      4.000000
 -0.058037  0.100587  0.000000      4.000000
 -0.050782  0.096396  0.000000      4.000000
 -0.043527  0.092204  0.000000      4.000000
 -0.036273  0.088013  0.000000      4.000000
 -0.029018  0.083822  0.000000      4.000000
 -0.021764  0.079631  0.000000      4.000000
 -0.014509  0.075440  0.000000      4.000000
 -0.007255  0.071249  0.000000      4.000000
  0.000000  0.075440  0.000000      2.000000
  0.130582  0.000000  0.000000      2.000000
  0.137837 -0.004191  0.000000      4.000000
  0.145092 -0.008382  0.000000      4.000000
  0.152346 -0.012573  0.000000      4.000000
 -0.145092  0.159262  0.000000      4.000000
 -0.137837  0.155071  0.000000      4.000000
 -0.130582  0.150880  0.000000      4.000000
 -0.123328  0.146689  0.000000      4.000000
 -0.116073  0.142498  0.000000      4.000000
 -0.108819  0.138307  0.000000      4.000000
 -0.101564  0.134115  0.000000      4.000000
 -0.094310  0.129924  0.000000      4.000000
 -0.087055  0.125733  0.000000      4.000000
 -0.079800  0.121542  0.000000      4.000000
 -0.072546  0.117351  0.000000      4.000000
 -0.065291  0.113160  0.000000      4.000000
 -0.058037  0.108969  0.000000      4.000000
 -0.050782  0.104778  0.000000      4.000000
 -0.043527  0.100587  0.000000      4.000000
 -0.036273  0.096396  0.000000      4.000000
 -0.029018  0.092204  0.000000      4.000000
 -0.021764  0.088013  0.000000      4.000000
 -0.014509  0.083822  0.000000      4.000000
 -0.007255  0.079631  0.000000      4.000000
  0.000000  0.083822  0.000000      2.000000
  0.145092  0.000000  0.000000      2.000000
  0.152346 -0.004191  0.000000      4.000000
 -0.145092  0.167644  0.000000      4.000000
 -0.137837  0.163453  0.000000      4.000000
 -0.130582  0.159262  0.000000      4.000000
 -0.123328  0.155071  0.000000      4.000000
 -0.116073  0.150880  0.000000      4.000000
 -0.108819  0.146689  0.000000      4.000000
 -0.101564  0.142498  0.000000      4.000000
 -0.094310  0.138307  0.000000      4.000000
 -0.087055  0.134115  0.000000      4.000000
 -0.079800  0.129924  0.000000      4.000000
 -0.072546  0.125733  0.000000      4.000000
 -0.065291  0.121542  0.000000      4.000000
 -0.058037  0.117351  0.000000      4.000000
 -0.050782  0.113160  0.000000      4.000000
 -0.043527  0.108969  0.000000      4.000000
 -0.036273  0.104778  0.000000      4.000000
 -0.029018  0.100587  0.000000      4.000000
 -0.021764  0.096396  0.000000      4.000000
 -0.014509  0.092204  0.000000      4.000000
 -0.007255  0.088013  0.000000      4.000000
  0.000000  0.092204  0.000000      2.000000
 -0.145092  0.176027  0.000000      2.000000
 -0.137837  0.171835  0.000000      4.000000
 -0.130582  0.167644  0.000000      4.000000
 -0.123328  0.163453  0.000000      4.000000
 -0.116073  0.159262  0.000000      4.000000
 -0.108819  0.155071  0.000000      4.000000
 -0.101564  0.150880  0.000000      4.000000
 -0.094310  0.146689  0.000000      4.000000
 -0.087055  0.142498  0.000000      4.000000
 -0.079800  0.138307  0.000000      4.000000
 -0.072546  0.134115  0.000000      4.000000
 -0.065291  0.129924  0.000000      4.000000
 -0.058037  0.125733  0.000000      4.000000
 -0.050782  0.121542  0.000000      4.000000
 -0.043527  0.117351  0.000000      4.000000
 -0.036273  0.113160  0.000000      4.000000
 -0.029018  0.108969  0.000000      4.000000
 -0.021764  0.104778  0.000000      4.000000
 -0.014509  0.100587  0.000000      4.000000
 -0.007255  0.096396  0.000000      4.000000
  0.000000  0.100587  0.000000      2.000000
 -0.130582  0.176027  0.000000      2.000000
 -0.123328  0.171835  0.000000      4.000000
 -0.116073  0.167644  0.000000      4.000000
 -0.108819  0.163453  0.000000      4.000000
 -0.101564  0.159262  0.000000      4.000000
 -0.094310  0.155071  0.000000      4.000000
 -0.087055  0.150880  0.000000      4.000000
 -0.079800  0.146689  0.000000      4.000000
 -0.072546  0.142498  0.000000      4.000000
 -0.065291  0.138307  0.000000      4.000000
 -0.058037  0.134115  0.000000      4.000000
 -0.050782  0.129924  0.000000      4.000000
 -0.043527  0.125733  0.000000      4.000000
 -0.036273  0.121542  0.000000      4.000000
 -0.029018  0.117351  0.000000      4.000000
 -0.021764  0.113160  0.000000      4.000000
 -0.014509  0.108969  0.000000      4.000000
 -0.007255  0.104778  0.000000      4.000000
  0.000000  0.108969  0.000000      2.000000
 -0.116073  0.176027  0.000000      2.000000
 -0.108819  0.171835  0.000000      4.000000
 -0.101564  0.167644  0.000000      4.000000
 -0.094310  0.163453  0.000000      4.000000
 -0.087055  0.159262  0.000000      4.000000
 -0.079800  0.155071  0.000000      4.000000
 -0.072546  0.150880  0.000000      4.000000
 -0.065291  0.146689  0.000000      4.000000
 -0.058037  0.142498  0.000000      4.000000
 -0.050782  0.138307  0.000000      4.000000
 -0.043527  0.134115  0.000000      4.000000
 -0.036273  0.129924  0.000000      4.000000
 -0.029018  0.125733  0.000000      4.000000
 -0.021764  0.121542  0.000000      4.000000
 -0.014509  0.117351  0.000000      4.000000
 -0.007255  0.113160  0.000000      4.000000
  0.000000  0.117351  0.000000      2.000000
 -0.101564  0.176027  0.000000      2.000000
 -0.094310  0.171835  0.000000      4.000000
 -0.087055  0.167644  0.000000      4.000000
 -0.079800  0.163453  0.000000      4.000000
 -0.072546  0.159262  0.000000      4.000000
 -0.065291  0.155071  0.000000      4.000000
 -0.058037  0.150880  0.000000      4.000000
 -0.050782  0.146689  0.000000      4.000000
 -0.043527  0.142498  0.000000      4.000000
 -0.036273  0.138307  0.000000      4.000000
 -0.029018  0.134115  0.000000      4.000000
 -0.021764  0.129924  0.000000      4.000000
 -0.014509  0.125733  0.000000      4.000000
 -0.007255  0.121542  0.000000      4.000000
  0.000000  0.125733  0.000000      2.000000
 -0.087055  0.176027  0.000000      2.000000
 -0.079800  0.171835  0.000000      4.000000
 -0.072546  0.167644  0.000000      4.000000
 -0.065291  0.163453  0.000000      4.000000
 -0.058037  0.159262  0.000000      4.000000
 -0.050782  0.155071  0.000000      4.000000
 -0.043527  0.150880  0.000000      4.000000
 -0.036273  0.146689  0.000000      4.000000
 -0.029018  0.142498  0.000000      4.000000
 -0.021764  0.138307  0.000000      4.000000
 -0.014509  0.134115  0.000000      4.000000
 -0.007255  0.129924  0.000000      4.000000
  0.000000  0.134115  0.000000      2.000000
 -0.072546  0.176027  0.000000      2.000000
 -0.065291  0.171835  0.000000      4.000000
 -0.058037  0.167644  0.000000      4.000000
 -0.050782  0.163453  0.000000      4.000000
 -0.043527  0.159262  0.000000      4.000000
 -0.036273  0.155071  0.000000      4.000000
 -0.029018  0.150880  0.000000      4.000000
 -0.021764  0.146689  0.000000      4.000000
 -0.014509  0.142498  0.000000      4.000000
 -0.007255  0.138307  0.000000      4.000000
  0.000000  0.142498  0.000000      2.000000
 -0.058037  0.176027  0.000000      2.000000
 -0.050782  0.171835  0.000000      4.000000
 -0.043527  0.167644  0.000000      4.000000
 -0.036273  0.163453  0.000000      4.000000
 -0.029018  0.159262  0.000000      4.000000
 -0.021764  0.155071  0.000000      4.000000
 -0.014509  0.150880  0.000000      4.000000
 -0.007255  0.146689  0.000000      4.000000
  0.000000  0.150880  0.000000      2.000000
 -0.043527  0.176027  0.000000      2.000000
 -0.036273  0.171835  0.000000      4.000000
 -0.029018  0.167644  0.000000      4.000000
 -0.021764  0.163453  0.000000      4.000000
 -0.014509  0.159262  0.000000      4.000000
 -0.007255  0.155071  0.000000      4.000000
  0.000000  0.159262  0.000000      2.000000
 -0.029018  0.176027  0.000000      2.000000
 -0.021764  0.171835  0.000000      4.000000
 -0.014509  0.167644  0.000000      4.000000
 -0.007255  0.163453  0.000000      4.000000
  0.000000  0.167644  0.000000      2.000000
 -0.014509  0.176027  0.000000      2.000000
 -0.007255  0.171835  0.000000      4.000000
  0.000000  0.176027  0.000000      1.000000
 


--------------------------------------------------------------------------------------------------------




 Dimension of arrays:
   k-points           NKPTS =    463   k-points in BZ     NKDIM =    463   number of bands    NBANDS=     18
   number of dos      NEDOS =   6001   number of ions     NIONS =      3
   non local maximal  LDIM  =      6   non local SUM 2l+1 LMDIM =     18
   total plane-waves  NPLWV = 172800
   max r-space proj   IRMAX =      1   max aug-charges    IRDMAX= 423367
   dimension x,y,z NGX =    30 NGY =   30 NGZ =  192
   dimension x,y,z NGXF=    60 NGYF=   60 NGZF=  384
   support grid    NGXF=   120 NGYF=  120 NGZF=  768
   ions per type =               1   2
   NGX,Y,Z   is equivalent  to a cutoff of  15.20, 15.20, 15.96 a.u.
   NGXF,Y,Z  is equivalent  to a cutoff of  30.39, 30.41, 31.92 a.u.

 SYSTEM =  W-1, se-2                               
 POSCAR =  WSe2 Mono                               

 Startparameter for this run:
   NWRITE =      2    write-flag & timer
   PREC   = accura    normal or accurate (medium, high low for compatibility)
   ISTART =      0    job   : 0-new  1-cont  2-samecut
   ICHARG =      1    charge: 1-file 2-atom 10-const
   ISPIN  =      1    spin polarized calculation?
   LNONCOLLINEAR =      F non collinear calculations
   LSORBIT =      F    spin-orbit coupling
   INIWAV =      1    electr: 0-lowe 1-rand  2-diag
   LASPH  =      F    aspherical Exc in radial PAW
   METAGGA=      F    non-selfconsistent MetaGGA calc.

 Electronic Relaxation 1
   ENCUT  =  800.0 eV  58.80 Ry    7.67 a.u.   7.57  7.57 46.12*2*pi/ulx,y,z
   ENINI  =  800.0     initial cutoff
   ENAUG  =  446.8 eV  augmentation charge cutoff
   NELM   =     60;   NELMIN=  5; NELMDL= -5     # of ELM steps 
   EDIFF  = 0.1E-07   stopping-criterion for ELM
   LREAL  =      F    real-space projection
   NLSPLINE    = F    spline interpolate recip. space projectors
   LCOMPAT=      F    compatible to vasp.4.4
   GGA_COMPAT  = T    GGA compatible to vasp.4.4-vasp.4.6
   LMAXPAW     = -100 max onsite density
   LMAXMIX     =    2 max onsite mixed and CHGCAR
   VOSKOWN=      0    Vosko Wilk Nusair interpolation
   ROPT   =    0.00000   0.00000
 Ionic relaxation
   EDIFFG = -.1E-07   stopping-criterion for IOM
   NSW    =      0    number of steps for IOM
   NBLOCK =      1;   KBLOCK =      1    inner block; outer block 
   IBRION =     -1    ionic relax: 0-MD 1-quasi-New 2-CG
   NFREE  =      0    steps in history (QN), initial steepest desc. (CG)
   ISIF   =      2    stress and relaxation
   IWAVPR =     10    prediction:  0-non 1-charg 2-wave 3-comb
   ISYM   =      2    0-nonsym 1-usesym 2-fastsym
   LCORR  =      T    Harris-Foulkes like correction to forces

   POTIM  = 0.5000    time-step for ionic-motion
   TEIN   =    0.0    initial temperature
   TEBEG  =    0.0;   TEEND  =   0.0 temperature during run
   SMASS  =  -3.00    Nose mass-parameter (am)
   estimated Nose-frequenzy (Omega)   =  0.10E-29 period in steps =****** mass=  -0.246E-27a.u.
   SCALEE = 1.0000    scale energy and forces
   NPACO  =    256;   APACO  = 16.0  distance and # of slots for P.C.
   PSTRESS=    0.0 pullay stress

  Mass of Ions in am
   POMASS = 183.85 78.96
  Ionic Valenz
   ZVAL   =   6.00  6.00
  Atomic Wigner-Seitz radii
   RWIGS  =  -1.00 -1.00
  virtual crystal weights 
   VCA    =   1.00  1.00
   NELECT =      18.0000    total number of electrons
   NUPDOWN=      -1.0000    fix difference up-down

 DOS related values:
   EMIN   =  10.00;   EMAX   =-10.00  energy-range for DOS
   EFERMI =   0.00
   ISMEAR =     0;   SIGMA  =   0.10  broadening in eV -4-tet -1-fermi 0-gaus

 Electronic relaxation 2 (details)
   IALGO  =     38    algorithm
   LDIAG  =      T    sub-space diagonalisation (order eigenvalues)
   LSUBROT=      F    optimize rotation matrix (better conditioning)
   TURBO    =      0    0=normal 1=particle mesh
   IRESTART =      0    0=no restart 2=restart with 2 vectors
   NREBOOT  =      0    no. of reboots
   NMIN     =      0    reboot dimension
   EREF     =   0.00    reference energy to select bands
   IMIX   =      4    mixing-type and parameters
     AMIX     =   0.40;   BMIX     =  1.00
     AMIX_MAG =   1.60;   BMIX_MAG =  1.00
     AMIN     =   0.01
     WC   =   100.;   INIMIX=   1;  MIXPRE=   1;  MAXMIX= -45

 Intra band minimization:
   WEIMIN = 0.0000     energy-eigenvalue tresh-hold
   EBREAK =  0.14E-10  absolut break condition
   DEPER  =   0.30     relativ break condition  

   TIME   =   0.40     timestep for ELM

  volume/ion in A,a.u.               =      62.15       419.41
  Fermi-wavevector in a.u.,A,eV,Ry     =   0.751010  1.419203  7.673898  0.564016
  Thomas-Fermi vector in A             =   1.847892
 
 Write flags
   LWAVE        =      F    write WAVECAR
   LDOWNSAMPLE  =      F    k-point downsampling of WAVECAR
   LCHARG       =      T    write CHGCAR
   LVTOT        =      F    write LOCPOT, total local potential
   LVHAR        =      F    write LOCPOT, Hartree potential only
   LELF         =      F    write electronic localiz. function (ELF)
   LORBIT       =      0    0 simple, 1 ext, 2 COOP (PROOUT), +10 PAW based schemes


 Dipole corrections
   LMONO  =      F    monopole corrections only (constant potential shift)
   LDIPOL =      F    correct potential (dipole corrections)
   IDIPOL =      0    1-x, 2-y, 3-z, 4-all directions 
   EPSILON=  1.0000000 bulk dielectric constant

 Exchange correlation treatment:
   GGA     =    --    GGA type
   LEXCH   =     8    internal setting for exchange type
   VOSKOWN=      0    Vosko Wilk Nusair interpolation
   LHFCALC =     F    Hartree Fock is set to
   LHFONE  =     F    Hartree Fock one center treatment
   AEXX    =    0.0000 exact exchange contribution

 Linear response parameters
   LEPSILON=     F    determine dielectric tensor
   LRPA    =     F    only Hartree local field effects (RPA)
   LNABLA  =     F    use nabla operator in PAW spheres
   LVEL    =     F    velocity operator in full k-point grid
   LINTERFAST=   F  fast interpolation
   KINTER  =     0    interpolate to denser k-point grid
   CSHIFT  =0.1000    complex shift for real part using Kramers Kronig
   OMEGAMAX=  -1.0    maximum frequency
   DEG_THRESHOLD= 0.2000000E-02 threshold for treating states as degnerate
   RTIME   =   -0.100 relaxation time in fs
  (WPLASMAI=    0.000 imaginary part of plasma frequency in eV, 0.658/RTIME)
   DFIELD  = 0.0000000 0.0000000 0.0000000 field for delta impulse in time
 
 Orbital magnetization related:
   ORBITALMAG=     F  switch on orbital magnetization
   LCHIMAG   =     F  perturbation theory with respect to B field
   DQ        =  0.001000  dq finite difference perturbation B field
   LLRAUG    =     F  two centre corrections for induced B field



--------------------------------------------------------------------------------------------------------


 Static calculation
 charge density and potential will be updated during run
 non-spin polarized calculation
 Variant of blocked Davidson
 Davidson routine will perform the subspace rotation
 perform sub-space diagonalisation
    after iterative eigenvector-optimisation
 modified Broyden-mixing scheme, WC =      100.0
 initial mixing is a Kerker type mixing with AMIX =  0.4000 and BMIX =      1.0000
 Hartree-type preconditioning will be used
 using additional bands            9
 reciprocal scheme for non local part
 use partial core corrections
 calculate Harris-corrections to forces 
   (improved forces if not selfconsistent)
 use gradient corrections 
 use of overlap-Matrix (Vanderbilt PP)
 Gauss-broadening in eV      SIGMA  =   0.10


--------------------------------------------------------------------------------------------------------


  energy-cutoff  :      800.00
  volume of cell :      186.45
      direct lattice vectors                 reciprocal lattice vectors
     3.282000000  0.000000000  0.000000000     0.304692261 -0.176026587  0.000000000
     1.641000000  2.840480000  0.000000000     0.000000000  0.352053174  0.000000000
     0.000000000  0.000000000 20.000000000     0.000000000  0.000000000  0.050000000

  length of vectors
     3.282000000  3.280427965 20.000000000     0.351884545  0.352053174  0.050000000


 
 k-points in units of 2pi/SCALE and weight: W-1, Se-2                               
   0.00000000  0.00000000  0.00000000       0.001
   0.00725458 -0.00419111  0.00000000       0.002
   0.01450916 -0.00838222  0.00000000       0.002
   0.02176373 -0.01257333  0.00000000       0.002
   0.02901831 -0.01676444  0.00000000       0.002
   0.03627289 -0.02095555  0.00000000       0.002
   0.04352747 -0.02514666  0.00000000       0.002
   0.05078204 -0.02933776  0.00000000       0.002
   0.05803662 -0.03352887  0.00000000       0.002
   0.06529120 -0.03771998  0.00000000       0.002
   0.07254578 -0.04191109  0.00000000       0.002
   0.07980035 -0.04610220  0.00000000       0.002
   0.08705493 -0.05029331  0.00000000       0.002
   0.09430951 -0.05448442  0.00000000       0.002
   0.10156409 -0.05867553  0.00000000       0.002
   0.10881866 -0.06286664  0.00000000       0.002
   0.11607324 -0.06705775  0.00000000       0.002
   0.12332782 -0.07124886  0.00000000       0.002
   0.13058240 -0.07543997  0.00000000       0.002
   0.13783698 -0.07963108  0.00000000       0.002
   0.14509155 -0.08382218  0.00000000       0.002
   0.15234613 -0.08801329  0.00000000       0.001
   0.00000000  0.00838222  0.00000000       0.001
   0.01450916  0.00000000  0.00000000       0.001
   0.02176373 -0.00419111  0.00000000       0.002
   0.02901831 -0.00838222  0.00000000       0.002
   0.03627289 -0.01257333  0.00000000       0.002
   0.04352747 -0.01676444  0.00000000       0.002
   0.05078204 -0.02095555  0.00000000       0.002
   0.05803662 -0.02514666  0.00000000       0.002
   0.06529120 -0.02933776  0.00000000       0.002
   0.07254578 -0.03352887  0.00000000       0.002
   0.07980035 -0.03771998  0.00000000       0.002
   0.08705493 -0.04191109  0.00000000       0.002
   0.09430951 -0.04610220  0.00000000       0.002
   0.10156409 -0.05029331  0.00000000       0.002
   0.10881866 -0.05448442  0.00000000       0.002
   0.11607324 -0.05867553  0.00000000       0.002
   0.12332782 -0.06286664  0.00000000       0.002
   0.13058240 -0.06705775  0.00000000       0.002
   0.13783698 -0.07124886  0.00000000       0.002
   0.14509155 -0.07543997  0.00000000       0.002
   0.15234613 -0.07963108  0.00000000       0.002
  -0.14509155  0.09220440  0.00000000       0.002
  -0.13783698  0.08801329  0.00000000       0.002
  -0.13058240  0.08382218  0.00000000       0.002
  -0.12332782  0.07963108  0.00000000       0.002
  -0.11607324  0.07543997  0.00000000       0.002
  -0.10881866  0.07124886  0.00000000       0.002
  -0.10156409  0.06705775  0.00000000       0.002
  -0.09430951  0.06286664  0.00000000       0.002
  -0.08705493  0.05867553  0.00000000       0.002
  -0.07980035  0.05448442  0.00000000       0.002
  -0.07254578  0.05029331  0.00000000       0.002
  -0.06529120  0.04610220  0.00000000       0.002
  -0.05803662  0.04191109  0.00000000       0.002
  -0.05078204  0.03771998  0.00000000       0.002
  -0.04352747  0.03352887  0.00000000       0.002
  -0.03627289  0.02933776  0.00000000       0.002
  -0.02901831  0.02514666  0.00000000       0.002
  -0.02176373  0.02095555  0.00000000       0.002
  -0.01450916  0.01676444  0.00000000       0.002
  -0.00725458  0.01257333  0.00000000       0.002
   0.00000000  0.01676444  0.00000000       0.001
   0.02901831  0.00000000  0.00000000       0.001
   0.03627289 -0.00419111  0.00000000       0.002
   0.04352747 -0.00838222  0.00000000       0.002
   0.05078204 -0.01257333  0.00000000       0.002
   0.05803662 -0.01676444  0.00000000       0.002
   0.06529120 -0.02095555  0.00000000       0.002
   0.07254578 -0.02514666  0.00000000       0.002
   0.07980035 -0.02933776  0.00000000       0.002
   0.08705493 -0.03352887  0.00000000       0.002
   0.09430951 -0.03771998  0.00000000       0.002
   0.10156409 -0.04191109  0.00000000       0.002
   0.10881866 -0.04610220  0.00000000       0.002
   0.11607324 -0.05029331  0.00000000       0.002
   0.12332782 -0.05448442  0.00000000       0.002
   0.13058240 -0.05867553  0.00000000       0.002
   0.13783698 -0.06286664  0.00000000       0.002
   0.14509155 -0.06705775  0.00000000       0.002
   0.15234613 -0.07124886  0.00000000       0.002
  -0.14509155  0.10058662  0.00000000       0.002
  -0.13783698  0.09639551  0.00000000       0.002
  -0.13058240  0.09220440  0.00000000       0.002
  -0.12332782  0.08801329  0.00000000       0.002
  -0.11607324  0.08382218  0.00000000       0.002
  -0.10881866  0.07963108  0.00000000       0.002
  -0.10156409  0.07543997  0.00000000       0.002
  -0.09430951  0.07124886  0.00000000       0.002
  -0.08705493  0.06705775  0.00000000       0.002
  -0.07980035  0.06286664  0.00000000       0.002
  -0.07254578  0.05867553  0.00000000       0.002
  -0.06529120  0.05448442  0.00000000       0.002
  -0.05803662  0.05029331  0.00000000       0.002
  -0.05078204  0.04610220  0.00000000       0.002
  -0.04352747  0.04191109  0.00000000       0.002
  -0.03627289  0.03771998  0.00000000       0.002
  -0.02901831  0.03352887  0.00000000       0.002
  -0.02176373  0.02933776  0.00000000       0.002
  -0.01450916  0.02514666  0.00000000       0.002
  -0.00725458  0.02095555  0.00000000       0.002
   0.00000000  0.02514666  0.00000000       0.001
   0.04352747 -0.00000000  0.00000000       0.001
   0.05078204 -0.00419111  0.00000000       0.002
   0.05803662 -0.00838222  0.00000000       0.002
   0.06529120 -0.01257333  0.00000000       0.002
   0.07254578 -0.01676444  0.00000000       0.002
   0.07980035 -0.02095555  0.00000000       0.002
   0.08705493 -0.02514666  0.00000000       0.002
   0.09430951 -0.02933776  0.00000000       0.002
   0.10156409 -0.03352887  0.00000000       0.002
   0.10881866 -0.03771998  0.00000000       0.002
   0.11607324 -0.04191109  0.00000000       0.002
   0.12332782 -0.04610220  0.00000000       0.002
   0.13058240 -0.05029331  0.00000000       0.002
   0.13783698 -0.05448442  0.00000000       0.002
   0.14509155 -0.05867553  0.00000000       0.002
   0.15234613 -0.06286664  0.00000000       0.002
  -0.14509155  0.10896884  0.00000000       0.002
  -0.13783698  0.10477773  0.00000000       0.002
  -0.13058240  0.10058662  0.00000000       0.002
  -0.12332782  0.09639551  0.00000000       0.002
  -0.11607324  0.09220440  0.00000000       0.002
  -0.10881866  0.08801329  0.00000000       0.002
  -0.10156409  0.08382218  0.00000000       0.002
  -0.09430951  0.07963108  0.00000000       0.002
  -0.08705493  0.07543997  0.00000000       0.002
  -0.07980035  0.07124886  0.00000000       0.002
  -0.07254578  0.06705775  0.00000000       0.002
  -0.06529120  0.06286664  0.00000000       0.002
  -0.05803662  0.05867553  0.00000000       0.002
  -0.05078204  0.05448442  0.00000000       0.002
  -0.04352747  0.05029331  0.00000000       0.002
  -0.03627289  0.04610220  0.00000000       0.002
  -0.02901831  0.04191109  0.00000000       0.002
  -0.02176373  0.03771998  0.00000000       0.002
  -0.01450916  0.03352887  0.00000000       0.002
  -0.00725458  0.02933776  0.00000000       0.002
   0.00000000  0.03352887  0.00000000       0.001
   0.05803662 -0.00000000  0.00000000       0.001
   0.06529120 -0.00419111  0.00000000       0.002
   0.07254578 -0.00838222  0.00000000       0.002
   0.07980035 -0.01257333  0.00000000       0.002
   0.08705493 -0.01676444  0.00000000       0.002
   0.09430951 -0.02095555  0.00000000       0.002
   0.10156409 -0.02514666  0.00000000       0.002
   0.10881866 -0.02933776  0.00000000       0.002
   0.11607324 -0.03352887  0.00000000       0.002
   0.12332782 -0.03771998  0.00000000       0.002
   0.13058240 -0.04191109  0.00000000       0.002
   0.13783698 -0.04610220  0.00000000       0.002
   0.14509155 -0.05029331  0.00000000       0.002
   0.15234613 -0.05448442  0.00000000       0.002
  -0.14509155  0.11735106  0.00000000       0.002
  -0.13783698  0.11315995  0.00000000       0.002
  -0.13058240  0.10896884  0.00000000       0.002
  -0.12332782  0.10477773  0.00000000       0.002
  -0.11607324  0.10058662  0.00000000       0.002
  -0.10881866  0.09639551  0.00000000       0.002
  -0.10156409  0.09220440  0.00000000       0.002
  -0.09430951  0.08801329  0.00000000       0.002
  -0.08705493  0.08382218  0.00000000       0.002
  -0.07980035  0.07963108  0.00000000       0.002
  -0.07254578  0.07543997  0.00000000       0.002
  -0.06529120  0.07124886  0.00000000       0.002
  -0.05803662  0.06705775  0.00000000       0.002
  -0.05078204  0.06286664  0.00000000       0.002
  -0.04352747  0.05867553  0.00000000       0.002
  -0.03627289  0.05448442  0.00000000       0.002
  -0.02901831  0.05029331  0.00000000       0.002
  -0.02176373  0.04610220  0.00000000       0.002
  -0.01450916  0.04191109  0.00000000       0.002
  -0.00725458  0.03771998  0.00000000       0.002
   0.00000000  0.04191109  0.00000000       0.001
   0.07254578 -0.00000000  0.00000000       0.001
   0.07980035 -0.00419111  0.00000000       0.002
   0.08705493 -0.00838222  0.00000000       0.002
   0.09430951 -0.01257333  0.00000000       0.002
   0.10156409 -0.01676444  0.00000000       0.002
   0.10881866 -0.02095555  0.00000000       0.002
   0.11607324 -0.02514666  0.00000000       0.002
   0.12332782 -0.02933776  0.00000000       0.002
   0.13058240 -0.03352887  0.00000000       0.002
   0.13783698 -0.03771998  0.00000000       0.002
   0.14509155 -0.04191109  0.00000000       0.002
   0.15234613 -0.04610220  0.00000000       0.002
  -0.14509155  0.12573328  0.00000000       0.002
  -0.13783698  0.12154217  0.00000000       0.002
  -0.13058240  0.11735106  0.00000000       0.002
  -0.12332782  0.11315995  0.00000000       0.002
  -0.11607324  0.10896884  0.00000000       0.002
  -0.10881866  0.10477773  0.00000000       0.002
  -0.10156409  0.10058662  0.00000000       0.002
  -0.09430951  0.09639551  0.00000000       0.002
  -0.08705493  0.09220440  0.00000000       0.002
  -0.07980035  0.08801329  0.00000000       0.002
  -0.07254578  0.08382218  0.00000000       0.002
  -0.06529120  0.07963108  0.00000000       0.002
  -0.05803662  0.07543997  0.00000000       0.002
  -0.05078204  0.07124886  0.00000000       0.002
  -0.04352747  0.06705775  0.00000000       0.002
  -0.03627289  0.06286664  0.00000000       0.002
  -0.02901831  0.05867553  0.00000000       0.002
  -0.02176373  0.05448442  0.00000000       0.002
  -0.01450916  0.05029331  0.00000000       0.002
  -0.00725458  0.04610220  0.00000000       0.002
   0.00000000  0.05029331  0.00000000       0.001
   0.08705493  0.00000000  0.00000000       0.001
   0.09430951 -0.00419111  0.00000000       0.002
   0.10156409 -0.00838222  0.00000000       0.002
   0.10881866 -0.01257333  0.00000000       0.002
   0.11607324 -0.01676444  0.00000000       0.002
   0.12332782 -0.02095555  0.00000000       0.002
   0.13058240 -0.02514666  0.00000000       0.002
   0.13783698 -0.02933776  0.00000000       0.002
   0.14509155 -0.03352887  0.00000000       0.002
   0.15234613 -0.03771998  0.00000000       0.002
  -0.14509155  0.13411549  0.00000000       0.002
  -0.13783698  0.12992439  0.00000000       0.002
  -0.13058240  0.12573328  0.00000000       0.002
  -0.12332782  0.12154217  0.00000000       0.002
  -0.11607324  0.11735106  0.00000000       0.002
  -0.10881866  0.11315995  0.00000000       0.002
  -0.10156409  0.10896884  0.00000000       0.002
  -0.09430951  0.10477773  0.00000000       0.002
  -0.08705493  0.10058662  0.00000000       0.002
  -0.07980035  0.09639551  0.00000000       0.002
  -0.07254578  0.09220440  0.00000000       0.002
  -0.06529120  0.08801329  0.00000000       0.002
  -0.05803662  0.08382218  0.00000000       0.002
  -0.05078204  0.07963108  0.00000000       0.002
  -0.04352747  0.07543997  0.00000000       0.002
  -0.03627289  0.07124886  0.00000000       0.002
  -0.02901831  0.06705775  0.00000000       0.002
  -0.02176373  0.06286664  0.00000000       0.002
  -0.01450916  0.05867553  0.00000000       0.002
  -0.00725458  0.05448442  0.00000000       0.002
   0.00000000  0.05867553  0.00000000       0.001
   0.10156409  0.00000000  0.00000000       0.001
   0.10881866 -0.00419111  0.00000000       0.002
   0.11607324 -0.00838222  0.00000000       0.002
   0.12332782 -0.01257333  0.00000000       0.002
   0.13058240 -0.01676444  0.00000000       0.002
   0.13783698 -0.02095555  0.00000000       0.002
   0.14509155 -0.02514666  0.00000000       0.002
   0.15234613 -0.02933776  0.00000000       0.002
  -0.14509155  0.14249771  0.00000000       0.002
  -0.13783698  0.13830660  0.00000000       0.002
  -0.13058240  0.13411549  0.00000000       0.002
  -0.12332782  0.12992439  0.00000000       0.002
  -0.11607324  0.12573328  0.00000000       0.002
  -0.10881866  0.12154217  0.00000000       0.002
  -0.10156409  0.11735106  0.00000000       0.002
  -0.09430951  0.11315995  0.00000000       0.002
  -0.08705493  0.10896884  0.00000000       0.002
  -0.07980035  0.10477773  0.00000000       0.002
  -0.07254578  0.10058662  0.00000000       0.002
  -0.06529120  0.09639551  0.00000000       0.002
  -0.05803662  0.09220440  0.00000000       0.002
  -0.05078204  0.08801329  0.00000000       0.002
  -0.04352747  0.08382218  0.00000000       0.002
  -0.03627289  0.07963108  0.00000000       0.002
  -0.02901831  0.07543997  0.00000000       0.002
  -0.02176373  0.07124886  0.00000000       0.002
  -0.01450916  0.06705775  0.00000000       0.002
  -0.00725458  0.06286664  0.00000000       0.002
   0.00000000  0.06705775  0.00000000       0.001
   0.11607324  0.00000000  0.00000000       0.001
   0.12332782 -0.00419111  0.00000000       0.002
   0.13058240 -0.00838222  0.00000000       0.002
   0.13783698 -0.01257333  0.00000000       0.002
   0.14509155 -0.01676444  0.00000000       0.002
   0.15234613 -0.02095555  0.00000000       0.002
  -0.14509155  0.15087993  0.00000000       0.002
  -0.13783698  0.14668882  0.00000000       0.002
  -0.13058240  0.14249771  0.00000000       0.002
  -0.12332782  0.13830660  0.00000000       0.002
  -0.11607324  0.13411549  0.00000000       0.002
  -0.10881866  0.12992439  0.00000000       0.002
  -0.10156409  0.12573328  0.00000000       0.002
  -0.09430951  0.12154217  0.00000000       0.002
  -0.08705493  0.11735106  0.00000000       0.002
  -0.07980035  0.11315995  0.00000000       0.002
  -0.07254578  0.10896884  0.00000000       0.002
  -0.06529120  0.10477773  0.00000000       0.002
  -0.05803662  0.10058662  0.00000000       0.002
  -0.05078204  0.09639551  0.00000000       0.002
  -0.04352747  0.09220440  0.00000000       0.002
  -0.03627289  0.08801329  0.00000000       0.002
  -0.02901831  0.08382218  0.00000000       0.002
  -0.02176373  0.07963108  0.00000000       0.002
  -0.01450916  0.07543997  0.00000000       0.002
  -0.00725458  0.07124886  0.00000000       0.002
   0.00000000  0.07543997  0.00000000       0.001
   0.13058240  0.00000000  0.00000000       0.001
   0.13783698 -0.00419111  0.00000000       0.002
   0.14509155 -0.00838222  0.00000000       0.002
   0.15234613 -0.01257333  0.00000000       0.002
  -0.14509155  0.15926215  0.00000000       0.002
  -0.13783698  0.15507104  0.00000000       0.002
  -0.13058240  0.15087993  0.00000000       0.002
  -0.12332782  0.14668882  0.00000000       0.002
  -0.11607324  0.14249771  0.00000000       0.002
  -0.10881866  0.13830660  0.00000000       0.002
  -0.10156409  0.13411549  0.00000000       0.002
  -0.09430951  0.12992439  0.00000000       0.002
  -0.08705493  0.12573328  0.00000000       0.002
  -0.07980035  0.12154217  0.00000000       0.002
  -0.07254578  0.11735106  0.00000000       0.002
  -0.06529120  0.11315995  0.00000000       0.002
  -0.05803662  0.10896884  0.00000000       0.002
  -0.05078204  0.10477773  0.00000000       0.002
  -0.04352747  0.10058662  0.00000000       0.002
  -0.03627289  0.09639551  0.00000000       0.002
  -0.02901831  0.09220440  0.00000000       0.002
  -0.02176373  0.08801329  0.00000000       0.002
  -0.01450916  0.08382218  0.00000000       0.002
  -0.00725458  0.07963108  0.00000000       0.002
   0.00000000  0.08382218  0.00000000       0.001
   0.14509155  0.00000000  0.00000000       0.001
   0.15234613 -0.00419111  0.00000000       0.002
  -0.14509155  0.16764437  0.00000000       0.002
  -0.13783698  0.16345326  0.00000000       0.002
  -0.13058240  0.15926215  0.00000000       0.002
  -0.12332782  0.15507104  0.00000000       0.002
  -0.11607324  0.15087993  0.00000000       0.002
  -0.10881866  0.14668882  0.00000000       0.002
  -0.10156409  0.14249771  0.00000000       0.002
  -0.09430951  0.13830660  0.00000000       0.002
  -0.08705493  0.13411549  0.00000000       0.002
  -0.07980035  0.12992439  0.00000000       0.002
  -0.07254578  0.12573328  0.00000000       0.002
  -0.06529120  0.12154217  0.00000000       0.002
  -0.05803662  0.11735106  0.00000000       0.002
  -0.05078204  0.11315995  0.00000000       0.002
  -0.04352747  0.10896884  0.00000000       0.002
  -0.03627289  0.10477773  0.00000000       0.002
  -0.02901831  0.10058662  0.00000000       0.002
  -0.02176373  0.09639551  0.00000000       0.002
  -0.01450916  0.09220440  0.00000000       0.002
  -0.00725458  0.08801329  0.00000000       0.002
   0.00000000  0.09220440  0.00000000       0.001
  -0.14509155  0.17602659  0.00000000       0.001
  -0.13783698  0.17183548  0.00000000       0.002
  -0.13058240  0.16764437  0.00000000       0.002
  -0.12332782  0.16345326  0.00000000       0.002
  -0.11607324  0.15926215  0.00000000       0.002
  -0.10881866  0.15507104  0.00000000       0.002
  -0.10156409  0.15087993  0.00000000       0.002
  -0.09430951  0.14668882  0.00000000       0.002
  -0.08705493  0.14249771  0.00000000       0.002
  -0.07980035  0.13830660  0.00000000       0.002
  -0.07254578  0.13411549  0.00000000       0.002
  -0.06529120  0.12992439  0.00000000       0.002
  -0.05803662  0.12573328  0.00000000       0.002
  -0.05078204  0.12154217  0.00000000       0.002
  -0.04352747  0.11735106  0.00000000       0.002
  -0.03627289  0.11315995  0.00000000       0.002
  -0.02901831  0.10896884  0.00000000       0.002
  -0.02176373  0.10477773  0.00000000       0.002
  -0.01450916  0.10058662  0.00000000       0.002
  -0.00725458  0.09639551  0.00000000       0.002
   0.00000000  0.10058662  0.00000000       0.001
  -0.13058240  0.17602659  0.00000000       0.001
  -0.12332782  0.17183548  0.00000000       0.002
  -0.11607324  0.16764437  0.00000000       0.002
  -0.10881866  0.16345326  0.00000000       0.002
  -0.10156409  0.15926215  0.00000000       0.002
  -0.09430951  0.15507104  0.00000000       0.002
  -0.08705493  0.15087993  0.00000000       0.002
  -0.07980035  0.14668882  0.00000000       0.002
  -0.07254578  0.14249771  0.00000000       0.002
  -0.06529120  0.13830660  0.00000000       0.002
  -0.05803662  0.13411549  0.00000000       0.002
  -0.05078204  0.12992439  0.00000000       0.002
  -0.04352747  0.12573328  0.00000000       0.002
  -0.03627289  0.12154217  0.00000000       0.002
  -0.02901831  0.11735106  0.00000000       0.002
  -0.02176373  0.11315995  0.00000000       0.002
  -0.01450916  0.10896884  0.00000000       0.002
  -0.00725458  0.10477773  0.00000000       0.002
   0.00000000  0.10896884  0.00000000       0.001
  -0.11607324  0.17602659  0.00000000       0.001
  -0.10881866  0.17183548  0.00000000       0.002
  -0.10156409  0.16764437  0.00000000       0.002
[...]
  band No.  band energies     occupation 
      1     -14.4363      2.00000
      2     -14.2410      2.00000
      3      -7.8542      2.00000
      4      -6.9857      2.00000
      5      -5.8681      2.00000
      6      -4.9936      2.00000
      7      -4.1756      2.00000
      8      -3.9740      2.00000
      9      -2.1915      2.00000
     10       0.5308      0.00000
     11       1.2175      0.00000
     12       1.6786      0.00000
     13       2.4461      0.00000
     14       3.0953      0.00000
     15       6.0646      0.00000
     16       6.3684      0.00000
     17       6.9406      0.00000
     18       7.1280      0.00000

 k-point   450 :      -0.1190    0.4286    0.0000
  band No.  band energies     occupation 
      1     -14.4684      2.00000
      2     -14.2611      2.00000
      3      -7.9350      2.00000
      4      -6.9665      2.00000
      5      -5.8934      2.00000
      6      -4.9341      2.00000
      7      -3.9634      2.00000
      8      -3.8828      2.00000
      9      -2.2448      2.00000
     10       0.5859      0.00000
     11       1.1495      0.00000
     12       1.8614      0.00000
     13       2.3172      0.00000
     14       2.9960      0.00000
     15       5.8706      0.00000
     16       6.2163      0.00000
     17       6.8218      0.00000
     18       7.1328      0.00000

 k-point   451 :      -0.0952    0.4286    0.0000
  band No.  band energies     occupation 
      1     -14.5047      2.00000
      2     -14.2826      2.00000
      3      -7.9903      2.00000
      4      -6.9426      2.00000
      5      -5.9185      2.00000
      6      -4.8703      2.00000
      7      -3.9561      2.00000
      8      -3.6042      2.00000
      9      -2.3074      2.00000
     10       0.6181      0.00000
     11       1.0788      0.00000
     12       2.0043      0.00000
     13       2.2448      0.00000
     14       2.9390      0.00000
     15       5.6511      0.00000
     16       5.9719      0.00000
     17       6.6255      0.00000
     18       7.1137      0.00000

 k-point   452 :      -0.0714    0.4286    0.0000
  band No.  band energies     occupation 
      1     -14.5445      2.00000
      2     -14.3051      2.00000
      3      -8.0186      2.00000
      4      -6.9133      2.00000
      5      -5.9420      2.00000
      6      -4.8046      2.00000
      7      -3.9539      2.00000
      8      -3.3515      2.00000
      9      -2.3835      2.00000
     10       0.6302      0.00000
     11       1.0073      0.00000
     12       2.0002      0.00000
     13       2.3275      0.00000
     14       2.9255      0.00000
     15       5.4488      0.00000
     16       5.6967      0.00000
     17       6.4921      0.00000
     18       7.0045      0.00000

 k-point   453 :      -0.0476    0.4286    0.0000
  band No.  band energies     occupation 
      1     -14.5869      2.00000
      2     -14.3280      2.00000
      3      -8.0193      2.00000
      4      -6.8780      2.00000
      5      -5.9627      2.00000
      6      -4.7407      2.00000
      7      -3.9567      2.00000
      8      -3.1359      2.00000
      9      -2.4773      2.00000
     10       0.6319      0.00000
     11       0.9334      0.00000
     12       1.9382      0.00000
     13       2.4599      0.00000
     14       2.9553      0.00000
     15       5.2837      0.00000
     16       5.4582      0.00000
     17       6.3794      0.00000
     18       6.8766      0.00000

 k-point   454 :      -0.0238    0.4286    0.0000
  band No.  band energies     occupation 
      1     -14.6310      2.00000
      2     -14.3507      2.00000
      3      -7.9929      2.00000
      4      -6.8362      2.00000
      5      -5.9801      2.00000
      6      -4.6856      2.00000
      7      -3.9608      2.00000
      8      -2.9722      2.00000
      9      -2.5856      2.00000
     10       0.6334      0.00000
     11       0.8557      0.00000
     12       1.8869      0.00000
     13       2.5503      0.00000
     14       3.0284      0.00000
     15       5.1637      0.00000
     16       5.2971      0.00000
     17       6.2787      0.00000
     18       6.7455      0.00000

 k-point   455 :       0.0000    0.4524    0.0000
  band No.  band energies     occupation 
      1     -14.5996      2.00000
      2     -14.3361      2.00000
      3      -8.0507      2.00000
      4      -6.8759      2.00000
      5      -5.9760      2.00000
      6      -4.6858      2.00000
      7      -3.9757      2.00000
      8      -2.8517      2.00000
      9      -2.6322      2.00000
     10       0.6589      0.00000
     11       0.8925      0.00000
     12       1.9027      0.00000
     13       2.5894      0.00000
     14       2.8945      0.00000
     15       5.1896      0.00000
     16       5.2627      0.00000
     17       6.3160      0.00000
     18       6.8206      0.00000

 k-point   456 :      -0.0952    0.4524    0.0000
  band No.  band energies     occupation 
      1     -14.4892      2.00000
      2     -14.2751      2.00000
      3      -8.0118      2.00000
      4      -6.9611      2.00000
      5      -5.9165      2.00000
      6      -4.8705      2.00000
      7      -3.9665      2.00000
      8      -3.5985      2.00000
      9      -2.2961      2.00000
     10       0.6299      0.00000
     11       1.1044      0.00000
     12       2.0587      0.00000
     13       2.1994      0.00000
     14       2.8763      0.00000
     15       5.6926      0.00000
     16       6.0202      0.00000
     17       6.6085      0.00000
     18       7.1118      0.00000

 k-point   457 :      -0.0714    0.4524    0.0000
  band No.  band energies     occupation 
      1     -14.5132      2.00000
      2     -14.2900      2.00000
      3      -8.0628      2.00000
      4      -6.9500      2.00000
      5      -5.9371      2.00000
      6      -4.8098      2.00000
      7      -3.9699      2.00000
      8      -3.3362      2.00000
      9      -2.3629      2.00000
     10       0.6548      0.00000
     11       1.0555      0.00000
     12       2.0676      0.00000
     13       2.2804      0.00000
     14       2.8032      0.00000
     15       5.5157      0.00000
     16       5.7515      0.00000
     17       6.5042      0.00000
     18       7.0368      0.00000

 k-point   458 :      -0.0476    0.4524    0.0000
  band No.  band energies     occupation 
      1     -14.5400      2.00000
      2     -14.3054      2.00000
      3      -8.0865      2.00000
      4      -6.9325      2.00000
      5      -5.9543      2.00000
      6      -4.7553      2.00000
      7      -3.9742      2.00000
      8      -3.1077      2.00000
      9      -2.4498      2.00000
     10       0.6641      0.00000
     11       1.0029      0.00000
     12       1.9883      0.00000
     13       2.4442      0.00000
     14       2.7811      0.00000
     15       5.3654      0.00000
     16       5.5028      0.00000
     17       6.4349      0.00000
     18       6.9639      0.00000

 k-point   459 :      -0.0238    0.4524    0.0000
  band No.  band energies     occupation 
      1     -14.5690      2.00000
      2     -14.3209      2.00000
      3      -8.0824      2.00000
      4      -6.9079      2.00000
      5      -5.9674      2.00000
      6      -4.7117      2.00000
      7      -3.9778      2.00000
      8      -2.9278      2.00000
      9      -2.5555      2.00000
     10       0.6649      0.00000
     11       0.9469      0.00000
     12       1.9332      0.00000
     13       2.5552      0.00000
     14       2.8115      0.00000
     15       5.2555      0.00000
     16       5.3304      0.00000
     17       6.3724      0.00000
     18       6.8931      0.00000

 k-point   460 :       0.0000    0.4762    0.0000
  band No.  band energies     occupation 
      1     -14.5522      2.00000
      2     -14.3134      2.00000
      3      -8.1191      2.00000
      4      -6.9301      2.00000
      5      -5.9672      2.00000
      6      -4.7073      2.00000
      7      -3.9864      2.00000
      8      -2.8083      2.00000
      9      -2.6157      2.00000
     10       0.6785      0.00000
     11       0.9734      0.00000
     12       1.9333      0.00000
     13       2.5983      0.00000
     14       2.7215      0.00000
     15       5.2611      0.00000
     16       5.2835      0.00000
     17       6.3914      0.00000
     18       6.9095      0.00000

 k-point   461 :      -0.0476    0.4762    0.0000
  band No.  band energies     occupation 
      1     -14.5240      2.00000
      2     -14.2978      2.00000
      3      -8.1093      2.00000
      4      -6.9508      2.00000
      5      -5.9518      2.00000
      6      -4.7602      2.00000
      7      -3.9800      2.00000
      8      -3.0977      2.00000
      9      -2.4400      2.00000
     10       0.6744      0.00000
     11       1.0308      0.00000
     12       2.0062      0.00000
     13       2.4377      0.00000
     14       2.7180      0.00000
     15       5.3954      0.00000
     16       5.5193      0.00000
     17       6.4514      0.00000
     18       6.9758      0.00000

 k-point   462 :      -0.0238    0.4762    0.0000
  band No.  band energies     occupation 
      1     -14.5371      2.00000
      2     -14.3056      2.00000
      3      -8.1283      2.00000
      4      -6.9443      2.00000
      5      -5.9620      2.00000
      6      -4.7248      2.00000
      7      -3.9861      2.00000
      8      -2.9034      2.00000
      9      -2.5393      2.00000
     10       0.6809      0.00000
     11       1.0034      0.00000
     12       1.9565      0.00000
     13       2.5570      0.00000
     14       2.6899      0.00000
     15       5.3078      0.00000
     16       5.3492      0.00000
     17       6.4188      0.00000
     18       6.9347      0.00000

 k-point   463 :       0.0000    0.5000    0.0000
  band No.  band energies     occupation 
      1     -14.5361      2.00000
      2     -14.3057      2.00000
      3      -8.1423      2.00000
      4      -6.9483      2.00000
      5      -5.9646      2.00000
      6      -4.7144      2.00000
      7      -3.9900      2.00000
      8      -2.7926      2.00000
      9      -2.6102      2.00000
     10       0.6855      0.00000
     11       1.0043      0.00000
     12       1.9435      0.00000
     13       2.6012      0.00000
     14       2.6587      0.00000
     15       5.2873      0.00000
     16       5.2912      0.00000
     17       6.4161      0.00000
     18       6.9246      0.00000


--------------------------------------------------------------------------------------------------------


 soft charge-density along one line, spin component           1
         0         1         2         3         4         5         6         7         8         9
 total charge-density along one line
 
 pseudopotential strength for first ion, spin component:           1
 -8.650   0.000  -0.000   0.000  -0.000  -0.032   0.000  -0.000
  0.000  -8.648   0.000  -0.000   0.000   0.000  -0.032   0.000
 -0.000   0.000  -8.633   0.000   0.000  -0.000   0.000  -0.031
  0.000  -0.000   0.000  -8.648   0.000   0.000  -0.000   0.000
 -0.000   0.000   0.000   0.000  -8.649  -0.000   0.000   0.000
 -0.032   0.000  -0.000   0.000  -0.000   0.071   0.000  -0.000
  0.000  -0.032   0.000  -0.000   0.000   0.000   0.071   0.000
 -0.000   0.000  -0.031   0.000   0.000  -0.000   0.000   0.071
  0.000  -0.000   0.000  -0.032   0.000   0.000   0.000   0.000
 -0.000   0.000   0.000   0.000  -0.032   0.000  -0.000   0.000
 -0.000  -0.000  -0.002  -0.000   0.000  -0.000  -0.000  -0.000
  0.000   0.000   0.000   0.000  -0.000   0.000   0.000   0.000
  0.000  -0.000   0.000   0.000   0.007   0.000   0.000  -0.000
  0.000  -0.000   0.000   0.000   0.000  -0.000   0.000  -0.000
  0.007   0.000  -0.000  -0.000   0.000  -0.000  -0.000  -0.000
 -0.000   0.000   0.000  -0.000  -0.003  -0.000  -0.000   0.000
 -0.000  -0.000  -0.000  -0.000  -0.000   0.000  -0.000   0.000
 -0.003  -0.000   0.000   0.000  -0.000   0.000   0.000   0.000
 total augmentation occupancy for first ion, spin component:           1
  0.919   0.000  -0.000   0.000   0.000  -0.527   0.000   0.000   0.000   0.000   0.000   0.000  -0.000   0.000   0.050   0.000
  0.000   0.881   0.000   0.000   0.000   0.000  -0.727   0.000  -0.000   0.000   0.000   0.000   0.000  -0.000   0.000   0.000
 -0.000   0.000   0.963   0.000   0.000   0.000   0.000  -0.483   0.000  -0.000   0.088  -0.021  -0.000   0.000   0.000   0.000
  0.000   0.000   0.000   0.881   0.000   0.000  -0.000   0.000  -0.727   0.000   0.000   0.000   0.000   0.000   0.000   0.000
  0.000   0.000   0.000   0.000   0.919   0.000   0.000  -0.000   0.000  -0.526  -0.000   0.000   0.050   0.000   0.000   0.000
 -0.527   0.000   0.000   0.000   0.000   0.529   0.000  -0.000   0.000   0.000   0.000   0.000   0.000   0.000  -0.108  -0.000
  0.000  -0.727   0.000  -0.000   0.000   0.000   0.850   0.000   0.000   0.000   0.000   0.000   0.000   0.000   0.000   0.000
  0.000   0.000  -0.483   0.000  -0.000  -0.000   0.000   0.424   0.000   0.000  -0.079   0.037   0.000   0.000   0.000  -0.000
  0.000  -0.000   0.000  -0.727   0.000   0.000   0.000   0.000   0.850   0.000   0.000   0.000   0.000   0.000   0.000   0.000
  0.000   0.000  -0.000   0.000  -0.526   0.000   0.000   0.000   0.000   0.529   0.000  -0.000  -0.108   0.000  -0.000   0.009
  0.000   0.000   0.088   0.000  -0.000   0.000   0.000  -0.079   0.000   0.000   1.102  -0.280  -0.000   0.000   0.000   0.000
  0.000   0.000  -0.021   0.000   0.000   0.000   0.000   0.037   0.000  -0.000  -0.280   0.117   0.000   0.000   0.000  -0.000
 -0.000   0.000  -0.000   0.000   0.050   0.000   0.000   0.000   0.000  -0.108  -0.000   0.000   0.227   0.000   0.000  -0.018
  0.000  -0.000   0.000   0.000   0.000   0.000   0.000   0.000   0.000   0.000   0.000   0.000   0.000   0.276   0.000   0.000
  0.050   0.000   0.000   0.000   0.000  -0.108   0.000   0.000   0.000  -0.000   0.000   0.000   0.000   0.000   0.227  -0.000
  0.000   0.000   0.000   0.000   0.000  -0.000   0.000  -0.000   0.000   0.009   0.000  -0.000  -0.018   0.000  -0.000   0.002
  0.000   0.000   0.000   0.000   0.000   0.000  -0.000   0.000  -0.000   0.000   0.000   0.000   0.000  -0.021   0.000   0.000
  0.000   0.000   0.000   0.000   0.000   0.009   0.000  -0.000   0.000   0.000   0.000   0.000  -0.000   0.000  -0.018   0.000


------------------------ aborting loop because EDIFF is reached ----------------------------------------


    CHARGE:  cpu time    0.3364: real time    0.3372
    FORLOC:  cpu time    0.0030: real time    0.0030
    FORNL :  cpu time    0.8021: real time    0.8041
    STRESS:  cpu time    3.9324: real time    3.9418
    FORCOR:  cpu time    0.0173: real time    0.0173
    FORHAR:  cpu time    0.0046: real time    0.0046
    MIXING:  cpu time    0.0009: real time    0.0009
    OFIELD:  cpu time    0.0000: real time    0.0000

  FORCE on cell =-STRESS in cart. coord.  units (eV):
  Direction    XX          YY          ZZ          XY          YZ          ZX
  --------------------------------------------------------------------------------------
  Alpha Z    22.94335    22.94335    22.94335
  Ewald    2703.62692  2703.71518 -3249.07350    -0.00000     0.00000     0.00000
  Hartree  2805.80812  2805.84018 -2779.91783     0.00000    -0.00000    -0.00000
  E(xc)     -71.38523   -71.38750   -72.23274     0.00000    -0.00000    -0.00000
  Local   -5748.04041 -5748.16668  5788.32692     0.00000    -0.00000     0.00000
  n-local    69.48074    69.47947    74.89795    -0.00898    -0.00000     0.00000
  augment    -2.78694    -2.78608    -3.50629    -0.00000     0.00000    -0.00000
  Kinetic   221.27519   221.32338   218.56307     5.32766     0.00000     0.00000
  Fock        0.00000     0.00000     0.00000     0.00000     0.00000     0.00000
  -------------------------------------------------------------------------------------
  Total       0.92174     0.96130     0.00093     0.00000     0.00000     0.00000
  in kB       7.92062     8.26054     0.00801     0.00000     0.00000     0.00000
  external pressure =        5.40 kB  Pullay stress =        0.00 kB


 VOLUME and BASIS-vectors are now :
 -----------------------------------------------------------------------------
  energy-cutoff  :      800.00
  volume of cell :      186.45
      direct lattice vectors                 reciprocal lattice vectors
     3.282000000  0.000000000  0.000000000     0.304692261 -0.176026587  0.000000000
     1.641000000  2.840480000  0.000000000     0.000000000  0.352053174  0.000000000
     0.000000000  0.000000000 20.000000000     0.000000000  0.000000000  0.050000000

  length of vectors
     3.282000000  3.280427965 20.000000000     0.351884545  0.352053174  0.050000000


 FORCES acting on ions
    electron-ion (+dipol)            ewald-force                    non-local-force                 convergence-correction
 -----------------------------------------------------------------------------------------------
   0.990E-08 -.511E-01 -.121E-08   0.214E-11 0.515E-01 0.000E+00   0.517E-17 -.423E-03 0.331E-23   0.630E-10 -.146E-04 -.181E-10
   0.227E-07 0.267E-01 0.498E+03   -.107E-11 -.258E-01 -.500E+03   0.173E-17 -.964E-03 0.260E+01   -.224E-10 0.132E-04 -.879E-03
   0.219E-07 0.267E-01 -.498E+03   -.107E-11 -.258E-01 0.500E+03   0.179E-17 -.964E-03 -.260E+01   -.216E-10 0.132E-04 0.879E-03
 -----------------------------------------------------------------------------------------------
   0.545E-07 0.234E-02 -.118E-08   -.199E-15 0.408E-14 0.000E+00   0.869E-17 -.235E-02 0.000E+00   0.190E-10 0.119E-04 -.415E-10
 
 
 POSITION                                       TOTAL-FORCE (eV/Angst)
 -----------------------------------------------------------------------------------
      3.28200      0.00057      0.00000        -0.000000     -0.000024      0.000000
      1.64100      0.94715     18.30918        -0.000000      0.000012      0.000064
      1.64100      0.94715      1.69082         0.000000      0.000012     -0.000064
 -----------------------------------------------------------------------------------
    total drift:                                0.000000      0.000004     -0.000000


--------------------------------------------------------------------------------------------------------



  FREE ENERGIE OF THE ION-ELECTRON SYSTEM (eV)
  ---------------------------------------------------
  free  energy   TOTEN  =       -21.63238292 eV

  energy  without entropy=      -21.63238292  energy(sigma->0) =      -21.63238292
 


--------------------------------------------------------------------------------------------------------


    POTLOK:  cpu time    0.0451: real time    0.0452


--------------------------------------------------------------------------------------------------------


     LOOP+:  cpu time   62.4600: real time   62.8762
    4ORBIT:  cpu time    0.0000: real time    0.0000

 total amount of memory used by VASP MPI-rank0   293564. kBytes
=======================================================================

   base      :      30000. kBytes
   nonl-proj :     216095. kBytes
   fftplans  :       7308. kBytes
   grid      :       3744. kBytes
   one-center:         15. kBytes
   wavefun   :      36402. kBytes
 
  
  
 General timing and accounting informations for this job:
 ========================================================
  
                  Total CPU time used (sec):       70.521
                            User time (sec):       69.323
                          System time (sec):        1.198
                         Elapsed time (sec):       71.760
  
                   Maximum memory used (kb):      416272.
                   Average memory used (kb):           0.
  
                          Minor page faults:       129218
                          Major page faults:            0
                 Voluntary context switches:         1431
