<?xml version="1.0" encoding="ISO-8859-1"?>
<modeling>
 <generator>
  <i name="program" type="string">vasp </i>
  <i name="version" type="string">5.4.4.18Apr17-6-g9f103f2a35  </i>
  <i name="subversion" type="string">(build May 31 2018 21:15:54) complex            parallel </i>
  <i name="platform" type="string">c7_intel_O1 </i>
  <i name="date" type="string">2020 08 12 </i>
  <i name="time" type="string">12:19:42 </i>
 </generator>
 <incar>
  <i type="string" name="SYSTEM"> W-1, se-2</i>
  <i type="int" name="ISTART">     0</i>
  <i type="string" name="PREC">accurate</i>
  <i type="string" name="ALGO"> N</i>
  <i type="logical" name="ADDGRID"> T  </i>
  <i name="AMIN">      0.01000000</i>
  <i type="int" name="ICHARG">     1</i>
  <i type="int" name="NELMIN">     5</i>
  <i type="int" name="IBRION">    -1</i>
  <i name="EDIFF">      0.00000001</i>
  <i name="EDIFFG">     -0.00000001</i>
  <i type="int" name="NSW">     0</i>
  <i name="SYMPREC">      0.00010000</i>
  <i name="ENCUT">    800.00000000</i>
  <i type="int" name="NEDOS">  6001</i>
  <i type="logical" name="LREAL"> F  </i>
  <i type="int" name="ISMEAR">     0</i>
  <i name="SIGMA">      0.10000000</i>
  <i type="logical" name="LWAVE"> F  </i>
  <i type="logical" name="LCHARG"> T  </i>
  <v type="int" name="KPOINT_BSE">    -1     0     0     0</v>
 </incar>
 <structure name="primitive_cell" >
  <crystal>
   <varray name="basis" >
    <v>       3.28200000       0.00000000       0.00000000 </v>
    <v>       1.64100000       2.84048000       0.00000000 </v>
    <v>       0.00000000       0.00000000      20.00000000 </v>
   </varray>
   <i name="volume">    186.44910720 </i>
   <varray name="rec_basis" >
    <v>       0.30469226      -0.17602659       0.00000000 </v>
    <v>       0.00000000       0.35205317       0.00000000 </v>
    <v>       0.00000000       0.00000000       0.05000000 </v>
   </varray>
  </crystal>
  <varray name="positions" >
   <v>      -0.00010000       0.00020000       0.00000000 </v>
   <v>       0.33327700       0.33344600      -0.08454100 </v>
   <v>       0.33327700       0.33344600       0.08454100 </v>
  </varray>
 </structure>
 <varray name="primitive_index" >
  <v type="int" >        1 </v>
  <v type="int" >        2 </v>
  <v type="int" >        3 </v>
 </varray>
 <kpoints>
  <generation param="Gamma">
   <v type="int" name="divisions">      42       42        1 </v>
   <v name="usershift">      0.00000000       0.00000000       0.00000000 </v>
   <v name="genvec1">      0.02380952      -0.00000000       0.00000000 </v>
   <v name="genvec2">      0.00000000       0.02380952       0.00000000 </v>
   <v name="genvec3">      0.00000000       0.00000000       1.00000000 </v>
   <v name="shift">      0.00000000       0.00000000       0.00000000 </v>
  </generation>
  <varray name="kpointlist" >
   <v>       0.00000000       0.00000000       0.00000000 </v>
   <v>       0.02380952       0.00000000       0.00000000 </v>
   <v>       0.04761905       0.00000000       0.00000000 </v>
   <v>       0.07142857       0.00000000       0.00000000 </v>
   <v>       0.09523810       0.00000000       0.00000000 </v>
   <v>       0.11904762       0.00000000       0.00000000 </v>
   <v>       0.14285714       0.00000000       0.00000000 </v>
   <v>       0.16666667       0.00000000       0.00000000 </v>
   <v>       0.19047619       0.00000000       0.00000000 </v>
   <v>       0.21428571       0.00000000       0.00000000 </v>
   <v>       0.23809524       0.00000000       0.00000000 </v>
   <v>       0.26190476       0.00000000       0.00000000 </v>
   <v>       0.28571429       0.00000000       0.00000000 </v>
   <v>       0.30952381       0.00000000       0.00000000 </v>
   <v>       0.33333333       0.00000000       0.00000000 </v>
   <v>       0.35714286       0.00000000       0.00000000 </v>
   <v>       0.38095238       0.00000000       0.00000000 </v>
   <v>       0.40476190       0.00000000       0.00000000 </v>
   <v>       0.42857143       0.00000000       0.00000000 </v>
   <v>       0.45238095       0.00000000       0.00000000 </v>
   <v>       0.47619048       0.00000000       0.00000000 </v>
   <v>       0.50000000       0.00000000       0.00000000 </v>
   <v>       0.00000000       0.02380952       0.00000000 </v>
   <v>       0.04761905       0.02380952       0.00000000 </v>
   <v>       0.07142857       0.02380952       0.00000000 </v>
   <v>       0.09523810       0.02380952       0.00000000 </v>
   <v>       0.11904762       0.02380952       0.00000000 </v>
   <v>       0.14285714       0.02380952       0.00000000 </v>
   <v>       0.16666667       0.02380952       0.00000000 </v>
   <v>       0.19047619       0.02380952       0.00000000 </v>
   <v>       0.21428571       0.02380952       0.00000000 </v>
   <v>       0.23809524       0.02380952       0.00000000 </v>
   <v>       0.26190476       0.02380952       0.00000000 </v>
   <v>       0.28571429       0.02380952       0.00000000 </v>
   <v>       0.30952381       0.02380952       0.00000000 </v>
   <v>       0.33333333       0.02380952       0.00000000 </v>
   <v>       0.35714286       0.02380952       0.00000000 </v>
   <v>       0.38095238       0.02380952       0.00000000 </v>
   <v>       0.40476190       0.02380952       0.00000000 </v>
   <v>       0.42857143       0.02380952       0.00000000 </v>
   <v>       0.45238095       0.02380952       0.00000000 </v>
   <v>       0.47619048       0.02380952       0.00000000 </v>
   <v>       0.50000000       0.02380952       0.00000000 </v>
   <v>      -0.47619048       0.02380952       0.00000000 </v>
   <v>      -0.45238095       0.02380952       0.00000000 </v>
   <v>      -0.42857143       0.02380952       0.00000000 </v>
   <v>      -0.40476190       0.02380952       0.00000000 </v>
   <v>      -0.38095238       0.02380952       0.00000000 </v>
   <v>      -0.35714286       0.02380952       0.00000000 </v>
   <v>      -0.33333333       0.02380952       0.00000000 </v>
   <v>      -0.30952381       0.02380952       0.00000000 </v>
   <v>      -0.28571429       0.02380952       0.00000000 </v>
   <v>      -0.26190476       0.02380952       0.00000000 </v>
   <v>      -0.23809524       0.02380952       0.00000000 </v>
   <v>      -0.21428571       0.02380952       0.00000000 </v>
   <v>      -0.19047619       0.02380952       0.00000000 </v>
   <v>      -0.16666667       0.02380952       0.00000000 </v>
   <v>      -0.14285714       0.02380952       0.00000000 </v>
   <v>      -0.11904762       0.02380952       0.00000000 </v>
   <v>      -0.09523810       0.02380952       0.00000000 </v>
   <v>      -0.07142857       0.02380952       0.00000000 </v>
   <v>      -0.04761905       0.02380952       0.00000000 </v>
   <v>      -0.02380952       0.02380952       0.00000000 </v>
   <v>       0.00000000       0.04761905       0.00000000 </v>
   <v>       0.09523810       0.04761905       0.00000000 </v>
   <v>       0.11904762       0.04761905       0.00000000 </v>
   <v>       0.14285714       0.04761905       0.00000000 </v>
   <v>       0.16666667       0.04761905       0.00000000 </v>
   <v>       0.19047619       0.04761905       0.00000000 </v>
   <v>       0.21428571       0.04761905       0.00000000 </v>
   <v>       0.23809524       0.04761905       0.00000000 </v>
   <v>       0.26190476       0.04761905       0.00000000 </v>
   <v>       0.28571429       0.04761905       0.00000000 </v>
   <v>       0.30952381       0.04761905       0.00000000 </v>
   <v>       0.33333333       0.04761905       0.00000000 </v>
   <v>       0.35714286       0.04761905       0.00000000 </v>
   <v>       0.38095238       0.04761905       0.00000000 </v>
   <v>       0.40476190       0.04761905       0.00000000 </v>
   <v>       0.42857143       0.04761905       0.00000000 </v>
   <v>       0.45238095       0.04761905       0.00000000 </v>
   <v>       0.47619048       0.04761905       0.00000000 </v>
   <v>       0.50000000       0.04761905       0.00000000 </v>
   <v>      -0.47619048       0.04761905       0.00000000 </v>
   <v>      -0.45238095       0.04761905       0.00000000 </v>
   <v>      -0.42857143       0.04761905       0.00000000 </v>
   <v>      -0.40476190       0.04761905       0.00000000 </v>
   <v>      -0.38095238       0.04761905       0.00000000 </v>
   <v>      -0.35714286       0.04761905       0.00000000 </v>
   <v>      -0.33333333       0.04761905       0.00000000 </v>
   <v>      -0.30952381       0.04761905       0.00000000 </v>
   <v>      -0.28571429       0.04761905       0.00000000 </v>
   <v>      -0.26190476       0.04761905       0.00000000 </v>
   <v>      -0.23809524       0.04761905       0.00000000 </v>
   <v>      -0.21428571       0.04761905       0.00000000 </v>
   <v>      -0.19047619       0.04761905       0.00000000 </v>
   <v>      -0.16666667       0.04761905       0.00000000 </v>
   <v>      -0.14285714       0.04761905       0.00000000 </v>
   <v>      -0.11904762       0.04761905       0.00000000 </v>
   <v>      -0.09523810       0.04761905       0.00000000 </v>
   <v>      -0.07142857       0.04761905       0.00000000 </v>
   <v>      -0.04761905       0.04761905       0.00000000 </v>
   <v>      -0.02380952       0.04761905       0.00000000 </v>
   <v>       0.00000000       0.07142857       0.00000000 </v>
   <v>       0.14285714       0.07142857       0.00000000 </v>
   <v>       0.16666667       0.07142857       0.00000000 </v>
   <v>       0.19047619       0.07142857       0.00000000 </v>
   <v>       0.21428571       0.07142857       0.00000000 </v>
   <v>       0.23809524       0.07142857       0.00000000 </v>
   <v>       0.26190476       0.07142857       0.00000000 </v>
   <v>       0.28571429       0.07142857       0.00000000 </v>
   <v>       0.30952381       0.07142857       0.00000000 </v>
   <v>       0.33333333       0.07142857       0.00000000 </v>
   <v>       0.35714286       0.07142857       0.00000000 </v>
   <v>       0.38095238       0.07142857       0.00000000 </v>
   <v>       0.40476190       0.07142857       0.00000000 </v>
   <v>       0.42857143       0.07142857       0.00000000 </v>
   <v>       0.45238095       0.07142857       0.00000000 </v>
   <v>       0.47619048       0.07142857       0.00000000 </v>
   <v>       0.50000000       0.07142857       0.00000000 </v>
   <v>      -0.47619048       0.07142857       0.00000000 </v>
   <v>      -0.45238095       0.07142857       0.00000000 </v>
   <v>      -0.42857143       0.07142857       0.00000000 </v>
   <v>      -0.40476190       0.07142857       0.00000000 </v>
   <v>      -0.38095238       0.07142857       0.00000000 </v>
   <v>      -0.35714286       0.07142857       0.00000000 </v>
   <v>      -0.33333333       0.07142857       0.00000000 </v>
   <v>      -0.30952381       0.07142857       0.00000000 </v>
   <v>      -0.28571429       0.07142857       0.00000000 </v>
   <v>      -0.26190476       0.07142857       0.00000000 </v>
   <v>      -0.23809524       0.07142857       0.00000000 </v>
   <v>      -0.21428571       0.07142857       0.00000000 </v>
   <v>      -0.19047619       0.07142857       0.00000000 </v>
   <v>      -0.16666667       0.07142857       0.00000000 </v>
   <v>      -0.14285714       0.07142857       0.00000000 </v>
   <v>      -0.11904762       0.07142857       0.00000000 </v>
   <v>      -0.09523810       0.07142857       0.00000000 </v>
   <v>      -0.07142857       0.07142857       0.00000000 </v>
   <v>      -0.04761905       0.07142857       0.00000000 </v>
   <v>      -0.02380952       0.07142857       0.00000000 </v>
   <v>       0.00000000       0.09523810       0.00000000 </v>
   <v>       0.19047619       0.09523810       0.00000000 </v>
   <v>       0.21428571       0.09523810       0.00000000 </v>
   <v>       0.23809524       0.09523810       0.00000000 </v>
   <v>       0.26190476       0.09523810       0.00000000 </v>
   <v>       0.28571429       0.09523810       0.00000000 </v>
   <v>       0.30952381       0.09523810       0.00000000 </v>
   <v>       0.33333333       0.09523810       0.00000000 </v>
   <v>       0.35714286       0.09523810       0.00000000 </v>
   <v>       0.38095238       0.09523810       0.00000000 </v>
   <v>       0.40476190       0.09523810       0.00000000 </v>
   <v>       0.42857143       0.09523810       0.00000000 </v>
   <v>       0.45238095       0.09523810       0.00000000 </v>
   <v>       0.47619048       0.09523810       0.00000000 </v>
   <v>       0.50000000       0.09523810       0.00000000 </v>
   <v>      -0.47619048       0.09523810       0.00000000 </v>
   <v>      -0.45238095       0.09523810       0.00000000 </v>
   <v>      -0.42857143       0.09523810       0.00000000 </v>
   <v>      -0.40476190       0.09523810       0.00000000 </v>
   <v>      -0.38095238       0.09523810       0.00000000 </v>
   <v>      -0.35714286       0.09523810       0.00000000 </v>
   <v>      -0.33333333       0.09523810       0.00000000 </v>
   <v>      -0.30952381       0.09523810       0.00000000 </v>
   <v>      -0.28571429       0.09523810       0.00000000 </v>
   <v>      -0.26190476       0.09523810       0.00000000 </v>
   <v>      -0.23809524       0.09523810       0.00000000 </v>
   <v>      -0.21428571       0.09523810       0.00000000 </v>
   <v>      -0.19047619       0.09523810       0.00000000 </v>
   <v>      -0.16666667       0.09523810       0.00000000 </v>
   <v>      -0.14285714       0.09523810       0.00000000 </v>
   <v>      -0.11904762       0.09523810       0.00000000 </v>
   <v>      -0.09523810       0.09523810       0.00000000 </v>
   <v>      -0.07142857       0.09523810       0.00000000 </v>
   <v>      -0.04761905       0.09523810       0.00000000 </v>
   <v>      -0.02380952       0.09523810       0.00000000 </v>
   <v>       0.00000000       0.11904762       0.00000000 </v>
   <v>       0.23809524       0.11904762       0.00000000 </v>
   <v>       0.26190476       0.11904762       0.00000000 </v>
   <v>       0.28571429       0.11904762       0.00000000 </v>
   <v>       0.30952381       0.11904762       0.00000000 </v>
   <v>       0.33333333       0.11904762       0.00000000 </v>
   <v>       0.35714286       0.11904762       0.00000000 </v>
   <v>       0.38095238       0.11904762       0.00000000 </v>
   <v>       0.40476190       0.11904762       0.00000000 </v>
   <v>       0.42857143       0.11904762       0.00000000 </v>
   <v>       0.45238095       0.11904762       0.00000000 </v>
   <v>       0.47619048       0.11904762       0.00000000 </v>
   <v>       0.50000000       0.11904762       0.00000000 </v>
   <v>      -0.47619048       0.11904762       0.00000000 </v>
   <v>      -0.45238095       0.11904762       0.00000000 </v>
   <v>      -0.42857143       0.11904762       0.00000000 </v>
   <v>      -0.40476190       0.11904762       0.00000000 </v>
   <v>      -0.38095238       0.11904762       0.00000000 </v>
   <v>      -0.35714286       0.11904762       0.00000000 </v>
   <v>      -0.33333333       0.11904762       0.00000000 </v>
   <v>      -0.30952381       0.11904762       0.00000000 </v>
   <v>      -0.28571429       0.11904762       0.00000000 </v>
   <v>      -0.26190476       0.11904762       0.00000000 </v>
   <v>      -0.23809524       0.11904762       0.00000000 </v>
   <v>      -0.21428571       0.11904762       0.00000000 </v>
   <v>      -0.19047619       0.11904762       0.00000000 </v>
   <v>      -0.16666667       0.11904762       0.00000000 </v>
   <v>      -0.14285714       0.11904762       0.00000000 </v>
   <v>      -0.11904762       0.11904762       0.00000000 </v>
   <v>      -0.09523810       0.11904762       0.00000000 </v>
   <v>      -0.07142857       0.11904762       0.00000000 </v>
   <v>      -0.04761905       0.11904762       0.00000000 </v>
   <v>      -0.02380952       0.11904762       0.00000000 </v>
   <v>       0.00000000       0.14285714       0.00000000 </v>
   <v>       0.28571429       0.14285714       0.00000000 </v>
   <v>       0.30952381       0.14285714       0.00000000 </v>
   <v>       0.33333333       0.14285714       0.00000000 </v>
   <v>       0.35714286       0.14285714       0.00000000 </v>
   <v>       0.38095238       0.14285714       0.00000000 </v>
   <v>       0.40476190       0.14285714       0.00000000 </v>
   <v>       0.42857143       0.14285714       0.00000000 </v>
   <v>       0.45238095       0.14285714       0.00000000 </v>
   <v>       0.47619048       0.14285714       0.00000000 </v>
   <v>       0.50000000       0.14285714       0.00000000 </v>
   <v>      -0.47619048       0.14285714       0.00000000 </v>
   <v>      -0.45238095       0.14285714       0.00000000 </v>
   <v>      -0.42857143       0.14285714       0.00000000 </v>
   <v>      -0.40476190       0.14285714       0.00000000 </v>
   <v>      -0.38095238       0.14285714       0.00000000 </v>
   <v>      -0.35714286       0.14285714       0.00000000 </v>
   <v>      -0.33333333       0.14285714       0.00000000 </v>
   <v>      -0.30952381       0.14285714       0.00000000 </v>
   <v>      -0.28571429       0.14285714       0.00000000 </v>
   <v>      -0.26190476       0.14285714       0.00000000 </v>
   <v>      -0.23809524       0.14285714       0.00000000 </v>
   <v>      -0.21428571       0.14285714       0.00000000 </v>
   <v>      -0.19047619       0.14285714       0.00000000 </v>
   <v>      -0.16666667       0.14285714       0.00000000 </v>
   <v>      -0.14285714       0.14285714       0.00000000 </v>
   <v>      -0.11904762       0.14285714       0.00000000 </v>
   <v>      -0.09523810       0.14285714       0.00000000 </v>
   <v>      -0.07142857       0.14285714       0.00000000 </v>
   <v>      -0.04761905       0.14285714       0.00000000 </v>
   <v>      -0.02380952       0.14285714       0.00000000 </v>
   <v>       0.00000000       0.16666667       0.00000000 </v>
   <v>       0.33333333       0.16666667       0.00000000 </v>
   <v>       0.35714286       0.16666667       0.00000000 </v>
   <v>       0.38095238       0.16666667       0.00000000 </v>
   <v>       0.40476190       0.16666667       0.00000000 </v>
   <v>       0.42857143       0.16666667       0.00000000 </v>
   <v>       0.45238095       0.16666667       0.00000000 </v>
   <v>       0.47619048       0.16666667       0.00000000 </v>
   <v>       0.50000000       0.16666667       0.00000000 </v>
   <v>      -0.47619048       0.16666667       0.00000000 </v>
   <v>      -0.45238095       0.16666667       0.00000000 </v>
   <v>      -0.42857143       0.16666667       0.00000000 </v>
   <v>      -0.40476190       0.16666667       0.00000000 </v>
   <v>      -0.38095238       0.16666667       0.00000000 </v>
   <v>      -0.35714286       0.16666667       0.00000000 </v>
   <v>      -0.33333333       0.16666667       0.00000000 </v>
   <v>      -0.30952381       0.16666667       0.00000000 </v>
   <v>      -0.28571429       0.16666667       0.00000000 </v>
   <v>      -0.26190476       0.16666667       0.00000000 </v>
   <v>      -0.23809524       0.16666667       0.00000000 </v>
   <v>      -0.21428571       0.16666667       0.00000000 </v>
   <v>      -0.19047619       0.16666667       0.00000000 </v>
   <v>      -0.16666667       0.16666667       0.00000000 </v>
   <v>      -0.14285714       0.16666667       0.00000000 </v>
   <v>      -0.11904762       0.16666667       0.00000000 </v>
   <v>      -0.09523810       0.16666667       0.00000000 </v>
   <v>      -0.07142857       0.16666667       0.00000000 </v>
   <v>      -0.04761905       0.16666667       0.00000000 </v>
   <v>      -0.02380952       0.16666667       0.00000000 </v>
   <v>       0.00000000       0.19047619       0.00000000 </v>
   <v>       0.38095238       0.19047619       0.00000000 </v>
   <v>       0.40476190       0.19047619       0.00000000 </v>
   <v>       0.42857143       0.19047619       0.00000000 </v>
   <v>       0.45238095       0.19047619       0.00000000 </v>
   <v>       0.47619048       0.19047619       0.00000000 </v>
   <v>       0.50000000       0.19047619       0.00000000 </v>
   <v>      -0.47619048       0.19047619       0.00000000 </v>
   <v>      -0.45238095       0.19047619       0.00000000 </v>
   <v>      -0.42857143       0.19047619       0.00000000 </v>
   <v>      -0.40476190       0.19047619       0.00000000 </v>
   <v>      -0.38095238       0.19047619       0.00000000 </v>
   <v>      -0.35714286       0.19047619       0.00000000 </v>
   <v>      -0.33333333       0.19047619       0.00000000 </v>
   <v>      -0.30952381       0.19047619       0.00000000 </v>
   <v>      -0.28571429       0.19047619       0.00000000 </v>
   <v>      -0.26190476       0.19047619       0.00000000 </v>
   <v>      -0.23809524       0.19047619       0.00000000 </v>
   <v>      -0.21428571       0.19047619       0.00000000 </v>
   <v>      -0.19047619       0.19047619       0.00000000 </v>
   <v>      -0.16666667       0.19047619       0.00000000 </v>
   <v>      -0.14285714       0.19047619       0.00000000 </v>
   <v>      -0.11904762       0.19047619       0.00000000 </v>
   <v>      -0.09523810       0.19047619       0.00000000 </v>
   <v>      -0.07142857       0.19047619       0.00000000 </v>
   <v>      -0.04761905       0.19047619       0.00000000 </v>
   <v>      -0.02380952       0.19047619       0.00000000 </v>
   <v>       0.00000000       0.21428571       0.00000000 </v>
   <v>       0.42857143       0.21428571       0.00000000 </v>
   <v>       0.45238095       0.21428571       0.00000000 </v>
   <v>       0.47619048       0.21428571       0.00000000 </v>
   <v>       0.50000000       0.21428571       0.00000000 </v>
   <v>      -0.47619048       0.21428571       0.00000000 </v>
   <v>      -0.45238095       0.21428571       0.00000000 </v>
   <v>      -0.42857143       0.21428571       0.00000000 </v>
   <v>      -0.40476190       0.21428571       0.00000000 </v>
   <v>      -0.38095238       0.21428571       0.00000000 </v>
   <v>      -0.35714286       0.21428571       0.00000000 </v>
   <v>      -0.33333333       0.21428571       0.00000000 </v>
   <v>      -0.30952381       0.21428571       0.00000000 </v>
   <v>      -0.28571429       0.21428571       0.00000000 </v>
   <v>      -0.26190476       0.21428571       0.00000000 </v>
   <v>      -0.23809524       0.21428571       0.00000000 </v>
   <v>      -0.21428571       0.21428571       0.00000000 </v>
   <v>      -0.19047619       0.21428571       0.00000000 </v>
   <v>      -0.16666667       0.21428571       0.00000000 </v>
   <v>      -0.14285714       0.21428571       0.00000000 </v>
   <v>      -0.11904762       0.21428571       0.00000000 </v>
   <v>      -0.09523810       0.21428571       0.00000000 </v>
   <v>      -0.07142857       0.21428571       0.00000000 </v>
   <v>      -0.04761905       0.21428571       0.00000000 </v>
   <v>      -0.02380952       0.21428571       0.00000000 </v>
   <v>       0.00000000       0.23809524       0.00000000 </v>
   <v>       0.47619048       0.23809524       0.00000000 </v>
   <v>       0.50000000       0.23809524       0.00000000 </v>
   <v>      -0.47619048       0.23809524       0.00000000 </v>
   <v>      -0.45238095       0.23809524       0.00000000 </v>
   <v>      -0.42857143       0.23809524       0.00000000 </v>
   <v>      -0.40476190       0.23809524       0.00000000 </v>
   <v>      -0.38095238       0.23809524       0.00000000 </v>
   <v>      -0.35714286       0.23809524       0.00000000 </v>
   <v>      -0.33333333       0.23809524       0.00000000 </v>
   <v>      -0.30952381       0.23809524       0.00000000 </v>
   <v>      -0.28571429       0.23809524       0.00000000 </v>
   <v>      -0.26190476       0.23809524       0.00000000 </v>
   <v>      -0.23809524       0.23809524       0.00000000 </v>
   <v>      -0.21428571       0.23809524       0.00000000 </v>
   <v>      -0.19047619       0.23809524       0.00000000 </v>
   <v>      -0.16666667       0.23809524       0.00000000 </v>
   <v>      -0.14285714       0.23809524       0.00000000 </v>
   <v>      -0.11904762       0.23809524       0.00000000 </v>
   <v>      -0.09523810       0.23809524       0.00000000 </v>
   <v>      -0.07142857       0.23809524       0.00000000 </v>
   <v>      -0.04761905       0.23809524       0.00000000 </v>
   <v>      -0.02380952       0.23809524       0.00000000 </v>
   <v>       0.00000000       0.26190476       0.00000000 </v>
   <v>      -0.47619048       0.26190476       0.00000000 </v>
   <v>      -0.45238095       0.26190476       0.00000000 </v>
   <v>      -0.42857143       0.26190476       0.00000000 </v>
   <v>      -0.40476190       0.26190476       0.00000000 </v>
   <v>      -0.38095238       0.26190476       0.00000000 </v>
   <v>      -0.35714286       0.26190476       0.00000000 </v>
   <v>      -0.33333333       0.26190476       0.00000000 </v>
   <v>      -0.30952381       0.26190476       0.00000000 </v>
   <v>      -0.28571429       0.26190476       0.00000000 </v>
   <v>      -0.26190476       0.26190476       0.00000000 </v>
   <v>      -0.23809524       0.26190476       0.00000000 </v>
   <v>      -0.21428571       0.26190476       0.00000000 </v>
   <v>      -0.19047619       0.26190476       0.00000000 </v>
   <v>      -0.16666667       0.26190476       0.00000000 </v>
   <v>      -0.14285714       0.26190476       0.00000000 </v>
   <v>      -0.11904762       0.26190476       0.00000000 </v>
   <v>      -0.09523810       0.26190476       0.00000000 </v>
   <v>      -0.07142857       0.26190476       0.00000000 </v>
   <v>      -0.04761905       0.26190476       0.00000000 </v>
   <v>      -0.02380952       0.26190476       0.00000000 </v>
   <v>       0.00000000       0.28571429       0.00000000 </v>
   <v>      -0.42857143       0.28571429       0.00000000 </v>
   <v>      -0.40476190       0.28571429       0.00000000 </v>
   <v>      -0.38095238       0.28571429       0.00000000 </v>
   <v>      -0.35714286       0.28571429       0.00000000 </v>
   <v>      -0.33333333       0.28571429       0.00000000 </v>
   <v>      -0.30952381       0.28571429       0.00000000 </v>
   <v>      -0.28571429       0.28571429       0.00000000 </v>
   <v>      -0.26190476       0.28571429       0.00000000 </v>
   <v>      -0.23809524       0.28571429       0.00000000 </v>
   <v>      -0.21428571       0.28571429       0.00000000 </v>
   <v>      -0.19047619       0.28571429       0.00000000 </v>
   <v>      -0.16666667       0.28571429       0.00000000 </v>
   <v>      -0.14285714       0.28571429       0.00000000 </v>
   <v>      -0.11904762       0.28571429       0.00000000 </v>
   <v>      -0.09523810       0.28571429       0.00000000 </v>
   <v>      -0.07142857       0.28571429       0.00000000 </v>
   <v>      -0.04761905       0.28571429       0.00000000 </v>
   <v>      -0.02380952       0.28571429       0.00000000 </v>
   <v>       0.00000000       0.30952381       0.00000000 </v>
   <v>      -0.38095238       0.30952381       0.00000000 </v>
   <v>      -0.35714286       0.30952381       0.00000000 </v>
   <v>      -0.33333333       0.30952381       0.00000000 </v>
   <v>      -0.30952381       0.30952381       0.00000000 </v>
   <v>      -0.28571429       0.30952381       0.00000000 </v>
   <v>      -0.26190476       0.30952381       0.00000000 </v>
   <v>      -0.23809524       0.30952381       0.00000000 </v>
   <v>      -0.21428571       0.30952381       0.00000000 </v>
   <v>      -0.19047619       0.30952381       0.00000000 </v>
   <v>      -0.16666667       0.30952381       0.00000000 </v>
   <v>      -0.14285714       0.30952381       0.00000000 </v>
   <v>      -0.11904762       0.30952381       0.00000000 </v>
   <v>      -0.09523810       0.30952381       0.00000000 </v>
   <v>      -0.07142857       0.30952381       0.00000000 </v>
   <v>      -0.04761905       0.30952381       0.00000000 </v>
   <v>      -0.02380952       0.30952381       0.00000000 </v>
   <v>       0.00000000       0.33333333       0.00000000 </v>
   <v>      -0.33333333       0.33333333       0.00000000 </v>
   <v>      -0.30952381       0.33333333       0.00000000 </v>
   <v>      -0.28571429       0.33333333       0.00000000 </v>
   <v>      -0.26190476       0.33333333       0.00000000 </v>
   <v>      -0.23809524       0.33333333       0.00000000 </v>
   <v>      -0.21428571       0.33333333       0.00000000 </v>
   <v>      -0.19047619       0.33333333       0.00000000 </v>
   <v>      -0.16666667       0.33333333       0.00000000 </v>
   <v>      -0.14285714       0.33333333       0.00000000 </v>
   <v>      -0.11904762       0.33333333       0.00000000 </v>
   <v>      -0.09523810       0.33333333       0.00000000 </v>
   <v>      -0.07142857       0.33333333       0.00000000 </v>
   <v>      -0.04761905       0.33333333       0.00000000 </v>
   <v>      -0.02380952       0.33333333       0.00000000 </v>
   <v>       0.00000000       0.35714286       0.00000000 </v>
   <v>      -0.28571429       0.35714286       0.00000000 </v>
   <v>      -0.26190476       0.35714286       0.00000000 </v>
   <v>      -0.23809524       0.35714286       0.00000000 </v>
   <v>      -0.21428571       0.35714286       0.00000000 </v>
   <v>      -0.19047619       0.35714286       0.00000000 </v>
   <v>      -0.16666667       0.35714286       0.00000000 </v>
   <v>      -0.14285714       0.35714286       0.00000000 </v>
   <v>      -0.11904762       0.35714286       0.00000000 </v>
   <v>      -0.09523810       0.35714286       0.00000000 </v>
   <v>      -0.07142857       0.35714286       0.00000000 </v>
   <v>      -0.04761905       0.35714286       0.00000000 </v>
   <v>      -0.02380952       0.35714286       0.00000000 </v>
   <v>       0.00000000       0.38095238       0.00000000 </v>
   <v>      -0.23809524       0.38095238       0.00000000 </v>
   <v>      -0.21428571       0.38095238       0.00000000 </v>
   <v>      -0.19047619       0.38095238       0.00000000 </v>
   <v>      -0.16666667       0.38095238       0.00000000 </v>
   <v>      -0.14285714       0.38095238       0.00000000 </v>
   <v>      -0.11904762       0.38095238       0.00000000 </v>
   <v>      -0.09523810       0.38095238       0.00000000 </v>
   <v>      -0.07142857       0.38095238       0.00000000 </v>
   <v>      -0.04761905       0.38095238       0.00000000 </v>
   <v>      -0.02380952       0.38095238       0.00000000 </v>
   <v>       0.00000000       0.40476190       0.00000000 </v>
   <v>      -0.19047619       0.40476190       0.00000000 </v>
   <v>      -0.16666667       0.40476190       0.00000000 </v>
   <v>      -0.14285714       0.40476190       0.00000000 </v>
   <v>      -0.11904762       0.40476190       0.00000000 </v>
   <v>      -0.09523810       0.40476190       0.00000000 </v>
   <v>      -0.07142857       0.40476190       0.00000000 </v>
   <v>      -0.04761905       0.40476190       0.00000000 </v>
   <v>      -0.02380952       0.40476190       0.00000000 </v>
   <v>       0.00000000       0.42857143       0.00000000 </v>
   <v>      -0.14285714       0.42857143       0.00000000 </v>
   <v>      -0.11904762       0.42857143       0.00000000 </v>
   <v>      -0.09523810       0.42857143       0.00000000 </v>
   <v>      -0.07142857       0.42857143       0.00000000 </v>
   <v>      -0.04761905       0.42857143       0.00000000 </v>
   <v>      -0.02380952       0.42857143       0.00000000 </v>
   <v>       0.00000000       0.45238095       0.00000000 </v>
   <v>      -0.09523810       0.45238095       0.00000000 </v>
   <v>      -0.07142857       0.45238095       0.00000000 </v>
   <v>      -0.04761905       0.45238095       0.00000000 </v>
   <v>      -0.02380952       0.45238095       0.00000000 </v>
   <v>       0.00000000       0.47619048       0.00000000 </v>
   <v>      -0.04761905       0.47619048       0.00000000 </v>
   <v>      -0.02380952       0.47619048       0.00000000 </v>
   <v>       0.00000000       0.50000000       0.00000000 </v>
  </varray>
  <varray name="weights" >
   <v>       0.00056689 </v>
   <v>       0.00226757 </v>
   <v>       0.00226757 </v>
   <v>       0.00226757 </v>
   <v>       0.00226757 </v>
   <v>       0.00226757 </v>
   <v>       0.00226757 </v>
   <v>       0.00226757 </v>
   <v>       0.00226757 </v>
   <v>       0.00226757 </v>
   <v>       0.00226757 </v>
   <v>       0.00226757 </v>
   <v>       0.00226757 </v>
   <v>       0.00226757 </v>
   <v>       0.00226757 </v>
   <v>       0.00226757 </v>
   <v>       0.00226757 </v>
   <v>       0.00226757 </v>
   <v>       0.00226757 </v>
   <v>       0.00226757 </v>
   <v>       0.00226757 </v>
   <v>       0.00113379 </v>
   <v>       0.00113379 </v>
   <v>       0.00113379 </v>
   <v>       0.00226757 </v>
   <v>       0.00226757 </v>
   <v>       0.00226757 </v>
   <v>       0.00226757 </v>
   <v>       0.00226757 </v>
   <v>       0.00226757 </v>
   <v>       0.00226757 </v>
   <v>       0.00226757 </v>
   <v>       0.00226757 </v>
   <v>       0.00226757 </v>
   <v>       0.00226757 </v>
   <v>       0.00226757 </v>
   <v>       0.00226757 </v>
   <v>       0.00226757 </v>
   <v>       0.00226757 </v>
   <v>       0.00226757 </v>
   <v>       0.00226757 </v>
   <v>       0.00226757 </v>
   <v>       0.00226757 </v>
   <v>       0.00226757 </v>
   <v>       0.00226757 </v>
   <v>       0.00226757 </v>
   <v>       0.00226757 </v>
   <v>       0.00226757 </v>
   <v>       0.00226757 </v>
   <v>       0.00226757 </v>
   <v>       0.00226757 </v>
   <v>       0.00226757 </v>
   <v>       0.00226757 </v>
   <v>       0.00226757 </v>
   <v>       0.00226757 </v>
   <v>       0.00226757 </v>
   <v>       0.00226757 </v>
   <v>       0.00226757 </v>
   <v>       0.00226757 </v>
   <v>       0.00226757 </v>
   <v>       0.00226757 </v>
   <v>       0.00226757 </v>
   <v>       0.00226757 </v>
   <v>       0.00113379 </v>
   <v>       0.00113379 </v>
   <v>       0.00226757 </v>
   <v>       0.00226757 </v>
   <v>       0.00226757 </v>
   <v>       0.00226757 </v>
   <v>       0.00226757 </v>
   <v>       0.00226757 </v>
   <v>       0.00226757 </v>
   <v>       0.00226757 </v>
   <v>       0.00226757 </v>
   <v>       0.00226757 </v>
   <v>       0.00226757 </v>
   <v>       0.00226757 </v>
   <v>       0.00226757 </v>
   <v>       0.00226757 </v>
   <v>       0.00226757 </v>
   <v>       0.00226757 </v>
   <v>       0.00226757 </v>
   <v>       0.00226757 </v>
   <v>       0.00226757 </v>
   <v>       0.00226757 </v>
   <v>       0.00226757 </v>
   <v>       0.00226757 </v>
   <v>       0.00226757 </v>
   <v>       0.00226757 </v>
   <v>       0.00226757 </v>
   <v>       0.00226757 </v>
   <v>       0.00226757 </v>
   <v>       0.00226757 </v>
   <v>       0.00226757 </v>
   <v>       0.00226757 </v>
   <v>       0.00226757 </v>
   <v>       0.00226757 </v>
   <v>       0.00226757 </v>
   <v>       0.00226757 </v>
   <v>       0.00226757 </v>
   <v>       0.00226757 </v>
   <v>       0.00226757 </v>
   <v>       0.00113379 </v>
   <v>       0.00113379 </v>
   <v>       0.00226757 </v>
   <v>       0.00226757 </v>
   <v>       0.00226757 </v>
   <v>       0.00226757 </v>
   <v>       0.00226757 </v>
   <v>       0.00226757 </v>
   <v>       0.00226757 </v>
   <v>       0.00226757 </v>
   <v>       0.00226757 </v>
   <v>       0.00226757 </v>
   <v>       0.00226757 </v>
   <v>       0.00226757 </v>
   <v>       0.00226757 </v>
   <v>       0.00226757 </v>
   <v>       0.00226757 </v>
   <v>       0.00226757 </v>
   <v>       0.00226757 </v>
   <v>       0.00226757 </v>
   <v>       0.00226757 </v>
   <v>       0.00226757 </v>
   <v>       0.00226757 </v>
   <v>       0.00226757 </v>
   <v>       0.00226757 </v>
   <v>       0.00226757 </v>
   <v>       0.00226757 </v>
   <v>       0.00226757 </v>
   <v>       0.00226757 </v>
   <v>       0.00226757 </v>
   <v>       0.00226757 </v>
   <v>       0.00226757 </v>
   <v>       0.00226757 </v>
   <v>       0.00226757 </v>
   <v>       0.00226757 </v>
   <v>       0.00226757 </v>
   <v>       0.00226757 </v>
   <v>       0.00113379 </v>
   <v>       0.00113379 </v>
   <v>       0.00226757 </v>
   <v>       0.00226757 </v>
   <v>       0.00226757 </v>
   <v>       0.00226757 </v>
   <v>       0.00226757 </v>
   <v>       0.00226757 </v>
   <v>       0.00226757 </v>
   <v>       0.00226757 </v>
   <v>       0.00226757 </v>
   <v>       0.00226757 </v>
   <v>       0.00226757 </v>
   <v>       0.00226757 </v>
   <v>       0.00226757 </v>
   <v>       0.00226757 </v>
   <v>       0.00226757 </v>
   <v>       0.00226757 </v>
   <v>       0.00226757 </v>
   <v>       0.00226757 </v>
   <v>       0.00226757 </v>
   <v>       0.00226757 </v>
   <v>       0.00226757 </v>
   <v>       0.00226757 </v>
   <v>       0.00226757 </v>
   <v>       0.00226757 </v>
   <v>       0.00226757 </v>
   <v>       0.00226757 </v>
   <v>       0.00226757 </v>
   <v>       0.00226757 </v>
   <v>       0.00226757 </v>
   <v>       0.00226757 </v>
   <v>       0.00226757 </v>
   <v>       0.00226757 </v>
   <v>       0.00226757 </v>
   <v>       0.00113379 </v>
   <v>       0.00113379 </v>
   <v>       0.00226757 </v>
   <v>       0.00226757 </v>
   <v>       0.00226757 </v>
   <v>       0.00226757 </v>
   <v>       0.00226757 </v>
   <v>       0.00226757 </v>
   <v>       0.00226757 </v>
   <v>       0.00226757 </v>
   <v>       0.00226757 </v>
   <v>       0.00226757 </v>
   <v>       0.00226757 </v>
   <v>       0.00226757 </v>
   <v>       0.00226757 </v>
   <v>       0.00226757 </v>
   <v>       0.00226757 </v>
   <v>       0.00226757 </v>
   <v>       0.00226757 </v>
   <v>       0.00226757 </v>
   <v>       0.00226757 </v>
   <v>       0.00226757 </v>
   <v>       0.00226757 </v>
   <v>       0.00226757 </v>
   <v>       0.00226757 </v>
   <v>       0.00226757 </v>
   <v>       0.00226757 </v>
   <v>       0.00226757 </v>
   <v>       0.00226757 </v>
   <v>       0.00226757 </v>
   <v>       0.00226757 </v>
   <v>       0.00226757 </v>
   <v>       0.00226757 </v>
   <v>       0.00113379 </v>
   <v>       0.00113379 </v>
   <v>       0.00226757 </v>
   <v>       0.00226757 </v>
   <v>       0.00226757 </v>
   <v>       0.00226757 </v>
   <v>       0.00226757 </v>
   <v>       0.00226757 </v>
   <v>       0.00226757 </v>
   <v>       0.00226757 </v>
   <v>       0.00226757 </v>
   <v>       0.00226757 </v>
   <v>       0.00226757 </v>
   <v>       0.00226757 </v>
   <v>       0.00226757 </v>
   <v>       0.00226757 </v>
   <v>       0.00226757 </v>
   <v>       0.00226757 </v>
   <v>       0.00226757 </v>
   <v>       0.00226757 </v>
   <v>       0.00226757 </v>
   <v>       0.00226757 </v>
   <v>       0.00226757 </v>
   <v>       0.00226757 </v>
   <v>       0.00226757 </v>
   <v>       0.00226757 </v>
   <v>       0.00226757 </v>
   <v>       0.00226757 </v>
   <v>       0.00226757 </v>
   <v>       0.00226757 </v>
   <v>       0.00226757 </v>
   <v>       0.00113379 </v>
   <v>       0.00113379 </v>
   <v>       0.00226757 </v>
   <v>       0.00226757 </v>
   <v>       0.00226757 </v>
   <v>       0.00226757 </v>
   <v>       0.00226757 </v>
   <v>       0.00226757 </v>
   <v>       0.00226757 </v>
   <v>       0.00226757 </v>
   <v>       0.00226757 </v>
   <v>       0.00226757 </v>
   <v>       0.00226757 </v>
   <v>       0.00226757 </v>
   <v>       0.00226757 </v>
   <v>       0.00226757 </v>
   <v>       0.00226757 </v>
   <v>       0.00226757 </v>
   <v>       0.00226757 </v>
   <v>       0.00226757 </v>
   <v>       0.00226757 </v>
   <v>       0.00226757 </v>
   <v>       0.00226757 </v>
   <v>       0.00226757 </v>
   <v>       0.00226757 </v>
   <v>       0.00226757 </v>
   <v>       0.00226757 </v>
   <v>       0.00226757 </v>
   <v>       0.00226757 </v>
   <v>       0.00113379 </v>
   <v>       0.00113379 </v>
   <v>       0.00226757 </v>
   <v>       0.00226757 </v>
   <v>       0.00226757 </v>
   <v>       0.00226757 </v>
   <v>       0.00226757 </v>
   <v>       0.00226757 </v>
   <v>       0.00226757 </v>
   <v>       0.00226757 </v>
   <v>       0.00226757 </v>
   <v>       0.00226757 </v>
   <v>       0.00226757 </v>
   <v>       0.00226757 </v>
   <v>       0.00226757 </v>
   <v>       0.00226757 </v>
   <v>       0.00226757 </v>
   <v>       0.00226757 </v>
   <v>       0.00226757 </v>
   <v>       0.00226757 </v>
   <v>       0.00226757 </v>
   <v>       0.00226757 </v>
   <v>       0.00226757 </v>
   <v>       0.00226757 </v>
   <v>       0.00226757 </v>
   <v>       0.00226757 </v>
   <v>       0.00226757 </v>
   <v>       0.00113379 </v>
   <v>       0.00113379 </v>
   <v>       0.00226757 </v>
   <v>       0.00226757 </v>
   <v>       0.00226757 </v>
   <v>       0.00226757 </v>
   <v>       0.00226757 </v>
   <v>       0.00226757 </v>
   <v>       0.00226757 </v>
   <v>       0.00226757 </v>
   <v>       0.00226757 </v>
   <v>       0.00226757 </v>
   <v>       0.00226757 </v>
   <v>       0.00226757 </v>
   <v>       0.00226757 </v>
   <v>       0.00226757 </v>
   <v>       0.00226757 </v>
   <v>       0.00226757 </v>
   <v>       0.00226757 </v>
   <v>       0.00226757 </v>
   <v>       0.00226757 </v>
   <v>       0.00226757 </v>
   <v>       0.00226757 </v>
   <v>       0.00226757 </v>
   <v>       0.00226757 </v>
   <v>       0.00113379 </v>
   <v>       0.00113379 </v>
   <v>       0.00226757 </v>
   <v>       0.00226757 </v>
   <v>       0.00226757 </v>
   <v>       0.00226757 </v>
   <v>       0.00226757 </v>
   <v>       0.00226757 </v>
   <v>       0.00226757 </v>
   <v>       0.00226757 </v>
   <v>       0.00226757 </v>
   <v>       0.00226757 </v>
   <v>       0.00226757 </v>
   <v>       0.00226757 </v>
   <v>       0.00226757 </v>
   <v>       0.00226757 </v>
   <v>       0.00226757 </v>
   <v>       0.00226757 </v>
   <v>       0.00226757 </v>
   <v>       0.00226757 </v>
   <v>       0.00226757 </v>
   <v>       0.00226757 </v>
   <v>       0.00226757 </v>
   <v>       0.00113379 </v>
   <v>       0.00113379 </v>
   <v>       0.00226757 </v>
   <v>       0.00226757 </v>
   <v>       0.00226757 </v>
   <v>       0.00226757 </v>
   <v>       0.00226757 </v>
   <v>       0.00226757 </v>
   <v>       0.00226757 </v>
   <v>       0.00226757 </v>
   <v>       0.00226757 </v>
   <v>       0.00226757 </v>
   <v>       0.00226757 </v>
   <v>       0.00226757 </v>
   <v>       0.00226757 </v>
   <v>       0.00226757 </v>
   <v>       0.00226757 </v>
   <v>       0.00226757 </v>
   <v>       0.00226757 </v>
   <v>       0.00226757 </v>
   <v>       0.00226757 </v>
   <v>       0.00113379 </v>
   <v>       0.00113379 </v>
   <v>       0.00226757 </v>
   <v>       0.00226757 </v>
   <v>       0.00226757 </v>
   <v>       0.00226757 </v>
   <v>       0.00226757 </v>
   <v>       0.00226757 </v>
   <v>       0.00226757 </v>
   <v>       0.00226757 </v>
   <v>       0.00226757 </v>
   <v>       0.00226757 </v>
   <v>       0.00226757 </v>
   <v>       0.00226757 </v>
   <v>       0.00226757 </v>
   <v>       0.00226757 </v>
   <v>       0.00226757 </v>
   <v>       0.00226757 </v>
   <v>       0.00226757 </v>
   <v>       0.00113379 </v>
   <v>       0.00113379 </v>
   <v>       0.00226757 </v>
   <v>       0.00226757 </v>
   <v>       0.00226757 </v>
   <v>       0.00226757 </v>
   <v>       0.00226757 </v>
   <v>       0.00226757 </v>
   <v>       0.00226757 </v>
   <v>       0.00226757 </v>
   <v>       0.00226757 </v>
   <v>       0.00226757 </v>
   <v>       0.00226757 </v>
   <v>       0.00226757 </v>
   <v>       0.00226757 </v>
   <v>       0.00226757 </v>
   <v>       0.00226757 </v>
   <v>       0.00113379 </v>
   <v>       0.00113379 </v>
   <v>       0.00226757 </v>
   <v>       0.00226757 </v>
   <v>       0.00226757 </v>
   <v>       0.00226757 </v>
   <v>       0.00226757 </v>
   <v>       0.00226757 </v>
   <v>       0.00226757 </v>
   <v>       0.00226757 </v>
   <v>       0.00226757 </v>
   <v>       0.00226757 </v>
   <v>       0.00226757 </v>
   <v>       0.00226757 </v>
   <v>       0.00226757 </v>
   <v>       0.00113379 </v>
   <v>       0.00113379 </v>
   <v>       0.00226757 </v>
   <v>       0.00226757 </v>
   <v>       0.00226757 </v>
   <v>       0.00226757 </v>
   <v>       0.00226757 </v>
   <v>       0.00226757 </v>
   <v>       0.00226757 </v>
   <v>       0.00226757 </v>
   <v>       0.00226757 </v>
   <v>       0.00226757 </v>
   <v>       0.00226757 </v>
   <v>       0.00113379 </v>
   <v>       0.00113379 </v>
   <v>       0.00226757 </v>
   <v>       0.00226757 </v>
   <v>       0.00226757 </v>
   <v>       0.00226757 </v>
   <v>       0.00226757 </v>
   <v>       0.00226757 </v>
   <v>       0.00226757 </v>
   <v>       0.00226757 </v>
   <v>       0.00226757 </v>
   <v>       0.00113379 </v>
   <v>       0.00113379 </v>
   <v>       0.00226757 </v>
   <v>       0.00226757 </v>
   <v>       0.00226757 </v>
   <v>       0.00226757 </v>
   <v>       0.00226757 </v>
   <v>       0.00226757 </v>
   <v>       0.00226757 </v>
   <v>       0.00113379 </v>
   <v>       0.00113379 </v>
   <v>       0.00226757 </v>
   <v>       0.00226757 </v>
   <v>       0.00226757 </v>
   <v>       0.00226757 </v>
   <v>       0.00226757 </v>
   <v>       0.00113379 </v>
   <v>       0.00113379 </v>
   <v>       0.00226757 </v>
   <v>       0.00226757 </v>
   <v>       0.00226757 </v>
   <v>       0.00113379 </v>
   <v>       0.00113379 </v>
   <v>       0.00226757 </v>
   <v>       0.00056689 </v>
  </varray>
 </kpoints>
 <parameters>
  <separator name="general" >
   <i type="string" name="SYSTEM">W-1, se-2</i>
   <i type="logical" name="LCOMPAT"> F  </i>
  </separator>
  <separator name="electronic" >
   <i type="string" name="PREC">accura</i>
   <i name="ENMAX">    800.00000000</i>
   <i name="ENAUG">    446.84200000</i>
   <i name="EDIFF">      0.00000001</i>
   <i type="int" name="IALGO">    38</i>
   <i type="int" name="IWAVPR">    10</i>
   <i type="int" name="NBANDS">    18</i>
   <i name="NELECT">     18.00000000</i>
   <i type="int" name="TURBO">     0</i>
   <i type="int" name="IRESTART">     0</i>
   <i type="int" name="NREBOOT">     0</i>
   <i type="int" name="NMIN">     0</i>
   <i name="EREF">      0.00000000</i>
   <separator name="electronic smearing" >
    <i type="int" name="ISMEAR">     0</i>
    <i name="SIGMA">      0.10000000</i>
    <i name="KSPACING">      0.50000000</i>
    <i type="logical" name="KGAMMA"> T  </i>
   </separator>
   <separator name="electronic projectors" >
    <i type="logical" name="LREAL"> F  </i>
    <v name="ROPT">      0.00000000      0.00000000</v>
    <i type="int" name="LMAXPAW">  -100</i>
    <i type="int" name="LMAXMIX">     2</i>
    <i type="logical" name="NLSPLINE"> F  </i>
   </separator>
   <separator name="electronic startup" >
    <i type="int" name="ISTART">     0</i>
    <i type="int" name="ICHARG">     1</i>
    <i type="int" name="INIWAV">     1</i>
   </separator>
   <separator name="electronic spin" >
    <i type="int" name="ISPIN">     1</i>
    <i type="logical" name="LNONCOLLINEAR"> F  </i>
    <v name="MAGMOM">      1.00000000      1.00000000      1.00000000</v>
    <i name="NUPDOWN">     -1.00000000</i>
    <i type="logical" name="LSORBIT"> F  </i>
    <v name="SAXIS">      0.00000000      0.00000000      1.00000000</v>
    <i type="logical" name="LSPIRAL"> F  </i>
    <v name="QSPIRAL">      0.00000000      0.00000000      0.00000000</v>
    <i type="logical" name="LZEROZ"> F  </i>
   </separator>
   <separator name="electronic exchange-correlation" >
    <i type="logical" name="LASPH"> F  </i>
    <i type="logical" name="LMETAGGA"> F  </i>
   </separator>
   <separator name="electronic convergence" >
    <i type="int" name="NELM">    60</i>
    <i type="int" name="NELMDL">    -5</i>
    <i type="int" name="NELMIN">     5</i>
    <i name="ENINI">    800.00000000</i>
    <separator name="electronic convergence detail" >
     <i type="logical" name="LDIAG"> T  </i>
     <i type="logical" name="LSUBROT"> F  </i>
     <i name="WEIMIN">      0.00000000</i>
     <i name="EBREAK">      0.00000000</i>
     <i name="DEPER">      0.30000000</i>
     <i type="int" name="NRMM">     4</i>
     <i name="TIME">      0.40000000</i>
    </separator>
   </separator>
   <separator name="electronic mixer" >
    <i name="AMIX">      0.40000000</i>
    <i name="BMIX">      1.00000000</i>
    <i name="AMIN">      0.01000000</i>
    <i name="AMIX_MAG">      1.60000000</i>
    <i name="BMIX_MAG">      1.00000000</i>
    <separator name="electronic mixer details" >
     <i type="int" name="IMIX">     4</i>
     <i type="logical" name="MIXFIRST"> F  </i>
     <i type="int" name="MAXMIX">   -45</i>
     <i name="WC">    100.00000000</i>
     <i type="int" name="INIMIX">     1</i>
     <i type="int" name="MIXPRE">     1</i>
     <i type="int" name="MREMOVE">     5</i>
    </separator>
   </separator>
   <separator name="electronic dipolcorrection" >
    <i type="logical" name="LDIPOL"> F  </i>
    <i type="logical" name="LMONO"> F  </i>
    <i type="int" name="IDIPOL">     0</i>
    <i name="EPSILON">      1.00000000</i>
    <v name="DIPOL">   -100.00000000   -100.00000000   -100.00000000</v>
    <i name="EFIELD">      0.00000000</i>
   </separator>
  </separator>
  <separator name="grids" >
   <i type="int" name="NGX">    30</i>
   <i type="int" name="NGY">    30</i>
   <i type="int" name="NGZ">   192</i>
   <i type="int" name="NGXF">    60</i>
   <i type="int" name="NGYF">    60</i>
   <i type="int" name="NGZF">   384</i>
   <i type="logical" name="ADDGRID"> T  </i>
  </separator>
  <separator name="ionic" >
   <i type="int" name="NSW">     0</i>
   <i type="int" name="IBRION">    -1</i>
   <i type="int" name="MDALGO">     0</i>
   <i type="int" name="ISIF">     2</i>
   <i name="PSTRESS">      0.00000000</i>
   <i name="EDIFFG">     -0.00000001</i>
   <i type="int" name="NFREE">     0</i>
   <i name="POTIM">      0.50000000</i>
   <i name="SMASS">     -3.00000000</i>
   <i name="SCALEE">      1.00000000</i>
  </separator>
  <separator name="ionic md" >
   <i name="TEBEG">      0.00010000</i>
   <i name="TEEND">      0.00010000</i>
   <i type="int" name="NBLOCK">     1</i>
   <i type="int" name="KBLOCK">     1</i>
   <i type="int" name="NPACO">   256</i>
   <i name="APACO">     16.00000000</i>
  </separator>
  <separator name="symmetry" >
   <i type="int" name="ISYM">     2</i>
   <i name="SYMPREC">      0.00010000</i>
  </separator>
  <separator name="dos" >
   <i type="int" name="LORBIT">     0</i>
   <v name="RWIGS">     -1.00000000     -1.00000000</v>
   <i type="int" name="NEDOS">  6001</i>
   <i name="EMIN">     10.00000000</i>
   <i name="EMAX">    -10.00000000</i>
   <i name="EFERMI">      0.00000000</i>
  </separator>
  <separator name="writing" >
   <i type="int" name="NWRITE">     2</i>
   <i type="logical" name="LWAVE"> F  </i>
   <i type="logical" name="LDOWNSAMPLE"> F  </i>
   <i type="logical" name="LCHARG"> T  </i>
   <i type="logical" name="LPARD"> F  </i>
   <i type="logical" name="LVTOT"> F  </i>
   <i type="logical" name="LVHAR"> F  </i>
   <i type="logical" name="LELF"> F  </i>
   <i type="logical" name="LOPTICS"> F  </i>
   <v name="STM">      0.00000000      0.00000000      0.00000000      0.00000000      0.00000000      0.00000000      0.00000000</v>
  </separator>
  <separator name="performance" >
   <i type="int" name="NPAR">     6</i>
   <i type="int" name="NSIM">     4</i>
   <i type="int" name="NBLK">    -1</i>
   <i type="logical" name="LPLANE"> T  </i>
   <i type="logical" name="LSCALAPACK"> T  </i>
   <i type="logical" name="LSCAAWARE"> F  </i>
   <i type="logical" name="LSCALU"> F  </i>
   <i type="logical" name="LASYNC"> F  </i>
   <i type="logical" name="LORBITALREAL"> F  </i>
  </separator>
  <separator name="miscellaneous" >
   <i type="int" name="IDIOT">     3</i>
   <i type="int" name="ISPECIAL">     0</i>
   <i type="logical" name="LMUSIC"> F  </i>
   <v name="POMASS">    183.85000000     78.96000000</v>
   <v name="DARWINR">      0.00000000      0.00000000</v>
   <v name="DARWINV">      1.00000000      1.00000000</v>
   <i type="logical" name="LCORR"> T  </i>
  </separator>
  <i type="logical" name="GGA_COMPAT"> T  </i>
  <i type="logical" name="LBERRY"> F  </i>
  <i type="int" name="ICORELEVEL">     0</i>
  <i type="logical" name="LDAU"> F  </i>
  <i type="int" name="I_CONSTRAINED_M">     0</i>
  <separator name="electronic exchange-correlation" >
   <i type="string" name="GGA">--</i>
   <i type="int" name="VOSKOWN">     0</i>
   <i type="logical" name="LHFCALC"> F  </i>
   <i type="string" name="PRECFOCK"></i>
   <i type="logical" name="LSYMGRAD"> F  </i>
   <i type="logical" name="LHFONE"> F  </i>
   <i type="logical" name="LRHFCALC"> F  </i>
   <i type="logical" name="LTHOMAS"> F  </i>
   <i type="logical" name="LMODELHF"> F  </i>
   <i name="ENCUT4O">     -1.00000000</i>
   <i type="int" name="EXXOEP">     0</i>
   <i type="int" name="FOURORBIT">     0</i>
   <i name="AEXX">      0.00000000</i>
   <i name="HFALPHA">      0.00000000</i>
   <i name="MCALPHA">      0.00000000</i>
   <i name="ALDAX">      1.00000000</i>
   <i name="AGGAX">      1.00000000</i>
   <i name="ALDAC">      1.00000000</i>
   <i name="AGGAC">      1.00000000</i>
   <i type="int" name="NKREDX">     1</i>
   <i type="int" name="NKREDY">     1</i>
   <i type="int" name="NKREDZ">     1</i>
   <i type="logical" name="SHIFTRED"> F  </i>
   <i type="logical" name="ODDONLY"> F  </i>
   <i type="logical" name="EVENONLY"> F  </i>
   <i type="int" name="LMAXFOCK">     0</i>
   <i type="int" name="NMAXFOCKAE">     0</i>
   <i type="logical" name="LFOCKAEDFT"> F  </i>
   <i name="HFSCREEN">      0.00000000</i>
   <i name="HFSCREENC">      0.00000000</i>
   <i type="int" name="NBANDSGWLOW">     0</i>
  </separator>
  <separator name="vdW DFT" >
   <i type="logical" name="LUSE_VDW"> F  </i>
   <i name="Zab_VDW">     -0.84910000</i>
   <i name="PARAM1">      0.12340000</i>
   <i name="PARAM2">      1.00000000</i>
   <i name="PARAM3">      0.00000000</i>
  </separator>
  <separator name="model GW" >
   <i type="int" name="MODEL_GW">     0</i>
   <i name="MODEL_EPS0">     37.28982144</i>
   <i name="MODEL_ALPHA">      1.00000000</i>
  </separator>
  <separator name="linear response parameters" >
   <i type="logical" name="LEPSILON"> F  </i>
   <i type="logical" name="LRPA"> F  </i>
   <i type="logical" name="LNABLA"> F  </i>
   <i type="logical" name="LVEL"> F  </i>
   <i type="int" name="KINTER">     0</i>
   <i name="CSHIFT">      0.10000000</i>
   <i name="OMEGAMAX">     -1.00000000</i>
   <i name="DEG_THRESHOLD">      0.00200000</i>
   <i name="RTIME">     -0.10000000</i>
   <i name="WPLASMAI">      0.00000000</i>
   <v name="DFIELD">      0.00000000      0.00000000      0.00000000</v>
   <v name="WPLASMA">      0.00000000      0.00000000      0.00000000      0.00000000      0.00000000      0.00000000      0.00000000      0.00000000      0.00000000</v>
  </separator>
  <separator name="orbital magnetization" >
   <i type="logical" name="NUCIND"> F  </i>
   <v name="MAGPOS">      0.00000000      0.00000000      0.00000000</v>
   <i type="logical" name="LNICSALL"> T  </i>
   <i type="logical" name="ORBITALMAG"> F  </i>
   <i type="logical" name="LMAGBLOCH"> F  </i>
   <i type="logical" name="LCHIMAG"> F  </i>
   <i type="logical" name="LGAUGE"> T  </i>
   <i type="int" name="MAGATOM">     0</i>
   <v name="MAGDIPOL">      0.00000000      0.00000000      0.00000000</v>
   <v name="AVECCONST">      0.00000000      0.00000000      0.00000000</v>
  </separator>
  <separator name="response functions" >
   <i type="logical" name="LADDER"> F  </i>
   <i type="logical" name="LRPAFORCE"> F  </i>
   <i type="logical" name="LFXC"> F  </i>
   <i type="logical" name="LHARTREE"> T  </i>
   <i type="int" name="IBSE">     0</i>
   <v type="int" name="KPOINT">    -1     0     0     0</v>
   <i type="logical" name="LTCTE"> F  </i>
   <i type="logical" name="LTETE"> F  </i>
   <i type="logical" name="LTRIPLET"> F  </i>
   <i type="logical" name="LFXCEPS"> F  </i>
   <i type="logical" name="LFXHEG"> F  </i>
   <i type="int" name="NATURALO">     2</i>
   <i type="logical" name="L2ORDER"> F  </i>
   <i type="logical" name="LMP2LT"> F  </i>
   <i type="logical" name="LUSEW"> F  </i>
   <i name="ENCUTGW">     -2.00000000</i>
   <i name="ENCUTGWSOFT">     -2.00000000</i>
   <i name="ENCUTLF">     -1.00000000</i>
   <i type="int" name="LMAXMP2">    -1</i>
   <i name="SCISSOR">      0.00000000</i>
   <i type="int" name="NOMEGA">     0</i>
   <i type="int" name="NOMEGAR">     0</i>
   <i type="int" name="NBANDSGW">    -1</i>
   <i type="int" name="NBANDSO">    -1</i>
   <i type="int" name="NBANDSV">    -1</i>
   <i type="int" name="NELM">     1</i>
   <i type="int" name="NELMHF">     1</i>
   <i type="int" name="DIM">     3</i>
   <i type="int" name="ANTIRES">     0</i>
   <i name="OMEGAMAX">    -30.00000000</i>
   <i name="OMEGAMIN">    -30.00000000</i>
   <i name="OMEGATL">   -200.00000000</i>
   <i type="int" name="OMEGAGRID">   140</i>
   <i name="CSHIFT">     -0.10000000</i>
   <i type="logical" name="SELFENERGY"> F  </i>
   <i type="logical" name="LSPECTRAL"> F  </i>
   <i type="logical" name="LSPECTRALGW"> F  </i>
   <i type="logical" name="LSINGLES"> F  </i>
   <i type="logical" name="LFERMIGW"> F  </i>
   <i type="logical" name="ODDONLYGW"> F  </i>
   <i type="logical" name="EVENONLYGW"> F  </i>
   <i type="int" name="NKREDLFX">     1</i>
   <i type="int" name="NKREDLFY">     1</i>
   <i type="int" name="NKREDLFZ">     1</i>
   <i type="int" name="MAXMEM">  2800</i>
   <i type="int" name="TELESCOPE">     0</i>
   <i type="int" name="TAUPAR">     1</i>
   <i type="int" name="OMEGAPAR">    -1</i>
   <i name="LAMBDA">      1.00000000</i>
  </separator>
  <separator name="External order field" >
   <i name="OFIELD_KAPPA">      0.00000000</i>
   <v name="OFIELD_K">      0.00000000      0.00000000      0.00000000</v>
   <i name="OFIELD_Q6_NEAR">      0.00000000</i>
   <i name="OFIELD_Q6_FAR">      0.00000000</i>
   <i name="OFIELD_A">      0.00000000</i>
  </separator>
 </parameters>
 <atominfo>
  <atoms>       3 </atoms>
  <types>       2 </types>
  <array name="atoms" >
   <dimension dim="1">ion</dimension>
   <field type="string">element</field>
   <field type="int">atomtype</field>
   <set>
    <rc><c>W </c><c>   1</c></rc>
    <rc><c>Se</c><c>   2</c></rc>
    <rc><c>Se</c><c>   2</c></rc>
   </set>
  </array>
  <array name="atomtypes" >
   <dimension dim="1">type</dimension>
   <field type="int">atomspertype</field>
   <field type="string">element</field>
   <field>mass</field>
   <field>valence</field>
   <field type="string">pseudopotential</field>
   <set>
    <rc><c>   1</c><c>W </c><c>    183.85000000</c><c>      6.00000000</c><c> PAW_PBE W 08Apr2002                    </c></rc>
    <rc><c>   2</c><c>Se</c><c>     78.96000000</c><c>      6.00000000</c><c> PAW_PBE Se 06Sep2000                   </c></rc>
   </set>
  </array>
 </atominfo>
 <structure name="initialpos" >
  <crystal>
   <varray name="basis" >
    <v>       3.28200000       0.00000000       0.00000000 </v>
    <v>       1.64100000       2.84048000       0.00000000 </v>
    <v>       0.00000000       0.00000000      20.00000000 </v>
   </varray>
   <i name="volume">    186.44910720 </i>
   <varray name="rec_basis" >
    <v>       0.30469226      -0.17602659       0.00000000 </v>
    <v>       0.00000000       0.35205317       0.00000000 </v>
    <v>       0.00000000       0.00000000       0.05000000 </v>
   </varray>
  </crystal>
  <varray name="positions" >
   <v>       0.99990000       0.00020000       0.00000000 </v>
   <v>       0.33327700       0.33344600       0.91545900 </v>
   <v>       0.33327700       0.33344600       0.08454100 </v>
  </varray>
 </structure>
 <calculation>
  <scstep>
   <time name="dav">    5.57    5.59</time>
   <time name="total">    5.65    5.69</time>
   <energy>
    <i name="alphaZ">     22.94334738 </i>
    <i name="ewald">   2158.26868162 </i>
    <i name="hartreedc">  -2831.72972898 </i>
    <i name="XCdc">    -47.72561513 </i>
    <i name="pawpsdc">    466.06406211 </i>
    <i name="pawaedc">   -380.94982486 </i>
    <i name="eentropy">     -0.00941517 </i>
    <i name="bandstr">     14.83893242 </i>
    <i name="atom">    718.53809099 </i>
    <i name="e_fr_energy">    120.23853040 </i>
    <i name="e_wo_entrp">    120.24794557 </i>
    <i name="e_0_energy">    120.24323798 </i>
   </energy>
  </scstep>
  <scstep>
   <time name="dav">    7.89    7.92</time>
   <time name="total">    7.92    7.95</time>
   <energy>
    <i name="e_fr_energy">     -9.89271903 </i>
    <i name="e_wo_entrp">     -9.89271903 </i>
    <i name="e_0_energy">     -9.89271903 </i>
   </energy>
  </scstep>
  <scstep>
   <time name="dav">    6.85    6.87</time>
   <time name="total">    6.89    6.90</time>
   <energy>
    <i name="e_fr_energy">    -21.45211391 </i>
    <i name="e_wo_entrp">    -21.45211391 </i>
    <i name="e_0_energy">    -21.45211391 </i>
   </energy>
  </scstep>
  <scstep>
   <time name="dav">    6.68    6.71</time>
   <time name="total">    6.72    6.75</time>
   <energy>
    <i name="e_fr_energy">    -21.63158861 </i>
    <i name="e_wo_entrp">    -21.63158861 </i>
    <i name="e_0_energy">    -21.63158861 </i>
   </energy>
  </scstep>
  <scstep>
   <time name="dav">    6.82    6.84</time>
   <time name="total">    7.19    7.21</time>
   <energy>
    <i name="e_fr_energy">    -21.63342519 </i>
    <i name="e_wo_entrp">    -21.63342519 </i>
    <i name="e_0_energy">    -21.63342519 </i>
   </energy>
  </scstep>
  <scstep>
   <time name="dav">    7.16    7.18</time>
   <time name="total">    7.58    7.60</time>
   <energy>
    <i name="e_fr_energy">    -21.63238304 </i>
    <i name="e_wo_entrp">    -21.63238304 </i>
    <i name="e_0_energy">    -21.63238304 </i>
   </energy>
  </scstep>
  <scstep>
   <time name="dav">    6.85    6.87</time>
   <time name="total">    7.27    7.29</time>
   <energy>
    <i name="e_fr_energy">    -21.63238292 </i>
    <i name="e_wo_entrp">    -21.63238292 </i>
    <i name="e_0_energy">    -21.63238292 </i>
   </energy>
  </scstep>
  <scstep>
   <time name="dav">    7.10    7.11</time>
   <time name="total">    7.19    7.21</time>
   <energy>
    <i name="alphaZ">     22.94334738 </i>
    <i name="ewald">   2158.26868162 </i>
    <i name="hartreedc">  -2831.72907820 </i>
    <i name="XCdc">    -47.72551108 </i>
    <i name="pawpsdc">    466.08084254 </i>
    <i name="pawaedc">   -380.96720354 </i>
    <i name="eentropy">     -0.00000000 </i>
    <i name="bandstr">   -127.04155262 </i>
    <i name="atom">    718.53809099 </i>
    <i name="e_fr_energy">    -21.63238292 </i>
    <i name="e_wo_entrp">    -21.63238292 </i>
    <i name="e_0_energy">    -21.63238292 </i>
   </energy>
  </scstep>
  <structure>
   <crystal>
    <varray name="basis" >
     <v>       3.28200000       0.00000000       0.00000000 </v>
     <v>       1.64100000       2.84048000       0.00000000 </v>
     <v>       0.00000000       0.00000000      20.00000000 </v>
    </varray>
    <i name="volume">    186.44910720 </i>
    <varray name="rec_basis" >
     <v>       0.30469226      -0.17602659       0.00000000 </v>
     <v>       0.00000000       0.35205317       0.00000000 </v>
     <v>       0.00000000       0.00000000       0.05000000 </v>
    </varray>
   </crystal>
   <varray name="positions" >
    <v>       0.99990000       0.00020000       0.00000000 </v>
    <v>       0.33327700       0.33344600       0.91545900 </v>
    <v>       0.33327700       0.33344600       0.08454100 </v>
   </varray>
  </structure>
  <varray name="forces" >
   <v>      -0.00000000      -0.00002425       0.00000000 </v>
   <v>      -0.00000000       0.00001212       0.00006416 </v>
   <v>       0.00000000       0.00001212      -0.00006416 </v>
  </varray>
  <varray name="stress" >
   <v>       7.92062285       0.00000000       0.00000000 </v>
   <v>       0.00000000       8.26054140       0.00000000 </v>
   <v>       0.00000000       0.00000000       0.00800921 </v>
  </varray>
  <energy>
   <i name="e_fr_energy">    -21.63238292 </i>
   <i name="e_wo_entrp">    -21.63238292 </i>
   <i name="e_0_energy">     -0.00000000 </i>
  </energy>
  <time name="totalsc">   62.46   62.88</time>
  <eigenvalues>
   <array>
    <dimension dim="1">band</dimension>
    <dimension dim="2">kpoint</dimension>
    <dimension dim="3">spin</dimension>
    <field>eigene</field>
    <field>occ</field>
    <set>
     <set comment="spin 1">
      <set comment="kpoint 1">
       <r>  -16.5475    1.0000 </r>
       <r>  -15.3661    1.0000 </r>
       <r>   -8.0046    1.0000 </r>
       <r>   -4.0500    1.0000 </r>
       <r>   -4.0462    1.0000 </r>
       <r>   -4.0390    1.0000 </r>
       <r>   -2.9151    1.0000 </r>
       <r>   -2.9103    1.0000 </r>
       <r>   -2.2359    1.0000 </r>
       <r>    1.2287    0.0000 </r>
       <r>    1.2324    0.0000 </r>
       <r>    1.3696    0.0000 </r>
       <r>    1.3761    0.0000 </r>
       <r>    2.4996    0.0000 </r>
       <r>    2.9596    0.0000 </r>
       <r>    3.4441    0.0000 </r>
       <r>    4.1612    0.0000 </r>
       <r>    4.9131    0.0000 </r>
      </set>
      <set comment="kpoint 2">
       <r>  -16.5390    1.0000 </r>
       <r>  -15.3614    1.0000 </r>
       <r>   -7.9934    1.0000 </r>
       <r>   -4.0719    1.0000 </r>
       <r>   -4.0688    1.0000 </r>
       <r>   -4.0320    1.0000 </r>
       <r>   -2.9274    1.0000 </r>
       <r>   -2.9106    1.0000 </r>
       <r>   -2.2370    1.0000 </r>
       <r>    1.2033    0.0000 </r>
       <r>    1.2471    0.0000 </r>
       <r>    1.3186    0.0000 </r>
       <r>    1.3627    0.0000 </r>
       <r>    2.5369    0.0000 </r>
       <r>    2.9716    0.0000 </r>
       <r>    3.4701    0.0000 </r>
       <r>    4.1848    0.0000 </r>
       <r>    4.9242    0.0000 </r>
      </set>
      <set comment="kpoint 3">
       <r>  -16.5135    1.0000 </r>
       <r>  -15.3472    1.0000 </r>
       <r>   -7.9599    1.0000 </r>
       <r>   -4.1519    1.0000 </r>
       <r>   -4.1231    1.0000 </r>
       <r>   -4.0067    1.0000 </r>
       <r>   -2.9729    1.0000 </r>
       <r>   -2.9048    1.0000 </r>
       <r>   -2.2410    1.0000 </r>
       <r>    1.1315    0.0000 </r>
       <r>    1.1828    0.0000 </r>
       <r>    1.2925    0.0000 </r>
       <r>    1.3274    0.0000 </r>
       <r>    2.6285    0.0000 </r>
       <r>    3.0072    0.0000 </r>
       <r>    3.5439    0.0000 </r>
       <r>    4.2577    0.0000 </r>
       <r>    4.9572    0.0000 </r>
      </set>
      <set comment="kpoint 4">
       <r>  -16.4714    1.0000 </r>
       <r>  -15.3239    1.0000 </r>
       <r>   -7.9046    1.0000 </r>
       <r>   -4.2800    1.0000 </r>
       <r>   -4.2075    1.0000 </r>
       <r>   -3.9647    1.0000 </r>
       <r>   -3.0456    1.0000 </r>
       <r>   -2.9041    1.0000 </r>
       <r>   -2.2498    1.0000 </r>
       <r>    1.0013    0.0000 </r>
       <r>    1.0329    0.0000 </r>
       <r>    1.2716    0.0000 </r>
       <r>    1.3640    0.0000 </r>
       <r>    2.7423    0.0000 </r>
       <r>    3.0650    0.0000 </r>
       <r>    3.6534    0.0000 </r>
       <r>    4.3843    0.0000 </r>
       <r>    5.0111    0.0000 </r>
      </set>
      <set comment="kpoint 5">
       <r>  -16.4130    1.0000 </r>
       <r>  -15.2916    1.0000 </r>
       <r>   -7.8285    1.0000 </r>
       <r>   -4.4493    1.0000 </r>
       <r>   -4.3164    1.0000 </r>
       <r>   -3.9069    1.0000 </r>
       <r>   -3.1407    1.0000 </r>
       <r>   -2.9181    1.0000 </r>
       <r>   -2.2664    1.0000 </r>
       <r>    0.8032    0.0000 </r>
       <r>    0.9300    0.0000 </r>
       <r>    1.1989    0.0000 </r>
       <r>    1.4565    0.0000 </r>
       <r>    2.8617    0.0000 </r>
       <r>    3.1438    0.0000 </r>
       <r>    3.7817    0.0000 </r>
       <r>    4.5645    0.0000 </r>
       <r>    5.0851    0.0000 </r>
      </set>
      <set comment="kpoint 6">
       <r>  -16.3390    1.0000 </r>
       <r>  -15.2507    1.0000 </r>
       <r>   -7.7329    1.0000 </r>
       <r>   -4.6519    1.0000 </r>
       <r>   -4.4452    1.0000 </r>
       <r>   -3.8346    1.0000 </r>
       <r>   -3.2531    1.0000 </r>
       <r>   -2.9544    1.0000 </r>
       <r>   -2.2950    1.0000 </r>
       <r>    0.6084    0.0000 </r>
       <r>    0.8438    0.0000 </r>
       <r>    1.1141    0.0000 </r>
       <r>    1.5638    0.0000 </r>
       <r>    2.9839    0.0000 </r>
       <r>    3.2428    0.0000 </r>
       <r>    3.9166    0.0000 </r>
       <r>    4.7858    0.0000 </r>
       <r>    5.1783    0.0000 </r>
      </set>
      <set comment="kpoint 7">
       <r>  -16.2500    1.0000 </r>
       <r>  -15.2016    1.0000 </r>
       <r>   -7.6199    1.0000 </r>
       <r>   -4.8797    1.0000 </r>
       <r>   -4.5911    1.0000 </r>
       <r>   -3.7493    1.0000 </r>
       <r>   -3.3776    1.0000 </r>
       <r>   -3.0163    1.0000 </r>
       <r>   -2.3401    1.0000 </r>
       <r>    0.4323    0.0000 </r>
       <r>    0.7893    0.0000 </r>
       <r>    1.0221    0.0000 </r>
       <r>    1.6799    0.0000 </r>
       <r>    3.1111    0.0000 </r>
       <r>    3.3613    0.0000 </r>
       <r>    4.0551    0.0000 </r>
       <r>    5.0211    0.0000 </r>
       <r>    5.2898    0.0000 </r>
      </set>
      <set comment="kpoint 8">
       <r>  -16.1472    1.0000 </r>
       <r>  -15.1451    1.0000 </r>
       <r>   -7.4923    1.0000 </r>
       <r>   -5.1251    1.0000 </r>
       <r>   -4.7526    1.0000 </r>
       <r>   -3.6529    1.0000 </r>
       <r>   -3.5095    1.0000 </r>
       <r>   -3.1021    1.0000 </r>
       <r>   -2.4052    1.0000 </r>
       <r>    0.2869    0.0000 </r>
       <r>    0.7742    0.0000 </r>
       <r>    0.9278    0.0000 </r>
       <r>    1.7990    0.0000 </r>
       <r>    3.2456    0.0000 </r>
       <r>    3.4984    0.0000 </r>
       <r>    4.1985    0.0000 </r>
       <r>    5.2360    0.0000 </r>
       <r>    5.4185    0.0000 </r>
      </set>
      <set comment="kpoint 9">
       <r>  -16.0316    1.0000 </r>
       <r>  -15.0818    1.0000 </r>
       <r>   -7.3543    1.0000 </r>
       <r>   -5.3805    1.0000 </r>
       <r>   -4.9288    1.0000 </r>
       <r>   -3.6447    1.0000 </r>
       <r>   -3.5475    1.0000 </r>
       <r>   -3.2056    1.0000 </r>
       <r>   -2.4911    1.0000 </r>
       <r>    0.1808    0.0000 </r>
       <r>    0.7993    0.0000 </r>
       <r>    0.8360    0.0000 </r>
       <r>    1.9165    0.0000 </r>
       <r>    3.3885    0.0000 </r>
       <r>    3.6533    0.0000 </r>
       <r>    4.3486    0.0000 </r>
       <r>    5.3988    0.0000 </r>
       <r>    5.5621    0.0000 </r>
      </set>
      <set comment="kpoint 10">
       <r>  -15.9048    1.0000 </r>
       <r>  -15.0127    1.0000 </r>
       <r>   -7.2124    1.0000 </r>
       <r>   -5.6377    1.0000 </r>
       <r>   -5.1185    1.0000 </r>
       <r>   -3.7797    1.0000 </r>
       <r>   -3.4361    1.0000 </r>
       <r>   -3.3182    1.0000 </r>
       <r>   -2.5946    1.0000 </r>
       <r>    0.1177    0.0000 </r>
       <r>    0.7511    0.0000 </r>
       <r>    0.8606    0.0000 </r>
       <r>    2.0285    0.0000 </r>
       <r>    3.5397    0.0000 </r>
       <r>    3.8246    0.0000 </r>
       <r>    4.5053    0.0000 </r>
       <r>    5.4905    0.0000 </r>
       <r>    5.7169    0.0000 </r>
      </set>
      <set comment="kpoint 11">
       <r>  -15.7685    1.0000 </r>
       <r>  -14.9389    1.0000 </r>
       <r>   -7.0781    1.0000 </r>
       <r>   -5.8850    1.0000 </r>
       <r>   -5.3197    1.0000 </r>
       <r>   -3.9116    1.0000 </r>
       <r>   -3.4315    1.0000 </r>
       <r>   -3.3215    1.0000 </r>
       <r>   -2.7080    1.0000 </r>
       <r>    0.0965    0.0000 </r>
       <r>    0.6771    0.0000 </r>
       <r>    0.9513    0.0000 </r>
       <r>    2.1320    0.0000 </r>
       <r>    3.6971    0.0000 </r>
       <r>    4.0106    0.0000 </r>
       <r>    4.6653    0.0000 </r>
       <r>    5.5083    0.0000 </r>
       <r>    5.8748    0.0000 </r>
      </set>
      <set comment="kpoint 12">
       <r>  -15.6248    1.0000 </r>
       <r>  -14.8617    1.0000 </r>
       <r>   -6.9749    1.0000 </r>
       <r>   -6.1002    1.0000 </r>
       <r>   -5.5291    1.0000 </r>
       <r>   -4.0381    1.0000 </r>
       <r>   -3.5387    1.0000 </r>
       <r>   -3.2073    1.0000 </r>
       <r>   -2.8207    1.0000 </r>
       <r>    0.1129    0.0000 </r>
       <r>    0.6170    0.0000 </r>
       <r>    1.0635    0.0000 </r>
       <r>    2.2254    0.0000 </r>
       <r>    3.8566    0.0000 </r>
       <r>    4.2086    0.0000 </r>
       <r>    4.8153    0.0000 </r>
       <r>    5.4675    0.0000 </r>
       <r>    6.0156    0.0000 </r>
      </set>
      <set comment="kpoint 13">
       <r>  -15.4762    1.0000 </r>
       <r>  -14.7826    1.0000 </r>
       <r>   -6.9507    1.0000 </r>
       <r>   -6.2377    1.0000 </r>
       <r>   -5.7422    1.0000 </r>
       <r>   -4.1571    1.0000 </r>
       <r>   -3.6355    1.0000 </r>
       <r>   -3.0967    1.0000 </r>
       <r>   -2.9208    1.0000 </r>
       <r>    0.1606    0.0000 </r>
       <r>    0.5734    0.0000 </r>
       <r>    1.1895    0.0000 </r>
       <r>    2.3074    0.0000 </r>
       <r>    4.0098    0.0000 </r>
       <r>    4.4145    0.0000 </r>
       <r>    4.9092    0.0000 </r>
       <r>    5.4238    0.0000 </r>
       <r>    6.0890    0.0000 </r>
      </set>
      <set comment="kpoint 14">
       <r>  -15.3255    1.0000 </r>
       <r>  -14.7032    1.0000 </r>
       <r>   -7.0471    1.0000 </r>
       <r>   -6.2586    1.0000 </r>
       <r>   -5.9535    1.0000 </r>
       <r>   -4.2670    1.0000 </r>
       <r>   -3.7197    1.0000 </r>
       <r>   -2.9981    1.0000 </r>
       <r>   -2.9925    1.0000 </r>
       <r>    0.2331    0.0000 </r>
       <r>    0.5476    0.0000 </r>
       <r>    1.3215    0.0000 </r>
       <r>    2.3779    0.0000 </r>
       <r>    4.1360    0.0000 </r>
       <r>    4.6219    0.0000 </r>
       <r>    4.8652    0.0000 </r>
       <r>    5.4850    0.0000 </r>
       <r>    6.0553    0.0000 </r>
      </set>
      <set comment="kpoint 15">
       <r>  -15.1762    1.0000 </r>
       <r>  -14.6256    1.0000 </r>
       <r>   -7.2241    1.0000 </r>
       <r>   -6.2051    1.0000 </r>
       <r>   -6.1573    1.0000 </r>
       <r>   -4.3665    1.0000 </r>
       <r>   -3.7909    1.0000 </r>
       <r>   -3.0425    1.0000 </r>
       <r>   -2.8993    1.0000 </r>
       <r>    0.3246    0.0000 </r>
       <r>    0.5397    0.0000 </r>
       <r>    1.4526    0.0000 </r>
       <r>    2.4372    0.0000 </r>
       <r>    4.1726    0.0000 </r>
       <r>    4.7578    0.0000 </r>
       <r>    4.8197    0.0000 </r>
       <r>    5.6523    0.0000 </r>
       <r>    5.9804    0.0000 </r>
      </set>
      <set comment="kpoint 16">
       <r>  -15.0322    1.0000 </r>
       <r>  -14.5518    1.0000 </r>
       <r>   -7.4247    1.0000 </r>
       <r>   -6.3477    1.0000 </r>
       <r>   -6.1342    1.0000 </r>
       <r>   -4.4547    1.0000 </r>
       <r>   -3.8495    1.0000 </r>
       <r>   -3.0520    1.0000 </r>
       <r>   -2.8176    1.0000 </r>
       <r>    0.4299    0.0000 </r>
       <r>    0.5479    0.0000 </r>
       <r>    1.5762    0.0000 </r>
       <r>    2.4858    0.0000 </r>
       <r>    4.0250    0.0000 </r>
       <r>    4.7579    0.0000 </r>
       <r>    4.9904    0.0000 </r>
       <r>    5.8682    0.0000 </r>
       <r>    5.9399    0.0000 </r>
      </set>
      <set comment="kpoint 17">
       <r>  -14.8978    1.0000 </r>
       <r>  -14.4840    1.0000 </r>
       <r>   -7.6201    1.0000 </r>
       <r>   -6.5193    1.0000 </r>
       <r>   -6.0717    1.0000 </r>
       <r>   -4.5305    1.0000 </r>
       <r>   -3.8964    1.0000 </r>
       <r>   -3.0277    1.0000 </r>
       <r>   -2.7493    1.0000 </r>
       <r>    0.5445    0.0000 </r>
       <r>    0.5692    0.0000 </r>
       <r>    1.6867    0.0000 </r>
       <r>    2.5247    0.0000 </r>
       <r>    3.7489    0.0000 </r>
       <r>    4.8514    0.0000 </r>
       <r>    5.1145    0.0000 </r>
       <r>    5.9700    0.0000 </r>
       <r>    6.1101    0.0000 </r>
      </set>
      <set comment="kpoint 18">
       <r>  -14.7781    1.0000 </r>
       <r>  -14.4245    1.0000 </r>
       <r>   -7.7957    1.0000 </r>
       <r>   -6.6672    1.0000 </r>
       <r>   -6.0252    1.0000 </r>
       <r>   -4.5935    1.0000 </r>
       <r>   -3.9327    1.0000 </r>
       <r>   -2.9777    1.0000 </r>
       <r>   -2.6947    1.0000 </r>
       <r>    0.5984    0.0000 </r>
       <r>    0.6645    0.0000 </r>
       <r>    1.7799    0.0000 </r>
       <r>    2.5549    0.0000 </r>
       <r>    3.4390    0.0000 </r>
       <r>    4.9702    0.0000 </r>
       <r>    5.1896    0.0000 </r>
       <r>    6.0684    0.0000 </r>
       <r>    6.3667    0.0000 </r>
      </set>
      <set comment="kpoint 19">
       <r>  -14.6779    1.0000 </r>
       <r>  -14.3754    1.0000 </r>
       <r>   -7.9422    1.0000 </r>
       <r>   -6.7870    1.0000 </r>
       <r>   -5.9947    1.0000 </r>
       <r>   -4.6429    1.0000 </r>
       <r>   -3.9597    1.0000 </r>
       <r>   -2.9149    1.0000 </r>
       <r>   -2.6535    1.0000 </r>
       <r>    0.6302    0.0000 </r>
       <r>    0.7835    0.0000 </r>
       <r>    1.8530    0.0000 </r>
       <r>    2.5772    0.0000 </r>
       <r>    3.1423    0.0000 </r>
       <r>    5.0879    0.0000 </r>
       <r>    5.2346    0.0000 </r>
       <r>    6.1981    0.0000 </r>
       <r>    6.6190    0.0000 </r>
      </set>
      <set comment="kpoint 20">
       <r>  -14.6021    1.0000 </r>
       <r>  -14.3388    1.0000 </r>
       <r>   -8.0523    1.0000 </r>
       <r>   -6.8753    1.0000 </r>
       <r>   -5.9768    1.0000 </r>
       <r>   -4.6785    1.0000 </r>
       <r>   -3.9782    1.0000 </r>
       <r>   -2.8546    1.0000 </r>
       <r>   -2.6250    1.0000 </r>
       <r>    0.6584    0.0000 </r>
       <r>    0.8920    0.0000 </r>
       <r>    1.9048    0.0000 </r>
       <r>    2.5926    0.0000 </r>
       <r>    2.8912    0.0000 </r>
       <r>    5.1901    0.0000 </r>
       <r>    5.2659    0.0000 </r>
       <r>    6.3148    0.0000 </r>
       <r>    6.8186    0.0000 </r>
      </set>
      <set comment="kpoint 21">
       <r>  -14.5548    1.0000 </r>
       <r>  -14.3162    1.0000 </r>
       <r>   -8.1206    1.0000 </r>
       <r>   -6.9294    1.0000 </r>
       <r>   -5.9679    1.0000 </r>
       <r>   -4.7000    1.0000 </r>
       <r>   -3.9890    1.0000 </r>
       <r>   -2.8114    1.0000 </r>
       <r>   -2.6083    1.0000 </r>
       <r>    0.6777    0.0000 </r>
       <r>    0.9729    0.0000 </r>
       <r>    1.9356    0.0000 </r>
       <r>    2.6015    0.0000 </r>
       <r>    2.7183    0.0000 </r>
       <r>    5.2619    0.0000 </r>
       <r>    5.2874    0.0000 </r>
       <r>    6.3890    0.0000 </r>
       <r>    6.9073    0.0000 </r>
      </set>
      <set comment="kpoint 22">
       <r>  -14.5387    1.0000 </r>
       <r>  -14.3085    1.0000 </r>
       <r>   -8.1438    1.0000 </r>
       <r>   -6.9476    1.0000 </r>
       <r>   -5.9653    1.0000 </r>
       <r>   -4.7071    1.0000 </r>
       <r>   -3.9926    1.0000 </r>
       <r>   -2.7958    1.0000 </r>
       <r>   -2.6028    1.0000 </r>
       <r>    0.6846    0.0000 </r>
       <r>    1.0037    0.0000 </r>
       <r>    1.9458    0.0000 </r>
       <r>    2.6044    0.0000 </r>
       <r>    2.6556    0.0000 </r>
       <r>    5.2881    0.0000 </r>
       <r>    5.2953    0.0000 </r>
       <r>    6.4131    0.0000 </r>
       <r>    6.9224    0.0000 </r>
      </set>
      <set comment="kpoint 23">
       <r>  -16.5390    1.0000 </r>
       <r>  -15.3613    1.0000 </r>
       <r>   -7.9933    1.0000 </r>
       <r>   -4.0687    1.0000 </r>
[...]
       <r>     7.7164     0.4988    35.7782 </r>
       <r>     7.7210     0.5044    35.7805 </r>
       <r>     7.7255     0.5092    35.7828 </r>
       <r>     7.7301     0.5131    35.7851 </r>
       <r>     7.7346     0.5161    35.7875 </r>
       <r>     7.7392     0.5182    35.7898 </r>
       <r>     7.7437     0.5195    35.7922 </r>
       <r>     7.7483     0.5199    35.7945 </r>
       <r>     7.7528     0.5196    35.7969 </r>
       <r>     7.7573     0.5185    35.7993 </r>
       <r>     7.7619     0.5167    35.8016 </r>
       <r>     7.7664     0.5143    35.8040 </r>
       <r>     7.7710     0.5115    35.8063 </r>
       <r>     7.7755     0.5081    35.8086 </r>
       <r>     7.7801     0.5044    35.8109 </r>
       <r>     7.7846     0.5005    35.8132 </r>
       <r>     7.7892     0.4963    35.8154 </r>
       <r>     7.7937     0.4921    35.8176 </r>
       <r>     7.7982     0.4878    35.8199 </r>
       <r>     7.8028     0.4836    35.8221 </r>
       <r>     7.8073     0.4796    35.8242 </r>
       <r>     7.8119     0.4757    35.8264 </r>
       <r>     7.8164     0.4720    35.8285 </r>
       <r>     7.8210     0.4687    35.8307 </r>
       <r>     7.8255     0.4657    35.8328 </r>
       <r>     7.8301     0.4630    35.8349 </r>
       <r>     7.8346     0.4607    35.8370 </r>
       <r>     7.8391     0.4588    35.8391 </r>
       <r>     7.8437     0.4572    35.8412 </r>
       <r>     7.8482     0.4560    35.8432 </r>
       <r>     7.8528     0.4552    35.8453 </r>
       <r>     7.8573     0.4547    35.8474 </r>
       <r>     7.8619     0.4544    35.8494 </r>
       <r>     7.8664     0.4545    35.8515 </r>
       <r>     7.8710     0.4547    35.8536 </r>
       <r>     7.8755     0.4551    35.8556 </r>
       <r>     7.8800     0.4556    35.8577 </r>
       <r>     7.8846     0.4562    35.8598 </r>
       <r>     7.8891     0.4569    35.8618 </r>
       <r>     7.8937     0.4575    35.8639 </r>
       <r>     7.8982     0.4581    35.8660 </r>
       <r>     7.9028     0.4586    35.8681 </r>
       <r>     7.9073     0.4589    35.8702 </r>
       <r>     7.9119     0.4591    35.8723 </r>
       <r>     7.9164     0.4591    35.8743 </r>
       <r>     7.9209     0.4589    35.8764 </r>
       <r>     7.9255     0.4585    35.8785 </r>
       <r>     7.9300     0.4578    35.8806 </r>
       <r>     7.9346     0.4569    35.8827 </r>
       <r>     7.9391     0.4558    35.8847 </r>
       <r>     7.9437     0.4544    35.8868 </r>
       <r>     7.9482     0.4528    35.8889 </r>
       <r>     7.9528     0.4509    35.8909 </r>
       <r>     7.9573     0.4489    35.8930 </r>
       <r>     7.9618     0.4467    35.8950 </r>
       <r>     7.9664     0.4444    35.8970 </r>
       <r>     7.9709     0.4418    35.8990 </r>
       <r>     7.9755     0.4392    35.9010 </r>
       <r>     7.9800     0.4365    35.9030 </r>
       <r>     7.9846     0.4338    35.9050 </r>
       <r>     7.9891     0.4309    35.9069 </r>
       <r>     7.9937     0.4281    35.9089 </r>
       <r>     7.9982     0.4253    35.9108 </r>
       <r>     8.0027     0.4224    35.9127 </r>
       <r>     8.0073     0.4196    35.9146 </r>
       <r>     8.0118     0.4168    35.9165 </r>
       <r>     8.0164     0.4141    35.9184 </r>
       <r>     8.0209     0.4115    35.9203 </r>
       <r>     8.0255     0.4088    35.9221 </r>
       <r>     8.0300     0.4063    35.9240 </r>
       <r>     8.0346     0.4038    35.9258 </r>
       <r>     8.0391     0.4013    35.9276 </r>
       <r>     8.0436     0.3989    35.9294 </r>
       <r>     8.0482     0.3965    35.9312 </r>
       <r>     8.0527     0.3941    35.9330 </r>
       <r>     8.0573     0.3917    35.9348 </r>
       <r>     8.0618     0.3893    35.9366 </r>
       <r>     8.0664     0.3869    35.9383 </r>
       <r>     8.0709     0.3844    35.9401 </r>
       <r>     8.0755     0.3819    35.9418 </r>
       <r>     8.0800     0.3793    35.9436 </r>
       <r>     8.0845     0.3767    35.9453 </r>
       <r>     8.0891     0.3740    35.9470 </r>
       <r>     8.0936     0.3711    35.9487 </r>
       <r>     8.0982     0.3681    35.9503 </r>
       <r>     8.1027     0.3650    35.9520 </r>
       <r>     8.1073     0.3618    35.9536 </r>
       <r>     8.1118     0.3584    35.9553 </r>
       <r>     8.1164     0.3548    35.9569 </r>
       <r>     8.1209     0.3511    35.9585 </r>
       <r>     8.1254     0.3472    35.9600 </r>
       <r>     8.1300     0.3430    35.9616 </r>
       <r>     8.1345     0.3387    35.9631 </r>
       <r>     8.1391     0.3341    35.9647 </r>
       <r>     8.1436     0.3293    35.9662 </r>
       <r>     8.1482     0.3243    35.9676 </r>
       <r>     8.1527     0.3190    35.9691 </r>
       <r>     8.1573     0.3134    35.9705 </r>
       <r>     8.1618     0.3076    35.9719 </r>
       <r>     8.1663     0.3015    35.9733 </r>
       <r>     8.1709     0.2952    35.9746 </r>
       <r>     8.1754     0.2886    35.9759 </r>
       <r>     8.1800     0.2817    35.9772 </r>
       <r>     8.1845     0.2745    35.9785 </r>
       <r>     8.1891     0.2671    35.9797 </r>
       <r>     8.1936     0.2595    35.9808 </r>
       <r>     8.1982     0.2516    35.9820 </r>
       <r>     8.2027     0.2435    35.9831 </r>
       <r>     8.2072     0.2353    35.9842 </r>
       <r>     8.2118     0.2268    35.9852 </r>
       <r>     8.2163     0.2182    35.9862 </r>
       <r>     8.2209     0.2094    35.9871 </r>
       <r>     8.2254     0.2006    35.9880 </r>
       <r>     8.2300     0.1917    35.9889 </r>
       <r>     8.2345     0.1827    35.9898 </r>
       <r>     8.2390     0.1737    35.9905 </r>
       <r>     8.2436     0.1648    35.9913 </r>
       <r>     8.2481     0.1559    35.9920 </r>
       <r>     8.2527     0.1471    35.9927 </r>
       <r>     8.2572     0.1385    35.9933 </r>
       <r>     8.2618     0.1300    35.9939 </r>
       <r>     8.2663     0.1216    35.9944 </r>
       <r>     8.2709     0.1135    35.9950 </r>
       <r>     8.2754     0.1056    35.9954 </r>
       <r>     8.2799     0.0980    35.9959 </r>
       <r>     8.2845     0.0907    35.9963 </r>
       <r>     8.2890     0.0836    35.9967 </r>
       <r>     8.2936     0.0769    35.9970 </r>
       <r>     8.2981     0.0705    35.9973 </r>
       <r>     8.3027     0.0644    35.9976 </r>
       <r>     8.3072     0.0586    35.9979 </r>
       <r>     8.3118     0.0532    35.9981 </r>
       <r>     8.3163     0.0482    35.9984 </r>
       <r>     8.3208     0.0434    35.9986 </r>
       <r>     8.3254     0.0391    35.9987 </r>
       <r>     8.3299     0.0350    35.9989 </r>
       <r>     8.3345     0.0312    35.9990 </r>
       <r>     8.3390     0.0278    35.9992 </r>
       <r>     8.3436     0.0247    35.9993 </r>
       <r>     8.3481     0.0218    35.9994 </r>
       <r>     8.3527     0.0192    35.9995 </r>
       <r>     8.3572     0.0168    35.9995 </r>
       <r>     8.3617     0.0147    35.9996 </r>
       <r>     8.3663     0.0128    35.9997 </r>
       <r>     8.3708     0.0112    35.9997 </r>
       <r>     8.3754     0.0096    35.9998 </r>
       <r>     8.3799     0.0083    35.9998 </r>
       <r>     8.3845     0.0071    35.9998 </r>
       <r>     8.3890     0.0061    35.9999 </r>
       <r>     8.3936     0.0052    35.9999 </r>
       <r>     8.3981     0.0044    35.9999 </r>
       <r>     8.4026     0.0038    35.9999 </r>
       <r>     8.4072     0.0032    35.9999 </r>
       <r>     8.4117     0.0027    35.9999 </r>
       <r>     8.4163     0.0022    36.0000 </r>
       <r>     8.4208     0.0019    36.0000 </r>
       <r>     8.4254     0.0015    36.0000 </r>
       <r>     8.4299     0.0013    36.0000 </r>
       <r>     8.4345     0.0011    36.0000 </r>
       <r>     8.4390     0.0009    36.0000 </r>
       <r>     8.4435     0.0007    36.0000 </r>
       <r>     8.4481     0.0006    36.0000 </r>
       <r>     8.4526     0.0005    36.0000 </r>
       <r>     8.4572     0.0004    36.0000 </r>
       <r>     8.4617     0.0003    36.0000 </r>
       <r>     8.4663     0.0002    36.0000 </r>
       <r>     8.4708     0.0002    36.0000 </r>
       <r>     8.4754     0.0002    36.0000 </r>
       <r>     8.4799     0.0001    36.0000 </r>
       <r>     8.4844     0.0001    36.0000 </r>
       <r>     8.4890     0.0001    36.0000 </r>
       <r>     8.4935     0.0001    36.0000 </r>
       <r>     8.4981     0.0000    36.0000 </r>
       <r>     8.5026     0.0000    36.0000 </r>
       <r>     8.5072     0.0000    36.0000 </r>
       <r>     8.5117     0.0000    36.0000 </r>
       <r>     8.5163     0.0000    36.0000 </r>
       <r>     8.5208     0.0000    36.0000 </r>
       <r>     8.5253     0.0000    36.0000 </r>
       <r>     8.5299     0.0000    36.0000 </r>
       <r>     8.5344     0.0000    36.0000 </r>
       <r>     8.5390     0.0000    36.0000 </r>
       <r>     8.5435     0.0000    36.0000 </r>
       <r>     8.5481     0.0000    36.0000 </r>
       <r>     8.5526     0.0000    36.0000 </r>
       <r>     8.5572     0.0000    36.0000 </r>
       <r>     8.5617     0.0000    36.0000 </r>
       <r>     8.5662     0.0000    36.0000 </r>
       <r>     8.5708     0.0000    36.0000 </r>
       <r>     8.5753     0.0000    36.0000 </r>
       <r>     8.5799     0.0000    36.0000 </r>
       <r>     8.5844     0.0000    36.0000 </r>
       <r>     8.5890     0.0000    36.0000 </r>
       <r>     8.5935     0.0000    36.0000 </r>
       <r>     8.5981     0.0000    36.0000 </r>
       <r>     8.6026     0.0000    36.0000 </r>
       <r>     8.6071     0.0000    36.0000 </r>
       <r>     8.6117     0.0000    36.0000 </r>
       <r>     8.6162     0.0000    36.0000 </r>
       <r>     8.6208     0.0000    36.0000 </r>
       <r>     8.6253     0.0000    36.0000 </r>
       <r>     8.6299     0.0000    36.0000 </r>
       <r>     8.6344     0.0000    36.0000 </r>
       <r>     8.6390     0.0000    36.0000 </r>
       <r>     8.6435     0.0000    36.0000 </r>
       <r>     8.6480     0.0000    36.0000 </r>
       <r>     8.6526     0.0000    36.0000 </r>
       <r>     8.6571     0.0000    36.0000 </r>
       <r>     8.6617     0.0000    36.0000 </r>
       <r>     8.6662     0.0000    36.0000 </r>
       <r>     8.6708     0.0000    36.0000 </r>
       <r>     8.6753     0.0000    36.0000 </r>
       <r>     8.6799     0.0000    36.0000 </r>
       <r>     8.6844     0.0000    36.0000 </r>
       <r>     8.6889     0.0000    36.0000 </r>
       <r>     8.6935     0.0000    36.0000 </r>
       <r>     8.6980     0.0000    36.0000 </r>
       <r>     8.7026     0.0000    36.0000 </r>
       <r>     8.7071     0.0000    36.0000 </r>
       <r>     8.7117     0.0000    36.0000 </r>
       <r>     8.7162     0.0000    36.0000 </r>
       <r>     8.7208     0.0000    36.0000 </r>
       <r>     8.7253     0.0000    36.0000 </r>
       <r>     8.7298     0.0000    36.0000 </r>
       <r>     8.7344     0.0000    36.0000 </r>
       <r>     8.7389     0.0000    36.0000 </r>
       <r>     8.7435     0.0000    36.0000 </r>
       <r>     8.7480     0.0000    36.0000 </r>
       <r>     8.7526     0.0000    36.0000 </r>
       <r>     8.7571     0.0000    36.0000 </r>
       <r>     8.7617     0.0000    36.0000 </r>
       <r>     8.7662     0.0000    36.0000 </r>
       <r>     8.7707     0.0000    36.0000 </r>
       <r>     8.7753     0.0000    36.0000 </r>
       <r>     8.7798     0.0000    36.0000 </r>
       <r>     8.7844     0.0000    36.0000 </r>
       <r>     8.7889     0.0000    36.0000 </r>
       <r>     8.7935     0.0000    36.0000 </r>
       <r>     8.7980     0.0000    36.0000 </r>
       <r>     8.8026     0.0000    36.0000 </r>
       <r>     8.8071     0.0000    36.0000 </r>
       <r>     8.8116     0.0000    36.0000 </r>
       <r>     8.8162     0.0000    36.0000 </r>
       <r>     8.8207     0.0000    36.0000 </r>
       <r>     8.8253     0.0000    36.0000 </r>
       <r>     8.8298     0.0000    36.0000 </r>
       <r>     8.8344     0.0000    36.0000 </r>
       <r>     8.8389     0.0000    36.0000 </r>
       <r>     8.8435     0.0000    36.0000 </r>
       <r>     8.8480     0.0000    36.0000 </r>
       <r>     8.8525     0.0000    36.0000 </r>
       <r>     8.8571     0.0000    36.0000 </r>
       <r>     8.8616     0.0000    36.0000 </r>
       <r>     8.8662     0.0000    36.0000 </r>
       <r>     8.8707     0.0000    36.0000 </r>
       <r>     8.8753     0.0000    36.0000 </r>
       <r>     8.8798     0.0000    36.0000 </r>
       <r>     8.8844     0.0000    36.0000 </r>
       <r>     8.8889     0.0000    36.0000 </r>
       <r>     8.8934     0.0000    36.0000 </r>
       <r>     8.8980     0.0000    36.0000 </r>
       <r>     8.9025     0.0000    36.0000 </r>
       <r>     8.9071     0.0000    36.0000 </r>
       <r>     8.9116     0.0000    36.0000 </r>
       <r>     8.9162     0.0000    36.0000 </r>
       <r>     8.9207     0.0000    36.0000 </r>
       <r>     8.9253     0.0000    36.0000 </r>
       <r>     8.9298     0.0000    36.0000 </r>
       <r>     8.9343     0.0000    36.0000 </r>
       <r>     8.9389     0.0000    36.0000 </r>
       <r>     8.9434     0.0000    36.0000 </r>
       <r>     8.9480     0.0000    36.0000 </r>
       <r>     8.9525     0.0000    36.0000 </r>
       <r>     8.9571     0.0000    36.0000 </r>
       <r>     8.9616     0.0000    36.0000 </r>
       <r>     8.9662     0.0000    36.0000 </r>
       <r>     8.9707     0.0000    36.0000 </r>
       <r>     8.9752     0.0000    36.0000 </r>
       <r>     8.9798     0.0000    36.0000 </r>
       <r>     8.9843     0.0000    36.0000 </r>
       <r>     8.9889     0.0000    36.0000 </r>
       <r>     8.9934     0.0000    36.0000 </r>
       <r>     8.9980     0.0000    36.0000 </r>
       <r>     9.0025     0.0000    36.0000 </r>
       <r>     9.0071     0.0000    36.0000 </r>
       <r>     9.0116     0.0000    36.0000 </r>
       <r>     9.0161     0.0000    36.0000 </r>
       <r>     9.0207     0.0000    36.0000 </r>
       <r>     9.0252     0.0000    36.0000 </r>
       <r>     9.0298     0.0000    36.0000 </r>
       <r>     9.0343     0.0000    36.0000 </r>
       <r>     9.0389     0.0000    36.0000 </r>
       <r>     9.0434     0.0000    36.0000 </r>
       <r>     9.0480     0.0000    36.0000 </r>
       <r>     9.0525     0.0000    36.0000 </r>
       <r>     9.0570     0.0000    36.0000 </r>
       <r>     9.0616     0.0000    36.0000 </r>
       <r>     9.0661     0.0000    36.0000 </r>
       <r>     9.0707     0.0000    36.0000 </r>
       <r>     9.0752     0.0000    36.0000 </r>
       <r>     9.0798     0.0000    36.0000 </r>
       <r>     9.0843     0.0000    36.0000 </r>
       <r>     9.0889     0.0000    36.0000 </r>
       <r>     9.0934     0.0000    36.0000 </r>
       <r>     9.0979     0.0000    36.0000 </r>
       <r>     9.1025     0.0000    36.0000 </r>
       <r>     9.1070     0.0000    36.0000 </r>
       <r>     9.1116     0.0000    36.0000 </r>
       <r>     9.1161     0.0000    36.0000 </r>
       <r>     9.1207     0.0000    36.0000 </r>
       <r>     9.1252     0.0000    36.0000 </r>
       <r>     9.1298     0.0000    36.0000 </r>
       <r>     9.1343     0.0000    36.0000 </r>
       <r>     9.1388     0.0000    36.0000 </r>
       <r>     9.1434     0.0000    36.0000 </r>
       <r>     9.1479     0.0000    36.0000 </r>
       <r>     9.1525     0.0000    36.0000 </r>
       <r>     9.1570     0.0000    36.0000 </r>
       <r>     9.1616     0.0000    36.0000 </r>
       <r>     9.1661     0.0000    36.0000 </r>
       <r>     9.1707     0.0000    36.0000 </r>
       <r>     9.1752     0.0000    36.0000 </r>
       <r>     9.1797     0.0000    36.0000 </r>
       <r>     9.1843     0.0000    36.0000 </r>
       <r>     9.1888     0.0000    36.0000 </r>
       <r>     9.1934     0.0000    36.0000 </r>
       <r>     9.1979     0.0000    36.0000 </r>
       <r>     9.2025     0.0000    36.0000 </r>
       <r>     9.2070     0.0000    36.0000 </r>
       <r>     9.2116     0.0000    36.0000 </r>
       <r>     9.2161     0.0000    36.0000 </r>
       <r>     9.2206     0.0000    36.0000 </r>
       <r>     9.2252     0.0000    36.0000 </r>
       <r>     9.2297     0.0000    36.0000 </r>
       <r>     9.2343     0.0000    36.0000 </r>
       <r>     9.2388     0.0000    36.0000 </r>
       <r>     9.2434     0.0000    36.0000 </r>
       <r>     9.2479     0.0000    36.0000 </r>
       <r>     9.2525     0.0000    36.0000 </r>
       <r>     9.2570     0.0000    36.0000 </r>
       <r>     9.2615     0.0000    36.0000 </r>
       <r>     9.2661     0.0000    36.0000 </r>
       <r>     9.2706     0.0000    36.0000 </r>
       <r>     9.2752     0.0000    36.0000 </r>
       <r>     9.2797     0.0000    36.0000 </r>
       <r>     9.2843     0.0000    36.0000 </r>
       <r>     9.2888     0.0000    36.0000 </r>
       <r>     9.2934     0.0000    36.0000 </r>
       <r>     9.2979     0.0000    36.0000 </r>
       <r>     9.3024     0.0000    36.0000 </r>
       <r>     9.3070     0.0000    36.0000 </r>
       <r>     9.3115     0.0000    36.0000 </r>
       <r>     9.3161     0.0000    36.0000 </r>
       <r>     9.3206     0.0000    36.0000 </r>
       <r>     9.3252     0.0000    36.0000 </r>
       <r>     9.3297     0.0000    36.0000 </r>
       <r>     9.3343     0.0000    36.0000 </r>
       <r>     9.3388     0.0000    36.0000 </r>
       <r>     9.3433     0.0000    36.0000 </r>
       <r>     9.3479     0.0000    36.0000 </r>
       <r>     9.3524     0.0000    36.0000 </r>
       <r>     9.3570     0.0000    36.0000 </r>
       <r>     9.3615     0.0000    36.0000 </r>
       <r>     9.3661     0.0000    36.0000 </r>
       <r>     9.3706     0.0000    36.0000 </r>
       <r>     9.3752     0.0000    36.0000 </r>
       <r>     9.3797     0.0000    36.0000 </r>
       <r>     9.3842     0.0000    36.0000 </r>
       <r>     9.3888     0.0000    36.0000 </r>
       <r>     9.3933     0.0000    36.0000 </r>
       <r>     9.3979     0.0000    36.0000 </r>
       <r>     9.4024     0.0000    36.0000 </r>
       <r>     9.4070     0.0000    36.0000 </r>
       <r>     9.4115     0.0000    36.0000 </r>
       <r>     9.4161     0.0000    36.0000 </r>
       <r>     9.4206     0.0000    36.0000 </r>
       <r>     9.4251     0.0000    36.0000 </r>
       <r>     9.4297     0.0000    36.0000 </r>
       <r>     9.4342     0.0000    36.0000 </r>
       <r>     9.4388     0.0000    36.0000 </r>
       <r>     9.4433     0.0000    36.0000 </r>
       <r>     9.4479     0.0000    36.0000 </r>
       <r>     9.4524     0.0000    36.0000 </r>
       <r>     9.4570     0.0000    36.0000 </r>
       <r>     9.4615     0.0000    36.0000 </r>
       <r>     9.4660     0.0000    36.0000 </r>
       <r>     9.4706     0.0000    36.0000 </r>
       <r>     9.4751     0.0000    36.0000 </r>
       <r>     9.4797     0.0000    36.0000 </r>
      </set>
     </set>
    </array>
   </total>
  </dos>
 </calculation>
 <structure name="finalpos" >
  <crystal>
   <varray name="basis" >
    <v>       3.28200000       0.00000000       0.00000000 </v>
    <v>       1.64100000       2.84048000       0.00000000 </v>
    <v>       0.00000000       0.00000000      20.00000000 </v>
   </varray>
   <i name="volume">    186.44910720 </i>
   <varray name="rec_basis" >
    <v>       0.30469226      -0.17602659       0.00000000 </v>
    <v>       0.00000000       0.35205317       0.00000000 </v>
    <v>       0.00000000       0.00000000       0.05000000 </v>
   </varray>
  </crystal>
  <varray name="positions" >
   <v>       0.99990000       0.00020000       0.00000000 </v>
   <v>       0.33327700       0.33344600       0.91545900 </v>
   <v>       0.33327700       0.33344600       0.08454100 </v>
  </varray>
 </structure>
</modeling>
