W-1, se-2                               
           1
     3.282000    0.000000    0.000000
     1.641000    2.840480    0.000000
     0.000000    0.000000   20.000000
   W    Se
   1   2
Direct configuration=     1
   0.99990000  0.00020000  0.00000000
   0.33327700  0.33344600  0.91545900
   0.33327700  0.33344600  0.08454100
