   2   2   0   0
  0.5238761E+02  0.2459512E-09  0.2459512E-09  0.2000000E-08  0.5000000E-15
  1.000000000000000E-004
  CAR 
 C:graphene                              
     11.84391093    -23.92498154  301     -2.72501324      1.00000000
    -23.925  0.0000E+00  0.0000E+00
    -23.806  0.0000E+00  0.0000E+00
    -23.687  0.0000E+00  0.0000E+00
    -23.567  0.0000E+00  0.0000E+00
    -23.448  0.0000E+00  0.0000E+00
    -23.329  0.0000E+00  0.0000E+00
    -23.210  0.0000E+00  0.0000E+00
    -23.090  0.0000E+00  0.0000E+00
    -22.971  0.0000E+00  0.0000E+00
    -22.852  0.0000E+00  0.0000E+00
    -22.733  0.0000E+00  0.0000E+00
    -22.613  0.0000E+00  0.0000E+00
    -22.494  0.0000E+00  0.0000E+00
    -22.375  0.0000E+00  0.0000E+00
    -22.256  0.6729E-03  0.8023E-04
    -22.137  0.1614E-02  0.5893E-03
    -22.017  0.2853E-02  0.1077E-02
    -21.898  0.5704E-02  0.1757E-02
    -21.779  0.2853E-02  0.2098E-02
    -21.660  0.7575E-03  0.2188E-02
    -21.540  0.5706E-02  0.3118E-02
    -21.421  0.2847E-02  0.3457E-02
    -21.302  0.1256E-04  0.3460E-02
    -21.183  0.8525E-03  0.4240E-02
    -21.063  0.0000E+00  0.4819E-02
    -20.944  0.2841E-02  0.5157E-02
    -20.825  0.2863E-02  0.5500E-02
    -20.706  0.0000E+00  0.6179E-02
    -20.587  0.5706E-02  0.6859E-02
    -20.467  0.0000E+00  0.6859E-02
    -20.348  0.2887E-02  0.7204E-02
    -20.229  0.1719E-02  0.8085E-02
    -20.110  0.0000E+00  0.8560E-02
    -19.990  0.5704E-02  0.9240E-02
    -19.871  0.0000E+00  0.9240E-02
    -19.752  0.2068E-02  0.9487E-02
    -19.633  0.8558E-02  0.1060E-01
    -19.513  0.5706E-02  0.1128E-01
    -19.394  0.0000E+00  0.1128E-01
    -19.275  0.5586E-02  0.1195E-01
    -19.156  0.0000E+00  0.1196E-01
    -19.037  0.5706E-02  0.1264E-01
    -18.917  0.8478E-02  0.1365E-01
    -18.798  0.2091E-04  0.1366E-01
    -18.679  0.0000E+00  0.1434E-01
    -18.560  0.0000E+00  0.1434E-01
    -18.440  0.5706E-02  0.1502E-01
    -18.321  0.7431E-02  0.1591E-01
    -18.202  0.2046E-05  0.1604E-01
    -18.083  0.1214E-02  0.1687E-01
    -17.963  0.9827E-07  0.1706E-01
    -17.844  0.0000E+00  0.1774E-01
    -17.725  0.0000E+00  0.1774E-01
    -17.606  0.3425E-02  0.1815E-01
    -17.487  0.5239E-02  0.1973E-01
    -17.367  0.5234E-13  0.1978E-01
    -17.248  0.5853E-02  0.2048E-01
    -17.129  0.8804E-08  0.2080E-01
    -17.010  0.3964E-05  0.2149E-01
    -16.890  0.0000E+00  0.2183E-01
    -16.771  0.2884E-02  0.2217E-01
    -16.652  0.8557E-02  0.2387E-01
    -16.533  0.0000E+00  0.2387E-01
    -16.414  0.0000E+00  0.2387E-01
    -16.294  0.0000E+00  0.2387E-01
    -16.175  0.6878E-04  0.2387E-01
    -16.056  0.3167E-18  0.2421E-01
    -15.937  0.8558E-02  0.2523E-01
    -15.817  0.1825E-13  0.2523E-01
    -15.698  0.4902E-02  0.2581E-01
    -15.579  0.5706E-02  0.2659E-01
    -15.460  0.0000E+00  0.2659E-01
    -15.340  0.6790E-03  0.2667E-01
    -15.221  0.1426E-01  0.2851E-01
    -15.102  0.0000E+00  0.2851E-01
    -14.983  0.5706E-02  0.2920E-01
    -14.864  0.5706E-02  0.2988E-01
    -14.744  0.2849E-02  0.3021E-01
    -14.625  0.9632E-02  0.3136E-01
    -14.506  0.0000E+00  0.3158E-01
    -14.387  0.3167E-18  0.3158E-01
    -14.267  0.5720E-02  0.3226E-01
    -14.148  0.5678E-02  0.3327E-01
    -14.029  0.0000E+00  0.3328E-01
    -13.910  0.5706E-02  0.3396E-01
    -13.790  0.0000E+00  0.3396E-01
    -13.671  0.5706E-02  0.3464E-01
    -13.552  0.2853E-02  0.3498E-01
    -13.433  0.5706E-02  0.3566E-01
    -13.314  0.9364E-03  0.3577E-01
    -13.194  0.0000E+00  0.3645E-01
    -13.075  0.0000E+00  0.3645E-01
    -12.956  0.1131E-01  0.3780E-01
    -12.837  0.2884E-02  0.3816E-01
    -12.717  0.0000E+00  0.3883E-01
    -12.598  0.2853E-02  0.3917E-01
    -12.479  0.0000E+00  0.3917E-01
    -12.360  0.2744E-02  0.3950E-01
    -12.240  0.1408E-01  0.4119E-01
    -12.121  0.0000E+00  0.4189E-01
    -12.002  0.0000E+00  0.4189E-01
    -11.883  0.5706E-02  0.4257E-01
    -11.764  0.3039E-08  0.4257E-01
    -11.644  0.5705E-02  0.4393E-01
    -11.525  0.0000E+00  0.4393E-01
    -11.406  0.8626E-03  0.4404E-01
    -11.287  0.2877E-02  0.4530E-01
    -11.167  0.1584E-18  0.4598E-01
    -11.048  0.8558E-02  0.4700E-01
    -10.929  0.5706E-02  0.4768E-01
    -10.810  0.0000E+00  0.4768E-01
    -10.690  0.0000E+00  0.4768E-01
    -10.571  0.5645E-02  0.4835E-01
    -10.452  0.1141E-01  0.5074E-01
    -10.333  0.3434E-02  0.5115E-01
    -10.214  0.7917E-04  0.5182E-01
    -10.094  0.2853E-02  0.5249E-01
     -9.975  0.5706E-02  0.5317E-01
     -9.856  0.8724E-02  0.5490E-01
     -9.737  0.2853E-02  0.5624E-01
     -9.617  0.9071E-02  0.5800E-01
     -9.498  0.7027E-02  0.5911E-01
     -9.379  0.6397E-03  0.5971E-01
     -9.260  0.8695E-02  0.6101E-01
     -9.141  0.1296E-01  0.6322E-01
     -9.021  0.1418E-01  0.6575E-01
     -8.902  0.1096E-11  0.6576E-01
     -8.783  0.1708E-01  0.6780E-01
     -8.664  0.2852E-02  0.6882E-01
     -8.544  0.7245E-07  0.6984E-01
     -8.425  0.1144E-01  0.7155E-01
     -8.306  0.1109E-17  0.7188E-01
     -8.187  0.5706E-02  0.7256E-01
     -8.067  0.1797E-01  0.7470E-01
     -7.948  0.5321E-02  0.7592E-01
     -7.829  0.2853E-02  0.7630E-01
     -7.710  0.5635E-02  0.7698E-01
     -7.591  0.2853E-02  0.7800E-01
     -7.471  0.2853E-02  0.7902E-01
     -7.352  0.1111E-01  0.8035E-01
     -7.233  0.3963E-08  0.8039E-01
     -7.114  0.6205E-02  0.8181E-01
     -6.994  0.8558E-02  0.8311E-01
     -6.875  0.5706E-02  0.8379E-01
     -6.756  0.0000E+00  0.8379E-01
     -6.637  0.7754E-02  0.8471E-01
     -6.517  0.1570E-01  0.8668E-01
     -6.398  0.2160E-04  0.8685E-01
     -6.279  0.0000E+00  0.8787E-01
     -6.160  0.2853E-02  0.8821E-01
     -6.041  0.8558E-02  0.8923E-01
     -5.921  0.2853E-02  0.8957E-01
     -5.802  0.8558E-02  0.9093E-01
     -5.683  0.9509E-02  0.9206E-01
     -5.564  0.5409E-02  0.9271E-01
     -5.444  0.0000E+00  0.9274E-01
     -5.325  0.5706E-02  0.9342E-01
     -5.206  0.1194E-04  0.9343E-01
     -5.087  0.3971E-05  0.9376E-01
     -4.967  0.1712E-01  0.9683E-01
     -4.848  0.0000E+00  0.9683E-01
     -4.729  0.0000E+00  0.9683E-01
     -4.610  0.2853E-02  0.9717E-01
     -4.491  0.0000E+00  0.9717E-01
     -4.371  0.5706E-02  0.9785E-01
     -4.252  0.5852E-02  0.9854E-01
     -4.133  0.0000E+00  0.9887E-01
     -4.014  0.0000E+00  0.9887E-01
     -3.894  0.3192E-04  0.9887E-01
     -3.775  0.0000E+00  0.9921E-01
     -3.656  0.0000E+00  0.9921E-01
     -3.537  0.4441E-08  0.9921E-01
     -3.417  0.0000E+00  0.9989E-01
     -3.298  0.0000E+00  0.9989E-01
     -3.179  0.0000E+00  0.9989E-01
     -3.060  0.0000E+00  0.9989E-01
     -2.941  0.0000E+00  0.9989E-01
     -2.821  0.0000E+00  0.9989E-01
     -2.702  0.1901E-02  0.1001E+00
     -2.583  0.0000E+00  0.1001E+00
     -2.464  0.0000E+00  0.1001E+00
     -2.344  0.0000E+00  0.1001E+00
     -2.225  0.0000E+00  0.1001E+00
     -2.106  0.0000E+00  0.1001E+00
     -1.987  0.2822E-04  0.1001E+00
     -1.867  0.0000E+00  0.1008E+00
     -1.748  0.0000E+00  0.1008E+00
     -1.629  0.2853E-02  0.1011E+00
     -1.510  0.0000E+00  0.1011E+00
     -1.391  0.0000E+00  0.1011E+00
     -1.271  0.1563E-03  0.1012E+00
     -1.152  0.5706E-02  0.1032E+00
     -1.033  0.2849E-02  0.1035E+00
     -0.914  0.8552E-02  0.1045E+00
     -0.794  0.2100E-03  0.1046E+00
     -0.675  0.7518E-07  0.1052E+00
     -0.556  0.4079E-04  0.1059E+00
     -0.437  0.0000E+00  0.1066E+00
     -0.318  0.5706E-02  0.1073E+00
     -0.198  0.6477E-02  0.1080E+00
     -0.079  0.0000E+00  0.1083E+00
      0.040  0.0000E+00  0.1083E+00
      0.159  0.4721E-02  0.1088E+00
      0.279  0.1364E-11  0.1090E+00
      0.398  0.5706E-02  0.1096E+00
      0.517  0.5792E-02  0.1103E+00
      0.636  0.5706E-02  0.1111E+00
      0.756  0.2751E-02  0.1114E+00
      0.875  0.8558E-02  0.1124E+00
      0.994  0.2853E-02  0.1128E+00
      1.113  0.5706E-02  0.1134E+00
      1.232  0.2853E-02  0.1138E+00
      1.352  0.6181E-02  0.1145E+00
      1.471  0.7672E-02  0.1154E+00
      1.590  0.1426E-01  0.1176E+00
      1.709  0.3260E-02  0.1183E+00
      1.829  0.2947E-02  0.1187E+00
      1.948  0.8557E-02  0.1204E+00
      2.067  0.1105E-01  0.1217E+00
      2.186  0.6008E-06  0.1224E+00
      2.306  0.5683E-02  0.1244E+00
      2.425  0.5706E-02  0.1251E+00
      2.544  0.1141E-01  0.1265E+00
      2.663  0.6558E-02  0.1279E+00
      2.782  0.7326E-02  0.1298E+00
      2.902  0.1748E-01  0.1324E+00
      3.021  0.0000E+00  0.1327E+00
      3.140  0.1157E-01  0.1340E+00
      3.259  0.5903E-02  0.1354E+00
      3.379  0.1438E-01  0.1381E+00
      3.498  0.2707E-02  0.1391E+00
      3.617  0.1426E-01  0.1412E+00
      3.736  0.8452E-02  0.1428E+00
      3.856  0.8558E-02  0.1439E+00
      3.975  0.1174E-09  0.1439E+00
      4.094  0.2146E-01  0.1471E+00
      4.213  0.1238E-01  0.1491E+00
      4.332  0.5697E-02  0.1503E+00
      4.452  0.5639E-02  0.1510E+00
      4.571  0.7622E-02  0.1526E+00
      4.690  0.1141E-01  0.1548E+00
      4.809  0.5702E-02  0.1554E+00
      4.929  0.1175E-01  0.1572E+00
      5.048  0.8607E-02  0.1595E+00
      5.167  0.1040E-01  0.1618E+00
      5.286  0.8721E-02  0.1629E+00
      5.406  0.1141E-01  0.1646E+00
      5.525  0.1731E-03  0.1646E+00
      5.644  0.5710E-02  0.1660E+00
      5.763  0.6324E-02  0.1674E+00
      5.882  0.1141E-01  0.1694E+00
      6.002  0.8558E-02  0.1704E+00
      6.121  0.8558E-02  0.1714E+00
      6.240  0.2220E-02  0.1717E+00
      6.359  0.0000E+00  0.1735E+00
      6.479  0.8558E-02  0.1745E+00
      6.598  0.7526E-10  0.1745E+00
      6.717  0.2033E-01  0.1769E+00
      6.836  0.1134E-01  0.1786E+00
      6.955  0.0000E+00  0.1786E+00
      7.075  0.5495E-02  0.1792E+00
      7.194  0.5706E-02  0.1806E+00
      7.313  0.9119E-02  0.1817E+00
      7.432  0.5706E-02  0.1827E+00
      7.552  0.3039E-02  0.1837E+00
      7.671  0.5704E-02  0.1847E+00
      7.790  0.2849E-02  0.1850E+00
      7.909  0.6257E-02  0.1858E+00
      8.029  0.2238E-01  0.1892E+00
      8.148  0.2968E-14  0.1896E+00
      8.267  0.1224E-01  0.1910E+00
      8.386  0.5706E-02  0.1923E+00
      8.505  0.3377E-02  0.1927E+00
      8.625  0.1301E-01  0.1949E+00
      8.744  0.1312E-03  0.1954E+00
      8.863  0.2853E-02  0.1964E+00
      8.982  0.1221E-09  0.1964E+00
      9.102  0.9509E-03  0.1967E+00
      9.221  0.2853E-02  0.1971E+00
      9.340  0.5706E-02  0.1977E+00
      9.459  0.3157E-02  0.1981E+00
      9.579  0.2853E-02  0.1988E+00
      9.698  0.0000E+00  0.1988E+00
      9.817  0.2853E-02  0.1991E+00
      9.936  0.0000E+00  0.1991E+00
     10.055  0.0000E+00  0.1991E+00
     10.175  0.2942E-07  0.1991E+00
     10.294  0.1902E-02  0.2000E+00
     10.413  0.0000E+00  0.2000E+00
     10.532  0.0000E+00  0.2000E+00
     10.652  0.0000E+00  0.2000E+00
     10.771  0.0000E+00  0.2000E+00
     10.890  0.0000E+00  0.2000E+00
     11.009  0.0000E+00  0.2000E+00
     11.129  0.0000E+00  0.2000E+00
     11.248  0.0000E+00  0.2000E+00
     11.367  0.0000E+00  0.2000E+00
     11.486  0.0000E+00  0.2000E+00
     11.605  0.0000E+00  0.2000E+00
     11.725  0.0000E+00  0.2000E+00
     11.844  0.0000E+00  0.2000E+00
