       N       E                     dE             d eps       ncg     rms          rms(c)
DAV:   1     0.564351203241E+02    0.56435E+02   -0.36865E+03  3536   0.102E+03
DAV:   2    -0.148789623070E+02   -0.71314E+02   -0.55461E+02  5296   0.130E+02
DAV:   3    -0.196399633271E+02   -0.47610E+01   -0.47278E+01  5136   0.537E+01
DAV:   4    -0.196778860452E+02   -0.37923E-01   -0.37923E-01  5592   0.480E+00
DAV:   5    -0.196781692229E+02   -0.28318E-03   -0.28318E-03  5288   0.207E-01    0.645E+00
DAV:   6    -0.187254043862E+02    0.95276E+00   -0.93105E-01  4744   0.707E+00    0.378E+00
DAV:   7    -0.183596385487E+02    0.36577E+00   -0.12178E+00  5360   0.790E+00    0.100E+00
DAV:   8    -0.183503350054E+02    0.93035E-02   -0.13637E-02  6072   0.114E+00    0.123E-01
DAV:   9    -0.183490981512E+02    0.12369E-02   -0.53398E-04  5368   0.168E-01    0.884E-02
DAV:  10    -0.183446093816E+02    0.44888E-02   -0.33803E-03  5280   0.298E-01    0.671E-02
DAV:  11    -0.183431908874E+02    0.14185E-02   -0.37221E-04  4872   0.107E-01    0.374E-02
DAV:  12    -0.183427403077E+02    0.45058E-03   -0.36754E-04  4440   0.109E-01    0.229E-02
DAV:  13    -0.183439264235E+02   -0.11861E-02   -0.93545E-04  5032   0.151E-01    0.350E-02
DAV:  14    -0.183437648936E+02    0.16153E-03   -0.41478E-05  4320   0.323E-02    0.201E-02
DAV:  15    -0.183439658705E+02   -0.20098E-03   -0.18739E-04  4496   0.845E-02    0.270E-02
DAV:  16    -0.183441613038E+02   -0.19543E-03   -0.29872E-05  4904   0.398E-02    0.233E-02
DAV:  17    -0.183442800801E+02   -0.11878E-03   -0.47261E-06  4344   0.193E-02    0.906E-03
DAV:  18    -0.183443954770E+02   -0.11540E-03   -0.26143E-06  4104   0.129E-02    0.417E-03
DAV:  19    -0.183444023434E+02   -0.68664E-05   -0.43879E-07  4824   0.433E-03    0.155E-03
DAV:  20    -0.183444109863E+02   -0.86429E-05   -0.13220E-07  4288   0.227E-03    0.485E-04
DAV:  21    -0.183444112611E+02   -0.27475E-06   -0.18654E-09  5728   0.379E-04    0.155E-04
DAV:  22    -0.183444115952E+02   -0.33407E-06   -0.38768E-09  4600   0.301E-04    0.243E-05
DAV:  23    -0.183444116077E+02   -0.12502E-07   -0.36753E-11  5952   0.482E-05    0.135E-05
DAV:  24    -0.183444116212E+02   -0.13589E-07   -0.26865E-11  4704   0.346E-05    0.403E-06
DAV:  25    -0.183444116223E+02   -0.10941E-08    0.10117E-11  4904   0.881E-06
   1 F= -.18344412E+02 E0= -.18344412E+02  d E =-.183444E+02
       N       E                     dE             d eps       ncg     rms          rms(c)
DAV:   1    -0.166795119184E+02    0.16649E+01   -0.17878E+02  3752   0.129E+02    0.322E+00
DAV:   2    -0.167501975901E+02   -0.70686E-01   -0.27355E+00  5576   0.165E+01    0.191E+00
DAV:   3    -0.166540231729E+02    0.96174E-01   -0.20786E-01  4232   0.404E+00    0.487E-01
DAV:   4    -0.166524286241E+02    0.15945E-02   -0.28338E-02  5736   0.149E+00    0.173E-01
DAV:   5    -0.166522033894E+02    0.22523E-03   -0.14682E-03  4568   0.349E-01    0.353E-02
DAV:   6    -0.166522133133E+02   -0.99239E-05   -0.79774E-05  5304   0.833E-02    0.208E-02
DAV:   7    -0.166522186445E+02   -0.53312E-05   -0.60953E-06  4616   0.205E-02    0.376E-03
DAV:   8    -0.166522214654E+02   -0.28208E-05   -0.31656E-07  4272   0.569E-03    0.118E-03
DAV:   9    -0.166522254228E+02   -0.39574E-05   -0.46021E-07  4040   0.477E-03    0.174E-03
DAV:  10    -0.166522273937E+02   -0.19709E-05   -0.46569E-07  4552   0.362E-03    0.935E-04
DAV:  11    -0.166522255868E+02    0.18069E-05   -0.11565E-06  4280   0.396E-03    0.363E-04
DAV:  12    -0.166522289182E+02   -0.33314E-05   -0.51843E-08  5480   0.108E-03    0.530E-04
DAV:  13    -0.166522355254E+02   -0.66072E-05   -0.52270E-07  4744   0.236E-03    0.713E-04
DAV:  14    -0.166522386377E+02   -0.31123E-05   -0.84458E-08  4488   0.128E-03    0.425E-04
DAV:  15    -0.166522393347E+02   -0.69693E-06   -0.63059E-09  4536   0.343E-04    0.253E-04
DAV:  16    -0.166522399467E+02   -0.61202E-06   -0.10243E-08  4152   0.462E-04    0.825E-05
DAV:  17    -0.166522399977E+02   -0.51063E-07   -0.48933E-10  4800   0.111E-04    0.153E-05
DAV:  18    -0.166522400125E+02   -0.14779E-07   -0.12283E-10  4392   0.410E-05    0.600E-06
DAV:  19    -0.166522400230E+02   -0.10437E-07   -0.44811E-11  3968   0.295E-05    0.320E-06
DAV:  20    -0.166522400246E+02   -0.16453E-08    0.64141E-12  4912   0.883E-06
   2 F= -.16652240E+02 E0= -.16652227E+02  d E =0.169217E+01
       N       E                     dE             d eps       ncg     rms          rms(c)
DAV:   1    -0.185773183831E+02   -0.19251E+01   -0.12475E+02  3696   0.104E+02    0.266E+00
DAV:   2    -0.185247215575E+02    0.52597E-01   -0.11304E+00  5656   0.113E+01    0.158E+00
DAV:   3    -0.184657737684E+02    0.58948E-01   -0.10768E-01  4992   0.332E+00    0.473E-01
DAV:   4    -0.184637980971E+02    0.19757E-02   -0.24566E-02  5440   0.144E+00    0.106E-01
DAV:   5    -0.184638117571E+02   -0.13660E-04   -0.13122E-03  4960   0.361E-01    0.349E-02
DAV:   6    -0.184638135016E+02   -0.17445E-05   -0.55117E-05  4632   0.808E-02    0.958E-03
DAV:   7    -0.184638147958E+02   -0.12942E-05   -0.60746E-06  4704   0.263E-02    0.313E-03
DAV:   8    -0.184638185521E+02   -0.37563E-05   -0.13401E-06  4080   0.969E-03    0.163E-03
DAV:   9    -0.184638212434E+02   -0.26913E-05   -0.96261E-07  4024   0.530E-03    0.104E-03
DAV:  10    -0.184638191637E+02    0.20797E-05   -0.67320E-07  4208   0.393E-03    0.198E-03
DAV:  11    -0.184638166605E+02    0.25032E-05   -0.21630E-07  4848   0.387E-03    0.108E-03
DAV:  12    -0.184638155065E+02    0.11540E-05   -0.83481E-08  5040   0.180E-03    0.945E-04
DAV:  13    -0.184638157724E+02   -0.26596E-06   -0.15856E-07  4240   0.169E-03    0.372E-04
DAV:  14    -0.184638172939E+02   -0.15215E-05   -0.53877E-08  4040   0.161E-03    0.308E-04
DAV:  15    -0.184638181497E+02   -0.85578E-06   -0.98185E-09  4576   0.655E-04    0.373E-04
DAV:  16    -0.184638186347E+02   -0.48499E-06   -0.71271E-09  4896   0.544E-04    0.410E-05
DAV:  17    -0.184638187404E+02   -0.10575E-06   -0.95046E-10  4768   0.162E-04    0.760E-05
DAV:  18    -0.184638187984E+02   -0.58036E-07   -0.61713E-10  4440   0.114E-04    0.676E-06
DAV:  19    -0.184638188088E+02   -0.10375E-07   -0.32689E-11  4008   0.326E-05    0.270E-06
DAV:  20    -0.184638188126E+02   -0.37763E-08   -0.30903E-13  4392   0.180E-05
   3 F= -.18463819E+02 E0= -.18463819E+02  d E =-.119407E+00
       N       E                     dE             d eps       ncg     rms          rms(c)
DAV:   1    -0.184642489515E+02   -0.43014E-03   -0.73517E-02  3944   0.255E+00    0.723E-02
DAV:   2    -0.184641651031E+02    0.83848E-04   -0.55248E-04  4880   0.262E-01    0.397E-02
DAV:   3    -0.184641160093E+02    0.49094E-04   -0.16250E-04  5096   0.124E-01    0.394E-03
DAV:   4    -0.184641175782E+02   -0.15689E-05   -0.15463E-05  4888   0.340E-02    0.358E-03
DAV:   5    -0.184641176022E+02   -0.24005E-07   -0.19174E-07  4824   0.377E-03    0.110E-03
DAV:   6    -0.184641175940E+02    0.81784E-08   -0.69827E-08  4232   0.251E-03
   4 F= -.18464118E+02 E0= -.18464117E+02  d E =-.119706E+00
       N       E                     dE             d eps       ncg     rms          rms(c)
DAV:   1    -0.184642343661E+02   -0.11676E-03   -0.74784E-03  3936   0.808E-01    0.240E-02
DAV:   2    -0.184642244689E+02    0.98972E-05   -0.58520E-05  4968   0.832E-02    0.129E-02
DAV:   3    -0.184642193374E+02    0.51315E-05   -0.17930E-05  4880   0.401E-02    0.133E-03
DAV:   4    -0.184642195123E+02   -0.17489E-06   -0.16717E-06  5400   0.111E-02    0.119E-03
DAV:   5    -0.184642195196E+02   -0.73118E-08   -0.16879E-08  4880   0.115E-03
   5 F= -.18464220E+02 E0= -.18464218E+02  d E =-.119808E+00
       N       E                     dE             d eps       ncg     rms          rms(c)
DAV:   1    -0.184642203341E+02   -0.82183E-06   -0.46924E-05  4016   0.630E-02    0.198E-03
DAV:   2    -0.184642202630E+02    0.71135E-07   -0.42249E-07  4576   0.679E-03    0.107E-03
DAV:   3    -0.184642202284E+02    0.34605E-07   -0.12533E-07  4760   0.335E-03    0.123E-04
DAV:   4    -0.184642202295E+02   -0.11220E-08   -0.11424E-08  4504   0.925E-04    0.993E-05
DAV:   5    -0.184642202297E+02   -0.18326E-09   -0.24472E-10  4368   0.131E-04
   6 F= -.18464220E+02 E0= -.18464219E+02  d E =-.119809E+00
       N       E                     dE             d eps       ncg     rms          rms(c)
DAV:   1    -0.184641577151E+02    0.62514E-04   -0.73924E-02  3960   0.251E+00    0.739E-02
DAV:   2    -0.184640627017E+02    0.95013E-04   -0.52758E-04  4952   0.259E-01    0.402E-02
DAV:   3    -0.184640097326E+02    0.52969E-04   -0.16455E-04  4872   0.128E-01    0.395E-03
DAV:   4    -0.184640116262E+02   -0.18935E-05   -0.17705E-05  4936   0.357E-02    0.389E-03
DAV:   5    -0.184640116755E+02   -0.49361E-07   -0.25164E-07  4544   0.456E-03    0.783E-04
DAV:   6    -0.184640116831E+02   -0.75719E-08   -0.49434E-08  5312   0.213E-03
   7 F= -.18464012E+02 E0= -.18464012E+02  d E =0.208547E-03
       N       E                     dE             d eps       ncg     rms          rms(c)
DAV:   1    -0.184643478541E+02   -0.33618E-03   -0.24496E-02  3952   0.150E+00    0.440E-02
DAV:   2    -0.184643154929E+02    0.32361E-04   -0.19475E-04  4816   0.154E-01    0.230E-02
DAV:   3    -0.184642997943E+02    0.15699E-04   -0.56546E-05  4992   0.695E-02    0.273E-03
DAV:   4    -0.184643002955E+02   -0.50112E-06   -0.49545E-06  5520   0.193E-02    0.218E-03
DAV:   5    -0.184643002924E+02    0.30217E-08   -0.48975E-08  5168   0.206E-03
   8 F= -.18464300E+02 E0= -.18464275E+02  d E =-.800627E-04
       N       E                     dE             d eps       ncg     rms          rms(c)
DAV:   1    -0.184643006290E+02   -0.33352E-06   -0.32602E-05  4136   0.548E-02    0.220E-03
DAV:   2    -0.184643005345E+02    0.94505E-07   -0.38219E-07  5400   0.650E-03    0.114E-03
DAV:   3    -0.184643004933E+02    0.41176E-07   -0.12034E-07  5088   0.342E-03    0.149E-04
DAV:   4    -0.184643004948E+02   -0.14593E-08   -0.12017E-08  4888   0.938E-04    0.107E-04
DAV:   5    -0.184643004948E+02   -0.73101E-10   -0.23845E-10  4136   0.137E-04
   9 F= -.18464300E+02 E0= -.18464275E+02  d E =-.202394E-06
       N       E                     dE             d eps       ncg     rms          rms(c)
DAV:   1    -0.184643005214E+02   -0.26668E-07   -0.39985E-06  4232   0.181E-02    0.729E-04
DAV:   2    -0.184643005113E+02    0.10113E-07   -0.40142E-08  5432   0.207E-03    0.375E-04
DAV:   3    -0.184643005064E+02    0.48932E-08   -0.15641E-08  4424   0.116E-03    0.432E-05
DAV:   4    -0.184643005065E+02   -0.71850E-10   -0.14479E-09  4920   0.319E-04    0.371E-05
DAV:   5    -0.184643005063E+02    0.21555E-09   -0.18025E-11  4464   0.439E-05
  10 F= -.18464301E+02 E0= -.18464275E+02  d E =-.213839E-06
