 vasp.5.4.4.18Apr17-6-g9f103f2a35 (build May 31 2018 21:15:54) complex          
  
 executed on          c7_intel_O1 date 2020.07.22  22:03:21
 running on    4 total cores
 distrk:  each k-point on    4 cores,    1 groups
 distr:  one band on NCORES_PER_BAND=   1 cores,    4 groups


--------------------------------------------------------------------------------------------------------


 INCAR:
 POTCAR:    PAW_PBE C 08Apr2002                   
 POTCAR:    PAW_PBE C 08Apr2002                   
   VRHFIN =C: s2p2                                                              
   LEXCH  = PE                                                                  
   EATOM  =   147.1560 eV,   10.8157 Ry                                         
                                                                                
   TITEL  = PAW_PBE C 08Apr2002                                                 
   LULTRA =        F    use ultrasoft PP ?                                      
   IUNSCR =        1    unscreen: 0-lin 1-nonlin 2-no                           
   RPACOR =    1.200    partial core radius                                     
   POMASS =   12.011; ZVAL   =    4.000    mass and valenz                      
   RCORE  =    1.500    outmost cutoff radius                                   
   RWIGS  =    1.630; RWIGS  =    0.863    wigner-seitz radius (au A)           
   ENMAX  =  400.000; ENMIN  =  300.000 eV                                      
   ICORE  =        2    local potential                                         
   LCOR   =        T    correct aug charges                                     
   LPAW   =        T    paw PP                                                  
   EAUG   =  644.873                                                            
   DEXC   =    0.000                                                            
   RMAX   =    1.529    core radius for proj-oper                               
   RAUG   =    1.300    factor for augmentation sphere                          
   RDEP   =    1.501    radius for radial grids                                 
   RDEPT  =    1.300    core radius for aug-charge                              
                                                                                
   Atomic configuration                                                         
    4 entries                                                                   
     n  l   j            E        occ.                                          
     1  0  0.50      -273.3789   2.0000                                         
     2  0  0.50       -13.7508   2.0000                                         
     2  1  0.50        -5.2854   2.0000                                         
     3  2  1.50        -5.4423   0.0000                                         
   Description                                                                  
     l       E           TYP  RCUT    TYP  RCUT                                 
     0    -13.7508458     23  1.200                                             
     0     -8.2022199     23  1.200                                             
     1     -5.2854383     23  1.500                                             
     1     34.0145650     23  1.500                                             
     2     -5.4423304      7  1.500                                             
  local pseudopotential read in
  partial core-charges read in
  partial kinetic energy density read in
  atomic valenz-charges read in
  non local Contribution for L=           0  read in
    real space projection operators read in
  non local Contribution for L=           0  read in
    real space projection operators read in
  non local Contribution for L=           1  read in
    real space projection operators read in
  non local Contribution for L=           1  read in
    real space projection operators read in
    PAW grid and wavefunctions read in
 
   number of l-projection  operators is LMAX  =           4
   number of lm-projection operators is LMMAX =           8
 
  PAW_PBE C 08Apr2002                   :
 energy of atom  1       EATOM= -147.1560
 kinetic energy error for atom=    0.0016 (will be added to EATOM!!)
 
 
 POSCAR: C2                                      
  positions in direct lattice
  No initial velocities read in
 exchange correlation table for  LEXCH =        8
   RHO(1)=    0.500       N(1)  =     2000
   RHO(2)=  100.500       N(2)  =     4000
 


--------------------------------------------------------------------------------------------------------


 ion  position               nearest neighbor table
   1  0.010  0.020  0.000-   2 1.36   2 1.44   2 1.46
   2  0.333  0.333  0.000-   1 1.36   1 1.44   1 1.46
 
  LATTYP: Found a hexagonal cell.
 ALAT       =     2.4595120000
 C/A-ratio  =     8.1316944174
  
  Lattice vectors:
  
 A1 = (   0.0000000000,  -2.4595120000,   0.0000000000)
 A2 = (  -2.1300000000,   1.2297560000,   0.0000000000)
 A3 = (   0.0000000000,   0.0000000000, -20.0000000000)


Analysis of symmetry for initial positions (statically):
=====================================================================
 Subroutine PRICEL returns:
 Original cell was already a primitive cell.
 

 Routine SETGRP: Setting up the symmetry group for a 
 hexagonal supercell.


 Subroutine GETGRP returns: Found  4 space group operations
 (whereof  2 operations were pure point group operations)
 out of a pool of 24 trial point group operations.


The static configuration has the point symmetry C_1h.
 The point group associated with its full space group is C_2h.


Analysis of symmetry for dynamics (positions and initial velocities):
=====================================================================
 Subroutine PRICEL returns:
 Original cell was already a primitive cell.
 

 Routine SETGRP: Setting up the symmetry group for a 
 hexagonal supercell.


 Subroutine GETGRP returns: Found  4 space group operations
 (whereof  2 operations were pure point group operations)
 out of a pool of 24 trial point group operations.


The dynamic configuration has the point symmetry C_1h.
 The point group associated with its full space group is C_2h.


 Subroutine INISYM returns: Found  4 space group operations
 (whereof  2 operations are pure point group operations),
 and found     1 'primitive' translations

 
 
 KPOINTS: k grid                                  

Automatic generation of k-mesh.
Space group operators:
 irot       det(A)        alpha          n_x          n_y          n_z        tau_x        tau_y        tau_z
    1     1.000000     0.000000     1.000000     0.000000     0.000000     0.000000     0.000000     0.000000
    2    -1.000000   180.000000     0.000000     0.000000     1.000000     0.000000     0.000000     0.000000
    3    -1.000000     0.000000     1.000000     0.000000     0.000000     0.343333    -0.646667     0.000000
    4     1.000000   180.000000     0.000000     0.000000     1.000000     0.343333    -0.646667     0.000000
 
 Subroutine IBZKPT returns following result:
 ===========================================
 
 Found    221 irreducible k-points:
 
 Following reciprocal coordinates:
            Coordinates               Weight
  0.000000  0.000000  0.000000      1.000000
  0.047619  0.000000  0.000000      2.000000
  0.095238  0.000000  0.000000      2.000000
  0.142857  0.000000  0.000000      2.000000
  0.190476  0.000000  0.000000      2.000000
  0.238095  0.000000  0.000000      2.000000
  0.285714  0.000000  0.000000      2.000000
  0.333333  0.000000  0.000000      2.000000
  0.380952  0.000000  0.000000      2.000000
  0.428571  0.000000  0.000000      2.000000
  0.476190  0.000000  0.000000      2.000000
  0.000000  0.047619  0.000000      2.000000
  0.047619  0.047619  0.000000      2.000000
  0.095238  0.047619  0.000000      2.000000
  0.142857  0.047619  0.000000      2.000000
  0.190476  0.047619  0.000000      2.000000
  0.238095  0.047619  0.000000      2.000000
  0.285714  0.047619  0.000000      2.000000
  0.333333  0.047619  0.000000      2.000000
  0.380952  0.047619  0.000000      2.000000
  0.428571  0.047619  0.000000      2.000000
  0.476190  0.047619  0.000000      2.000000
 -0.476190  0.047619  0.000000      2.000000
 -0.428571  0.047619  0.000000      2.000000
 -0.380952  0.047619  0.000000      2.000000
 -0.333333  0.047619  0.000000      2.000000
 -0.285714  0.047619  0.000000      2.000000
 -0.238095  0.047619  0.000000      2.000000
 -0.190476  0.047619  0.000000      2.000000
 -0.142857  0.047619  0.000000      2.000000
 -0.095238  0.047619  0.000000      2.000000
 -0.047619  0.047619  0.000000      2.000000
  0.000000  0.095238  0.000000      2.000000
  0.047619  0.095238  0.000000      2.000000
  0.095238  0.095238  0.000000      2.000000
  0.142857  0.095238  0.000000      2.000000
  0.190476  0.095238  0.000000      2.000000
  0.238095  0.095238  0.000000      2.000000
  0.285714  0.095238  0.000000      2.000000
  0.333333  0.095238  0.000000      2.000000
  0.380952  0.095238  0.000000      2.000000
  0.428571  0.095238  0.000000      2.000000
  0.476190  0.095238  0.000000      2.000000
 -0.476190  0.095238  0.000000      2.000000
 -0.428571  0.095238  0.000000      2.000000
 -0.380952  0.095238  0.000000      2.000000
 -0.333333  0.095238  0.000000      2.000000
 -0.285714  0.095238  0.000000      2.000000
 -0.238095  0.095238  0.000000      2.000000
 -0.190476  0.095238  0.000000      2.000000
 -0.142857  0.095238  0.000000      2.000000
 -0.095238  0.095238  0.000000      2.000000
 -0.047619  0.095238  0.000000      2.000000
  0.000000  0.142857  0.000000      2.000000
  0.047619  0.142857  0.000000      2.000000
  0.095238  0.142857  0.000000      2.000000
  0.142857  0.142857  0.000000      2.000000
  0.190476  0.142857  0.000000      2.000000
  0.238095  0.142857  0.000000      2.000000
  0.285714  0.142857  0.000000      2.000000
  0.333333  0.142857  0.000000      2.000000
  0.380952  0.142857  0.000000      2.000000
  0.428571  0.142857  0.000000      2.000000
  0.476190  0.142857  0.000000      2.000000
 -0.476190  0.142857  0.000000      2.000000
 -0.428571  0.142857  0.000000      2.000000
 -0.380952  0.142857  0.000000      2.000000
 -0.333333  0.142857  0.000000      2.000000
 -0.285714  0.142857  0.000000      2.000000
 -0.238095  0.142857  0.000000      2.000000
 -0.190476  0.142857  0.000000      2.000000
 -0.142857  0.142857  0.000000      2.000000
 -0.095238  0.142857  0.000000      2.000000
 -0.047619  0.142857  0.000000      2.000000
  0.000000  0.190476  0.000000      2.000000
  0.047619  0.190476  0.000000      2.000000
  0.095238  0.190476  0.000000      2.000000
  0.142857  0.190476  0.000000      2.000000
  0.190476  0.190476  0.000000      2.000000
  0.238095  0.190476  0.000000      2.000000
  0.285714  0.190476  0.000000      2.000000
  0.333333  0.190476  0.000000      2.000000
  0.380952  0.190476  0.000000      2.000000
  0.428571  0.190476  0.000000      2.000000
  0.476190  0.190476  0.000000      2.000000
 -0.476190  0.190476  0.000000      2.000000
 -0.428571  0.190476  0.000000      2.000000
 -0.380952  0.190476  0.000000      2.000000
 -0.333333  0.190476  0.000000      2.000000
 -0.285714  0.190476  0.000000      2.000000
 -0.238095  0.190476  0.000000      2.000000
 -0.190476  0.190476  0.000000      2.000000
 -0.142857  0.190476  0.000000      2.000000
 -0.095238  0.190476  0.000000      2.000000
 -0.047619  0.190476  0.000000      2.000000
  0.000000  0.238095  0.000000      2.000000
  0.047619  0.238095  0.000000      2.000000
  0.095238  0.238095  0.000000      2.000000
  0.142857  0.238095  0.000000      2.000000
  0.190476  0.238095  0.000000      2.000000
  0.238095  0.238095  0.000000      2.000000
  0.285714  0.238095  0.000000      2.000000
  0.333333  0.238095  0.000000      2.000000
  0.380952  0.238095  0.000000      2.000000
  0.428571  0.238095  0.000000      2.000000
  0.476190  0.238095  0.000000      2.000000
 -0.476190  0.238095  0.000000      2.000000
 -0.428571  0.238095  0.000000      2.000000
 -0.380952  0.238095  0.000000      2.000000
 -0.333333  0.238095  0.000000      2.000000
 -0.285714  0.238095  0.000000      2.000000
 -0.238095  0.238095  0.000000      2.000000
 -0.190476  0.238095  0.000000      2.000000
 -0.142857  0.238095  0.000000      2.000000
 -0.095238  0.238095  0.000000      2.000000
 -0.047619  0.238095  0.000000      2.000000
  0.000000  0.285714  0.000000      2.000000
  0.047619  0.285714  0.000000      2.000000
  0.095238  0.285714  0.000000      2.000000
  0.142857  0.285714  0.000000      2.000000
  0.190476  0.285714  0.000000      2.000000
  0.238095  0.285714  0.000000      2.000000
  0.285714  0.285714  0.000000      2.000000
  0.333333  0.285714  0.000000      2.000000
  0.380952  0.285714  0.000000      2.000000
  0.428571  0.285714  0.000000      2.000000
  0.476190  0.285714  0.000000      2.000000
 -0.476190  0.285714  0.000000      2.000000
 -0.428571  0.285714  0.000000      2.000000
 -0.380952  0.285714  0.000000      2.000000
 -0.333333  0.285714  0.000000      2.000000
 -0.285714  0.285714  0.000000      2.000000
 -0.238095  0.285714  0.000000      2.000000
 -0.190476  0.285714  0.000000      2.000000
 -0.142857  0.285714  0.000000      2.000000
 -0.095238  0.285714  0.000000      2.000000
 -0.047619  0.285714  0.000000      2.000000
  0.000000  0.333333  0.000000      2.000000
  0.047619  0.333333  0.000000      2.000000
  0.095238  0.333333  0.000000      2.000000
  0.142857  0.333333  0.000000      2.000000
  0.190476  0.333333  0.000000      2.000000
  0.238095  0.333333  0.000000      2.000000
  0.285714  0.333333  0.000000      2.000000
  0.333333  0.333333  0.000000      2.000000
  0.380952  0.333333  0.000000      2.000000
  0.428571  0.333333  0.000000      2.000000
  0.476190  0.333333  0.000000      2.000000
 -0.476190  0.333333  0.000000      2.000000
 -0.428571  0.333333  0.000000      2.000000
 -0.380952  0.333333  0.000000      2.000000
 -0.333333  0.333333  0.000000      2.000000
 -0.285714  0.333333  0.000000      2.000000
 -0.238095  0.333333  0.000000      2.000000
 -0.190476  0.333333  0.000000      2.000000
 -0.142857  0.333333  0.000000      2.000000
 -0.095238  0.333333  0.000000      2.000000
 -0.047619  0.333333  0.000000      2.000000
  0.000000  0.380952  0.000000      2.000000
  0.047619  0.380952  0.000000      2.000000
  0.095238  0.380952  0.000000      2.000000
  0.142857  0.380952  0.000000      2.000000
  0.190476  0.380952  0.000000      2.000000
  0.238095  0.380952  0.000000      2.000000
  0.285714  0.380952  0.000000      2.000000
  0.333333  0.380952  0.000000      2.000000
  0.380952  0.380952  0.000000      2.000000
  0.428571  0.380952  0.000000      2.000000
  0.476190  0.380952  0.000000      2.000000
 -0.476190  0.380952  0.000000      2.000000
 -0.428571  0.380952  0.000000      2.000000
 -0.380952  0.380952  0.000000      2.000000
 -0.333333  0.380952  0.000000      2.000000
 -0.285714  0.380952  0.000000      2.000000
 -0.238095  0.380952  0.000000      2.000000
 -0.190476  0.380952  0.000000      2.000000
 -0.142857  0.380952  0.000000      2.000000
 -0.095238  0.380952  0.000000      2.000000
 -0.047619  0.380952  0.000000      2.000000
  0.000000  0.428571  0.000000      2.000000
  0.047619  0.428571  0.000000      2.000000
  0.095238  0.428571  0.000000      2.000000
  0.142857  0.428571  0.000000      2.000000
  0.190476  0.428571  0.000000      2.000000
  0.238095  0.428571  0.000000      2.000000
  0.285714  0.428571  0.000000      2.000000
  0.333333  0.428571  0.000000      2.000000
  0.380952  0.428571  0.000000      2.000000
  0.428571  0.428571  0.000000      2.000000
  0.476190  0.428571  0.000000      2.000000
 -0.476190  0.428571  0.000000      2.000000
 -0.428571  0.428571  0.000000      2.000000
 -0.380952  0.428571  0.000000      2.000000
 -0.333333  0.428571  0.000000      2.000000
 -0.285714  0.428571  0.000000      2.000000
 -0.238095  0.428571  0.000000      2.000000
 -0.190476  0.428571  0.000000      2.000000
 -0.142857  0.428571  0.000000      2.000000
 -0.095238  0.428571  0.000000      2.000000
 -0.047619  0.428571  0.000000      2.000000
  0.000000  0.476190  0.000000      2.000000
  0.047619  0.476190  0.000000      2.000000
  0.095238  0.476190  0.000000      2.000000
  0.142857  0.476190  0.000000      2.000000
  0.190476  0.476190  0.000000      2.000000
  0.238095  0.476190  0.000000      2.000000
  0.285714  0.476190  0.000000      2.000000
  0.333333  0.476190  0.000000      2.000000
  0.380952  0.476190  0.000000      2.000000
  0.428571  0.476190  0.000000      2.000000
  0.476190  0.476190  0.000000      2.000000
 -0.476190  0.476190  0.000000      2.000000
 -0.428571  0.476190  0.000000      2.000000
 -0.380952  0.476190  0.000000      2.000000
 -0.333333  0.476190  0.000000      2.000000
 -0.285714  0.476190  0.000000      2.000000
 -0.238095  0.476190  0.000000      2.000000
 -0.190476  0.476190  0.000000      2.000000
 -0.142857  0.476190  0.000000      2.000000
 -0.095238  0.476190  0.000000      2.000000
 -0.047619  0.476190  0.000000      2.000000
 
 Following cartesian coordinates:
            Coordinates               Weight
  0.000000  0.000000  0.000000      1.000000
  0.011178 -0.019361  0.000000      2.000000
  0.022356 -0.038722  0.000000      2.000000
  0.033535 -0.058084  0.000000      2.000000
  0.044713 -0.077445  0.000000      2.000000
  0.055891 -0.096806  0.000000      2.000000
  0.067069 -0.116167  0.000000      2.000000
  0.078247 -0.135528  0.000000      2.000000
  0.089425 -0.154889  0.000000      2.000000
  0.100604 -0.174251  0.000000      2.000000
  0.111782 -0.193612  0.000000      2.000000
  0.011178  0.019361  0.000000      2.000000
  0.022356 -0.000000  0.000000      2.000000
  0.033535 -0.019361  0.000000      2.000000
  0.044713 -0.038722  0.000000      2.000000
  0.055891 -0.058084  0.000000      2.000000
  0.067069 -0.077445  0.000000      2.000000
  0.078247 -0.096806  0.000000      2.000000
  0.089425 -0.116167  0.000000      2.000000
  0.100604 -0.135528  0.000000      2.000000
  0.111782 -0.154889  0.000000      2.000000
  0.122960 -0.174251  0.000000      2.000000
 -0.100604  0.212973  0.000000      2.000000
 -0.089425  0.193612  0.000000      2.000000
 -0.078247  0.174251  0.000000      2.000000
 -0.067069  0.154889  0.000000      2.000000
 -0.055891  0.135528  0.000000      2.000000
 -0.044713  0.116167  0.000000      2.000000
 -0.033535  0.096806  0.000000      2.000000
 -0.022356  0.077445  0.000000      2.000000
 -0.011178  0.058084  0.000000      2.000000
  0.000000  0.038722  0.000000      2.000000
  0.022356  0.038722  0.000000      2.000000
  0.033535  0.019361  0.000000      2.000000
  0.044713 -0.000000  0.000000      2.000000
  0.055891 -0.019361  0.000000      2.000000
  0.067069 -0.038722  0.000000      2.000000
  0.078247 -0.058084  0.000000      2.000000
  0.089425 -0.077445  0.000000      2.000000
  0.100604 -0.096806  0.000000      2.000000
  0.111782 -0.116167  0.000000      2.000000
  0.122960 -0.135528  0.000000      2.000000
  0.134138 -0.154889  0.000000      2.000000
 -0.089425  0.232334  0.000000      2.000000
 -0.078247  0.212973  0.000000      2.000000
 -0.067069  0.193612  0.000000      2.000000
 -0.055891  0.174251  0.000000      2.000000
 -0.044713  0.154889  0.000000      2.000000
 -0.033535  0.135528  0.000000      2.000000
 -0.022356  0.116167  0.000000      2.000000
 -0.011178  0.096806  0.000000      2.000000
  0.000000  0.077445  0.000000      2.000000
  0.011178  0.058084  0.000000      2.000000
  0.033535  0.058084  0.000000      2.000000
  0.044713  0.038722  0.000000      2.000000
  0.055891  0.019361  0.000000      2.000000
  0.067069  0.000000  0.000000      2.000000
  0.078247 -0.019361  0.000000      2.000000
  0.089425 -0.038722  0.000000      2.000000
  0.100604 -0.058084  0.000000      2.000000
  0.111782 -0.077445  0.000000      2.000000
  0.122960 -0.096806  0.000000      2.000000
  0.134138 -0.116167  0.000000      2.000000
  0.145316 -0.135528  0.000000      2.000000
 -0.078247  0.251695  0.000000      2.000000
 -0.067069  0.232334  0.000000      2.000000
 -0.055891  0.212973  0.000000      2.000000
 -0.044713  0.193612  0.000000      2.000000
 -0.033535  0.174251  0.000000      2.000000
 -0.022356  0.154889  0.000000      2.000000
 -0.011178  0.135528  0.000000      2.000000
  0.000000  0.116167  0.000000      2.000000
  0.011178  0.096806  0.000000      2.000000
  0.022356  0.077445  0.000000      2.000000
  0.044713  0.077445  0.000000      2.000000
  0.055891  0.058084  0.000000      2.000000
  0.067069  0.038722  0.000000      2.000000
  0.078247  0.019361  0.000000      2.000000
  0.089425  0.000000  0.000000      2.000000
  0.100604 -0.019361  0.000000      2.000000
  0.111782 -0.038722  0.000000      2.000000
  0.122960 -0.058084  0.000000      2.000000
  0.134138 -0.077445  0.000000      2.000000
  0.145316 -0.096806  0.000000      2.000000
  0.156495 -0.116167  0.000000      2.000000
 -0.067069  0.271056  0.000000      2.000000
 -0.055891  0.251695  0.000000      2.000000
 -0.044713  0.232334  0.000000      2.000000
 -0.033535  0.212973  0.000000      2.000000
 -0.022356  0.193612  0.000000      2.000000
 -0.011178  0.174251  0.000000      2.000000
  0.000000  0.154889  0.000000      2.000000
  0.011178  0.135528  0.000000      2.000000
  0.022356  0.116167  0.000000      2.000000
  0.033535  0.096806  0.000000      2.000000
  0.055891  0.096806  0.000000      2.000000
  0.067069  0.077445  0.000000      2.000000
  0.078247  0.058084  0.000000      2.000000
  0.089425  0.038722  0.000000      2.000000
  0.100604  0.019361  0.000000      2.000000
  0.111782  0.000000  0.000000      2.000000
  0.122960 -0.019361  0.000000      2.000000
  0.134138 -0.038722  0.000000      2.000000
  0.145316 -0.058084  0.000000      2.000000
  0.156495 -0.077445  0.000000      2.000000
  0.167673 -0.096806  0.000000      2.000000
 -0.055891  0.290418  0.000000      2.000000
 -0.044713  0.271056  0.000000      2.000000
 -0.033535  0.251695  0.000000      2.000000
 -0.022356  0.232334  0.000000      2.000000
 -0.011178  0.212973  0.000000      2.000000
  0.000000  0.193612  0.000000      2.000000
  0.011178  0.174251  0.000000      2.000000
  0.022356  0.154889  0.000000      2.000000
  0.033535  0.135528  0.000000      2.000000
  0.044713  0.116167  0.000000      2.000000
  0.067069  0.116167  0.000000      2.000000
  0.078247  0.096806  0.000000      2.000000
  0.089425  0.077445  0.000000      2.000000
  0.100604  0.058084  0.000000      2.000000
  0.111782  0.038722  0.000000      2.000000
  0.122960  0.019361  0.000000      2.000000
  0.134138  0.000000  0.000000      2.000000
  0.145316 -0.019361  0.000000      2.000000
  0.156495 -0.038722  0.000000      2.000000
  0.167673 -0.058084  0.000000      2.000000
  0.178851 -0.077445  0.000000      2.000000
 -0.044713  0.309779  0.000000      2.000000
 -0.033535  0.290418  0.000000      2.000000
 -0.022356  0.271056  0.000000      2.000000
 -0.011178  0.251695  0.000000      2.000000
  0.000000  0.232334  0.000000      2.000000
  0.011178  0.212973  0.000000      2.000000
  0.022356  0.193612  0.000000      2.000000
  0.033535  0.174251  0.000000      2.000000
  0.044713  0.154889  0.000000      2.000000
  0.055891  0.135528  0.000000      2.000000
  0.078247  0.135528  0.000000      2.000000
  0.089425  0.116167  0.000000      2.000000
  0.100604  0.096806  0.000000      2.000000
  0.111782  0.077445  0.000000      2.000000
  0.122960  0.058084  0.000000      2.000000
  0.134138  0.038722  0.000000      2.000000
  0.145316  0.019361  0.000000      2.000000
  0.156495 -0.000000  0.000000      2.000000
  0.167673 -0.019361  0.000000      2.000000
  0.178851 -0.038722  0.000000      2.000000
  0.190029 -0.058084  0.000000      2.000000
 -0.033535  0.329140  0.000000      2.000000
 -0.022356  0.309779  0.000000      2.000000
 -0.011178  0.290418  0.000000      2.000000
  0.000000  0.271056  0.000000      2.000000
  0.011178  0.251695  0.000000      2.000000
  0.022356  0.232334  0.000000      2.000000
  0.033535  0.212973  0.000000      2.000000
  0.044713  0.193612  0.000000      2.000000
  0.055891  0.174251  0.000000      2.000000
  0.067069  0.154889  0.000000      2.000000
  0.089425  0.154889  0.000000      2.000000
  0.100604  0.135528  0.000000      2.000000
  0.111782  0.116167  0.000000      2.000000
  0.122960  0.096806  0.000000      2.000000
  0.134138  0.077445  0.000000      2.000000
  0.145316  0.058084  0.000000      2.000000
  0.156495  0.038722  0.000000      2.000000
  0.167673  0.019361  0.000000      2.000000
  0.178851 -0.000000  0.000000      2.000000
  0.190029 -0.019361  0.000000      2.000000
  0.201207 -0.038722  0.000000      2.000000
 -0.022356  0.348501  0.000000      2.000000
 -0.011178  0.329140  0.000000      2.000000
  0.000000  0.309779  0.000000      2.000000
  0.011178  0.290418  0.000000      2.000000
  0.022356  0.271056  0.000000      2.000000
  0.033535  0.251695  0.000000      2.000000
  0.044713  0.232334  0.000000      2.000000
  0.055891  0.212973  0.000000      2.000000
  0.067069  0.193612  0.000000      2.000000
  0.078247  0.174251  0.000000      2.000000
  0.100604  0.174251  0.000000      2.000000
  0.111782  0.154889  0.000000      2.000000
  0.122960  0.135528  0.000000      2.000000
  0.134138  0.116167  0.000000      2.000000
  0.145316  0.096806  0.000000      2.000000
  0.156495  0.077445  0.000000      2.000000
  0.167673  0.058084  0.000000      2.000000
  0.178851  0.038722  0.000000      2.000000
  0.190029  0.019361  0.000000      2.000000
  0.201207  0.000000  0.000000      2.000000
  0.212385 -0.019361  0.000000      2.000000
 -0.011178  0.367862  0.000000      2.000000
  0.000000  0.348501  0.000000      2.000000
  0.011178  0.329140  0.000000      2.000000
  0.022356  0.309779  0.000000      2.000000
  0.033535  0.290418  0.000000      2.000000
  0.044713  0.271056  0.000000      2.000000
  0.055891  0.251695  0.000000      2.000000
  0.067069  0.232334  0.000000      2.000000
  0.078247  0.212973  0.000000      2.000000
  0.089425  0.193612  0.000000      2.000000
  0.111782  0.193612  0.000000      2.000000
  0.122960  0.174251  0.000000      2.000000
  0.134138  0.154889  0.000000      2.000000
  0.145316  0.135528  0.000000      2.000000
  0.156495  0.116167  0.000000      2.000000
  0.167673  0.096806  0.000000      2.000000
  0.178851  0.077445  0.000000      2.000000
  0.190029  0.058084  0.000000      2.000000
  0.201207  0.038722  0.000000      2.000000
  0.212385  0.019361  0.000000      2.000000
  0.223564  0.000000  0.000000      2.000000
  0.000000  0.387224  0.000000      2.000000
  0.011178  0.367862  0.000000      2.000000
  0.022356  0.348501  0.000000      2.000000
  0.033535  0.329140  0.000000      2.000000
  0.044713  0.309779  0.000000      2.000000
  0.055891  0.290418  0.000000      2.000000
  0.067069  0.271056  0.000000      2.000000
  0.078247  0.251695  0.000000      2.000000
  0.089425  0.232334  0.000000      2.000000
  0.100604  0.212973  0.000000      2.000000
 


--------------------------------------------------------------------------------------------------------




 Dimension of arrays:
   k-points           NKPTS =    221   k-points in BZ     NKDIM =    221   number of bands    NBANDS=      8
   number of dos      NEDOS =    301   number of ions     NIONS =      2
   non local maximal  LDIM  =      4   non local SUM 2l+1 LMDIM =      8
   total plane-waves  NPLWV = 110592
   max r-space proj   IRMAX =      1   max aug-charges    IRDMAX=  99836
   dimension x,y,z NGX =    24 NGY =   24 NGZ =  192
   dimension x,y,z NGXF=    48 NGYF=   48 NGZF=  384
   support grid    NGXF=    96 NGYF=   96 NGZF=  768
   ions per type =               2
   NGX,Y,Z   is equivalent  to a cutoff of  16.22, 16.22, 15.96 a.u.
   NGXF,Y,Z  is equivalent  to a cutoff of  32.44, 32.44, 31.92 a.u.

 SYSTEM =  C:graphene                              
 POSCAR =  C2                                      

 Startparameter for this run:
   NWRITE =      2    write-flag & timer
   PREC   = accura    normal or accurate (medium, high low for compatibility)
   ISTART =      0    job   : 0-new  1-cont  2-samecut
   ICHARG =      2    charge: 1-file 2-atom 10-const
   ISPIN  =      1    spin polarized calculation?
   LNONCOLLINEAR =      F non collinear calculations
   LSORBIT =      F    spin-orbit coupling
   INIWAV =      1    electr: 0-lowe 1-rand  2-diag
   LASPH  =      F    aspherical Exc in radial PAW
   METAGGA=      F    non-selfconsistent MetaGGA calc.

 Electronic Relaxation 1
   ENCUT  =  800.0 eV  58.80 Ry    7.67 a.u.   5.67  5.67 46.12*2*pi/ulx,y,z
   ENINI  =  800.0     initial cutoff
   ENAUG  =  644.9 eV  augmentation charge cutoff
   NELM   =     60;   NELMIN=  5; NELMDL= -5     # of ELM steps 
   EDIFF  = 0.1E-07   stopping-criterion for ELM
   LREAL  =      F    real-space projection
   NLSPLINE    = F    spline interpolate recip. space projectors
   LCOMPAT=      F    compatible to vasp.4.4
   GGA_COMPAT  = T    GGA compatible to vasp.4.4-vasp.4.6
   LMAXPAW     = -100 max onsite density
   LMAXMIX     =    2 max onsite mixed and CHGCAR
   VOSKOWN=      0    Vosko Wilk Nusair interpolation
   ROPT   =    0.00000
 Ionic relaxation
   EDIFFG = 0.1E-06   stopping-criterion for IOM
   NSW    =     80    number of steps for IOM
   NBLOCK =      1;   KBLOCK =     80    inner block; outer block 
   IBRION =      2    ionic relax: 0-MD 1-quasi-New 2-CG
   NFREE  =      1    steps in history (QN), initial steepest desc. (CG)
   ISIF   =      2    stress and relaxation
   IWAVPR =     11    prediction:  0-non 1-charg 2-wave 3-comb
   ISYM   =      2    0-nonsym 1-usesym 2-fastsym
   LCORR  =      T    Harris-Foulkes like correction to forces

   POTIM  = 0.5000    time-step for ionic-motion
   TEIN   =    0.0    initial temperature
   TEBEG  =    0.0;   TEEND  =   0.0 temperature during run
   SMASS  =  -3.00    Nose mass-parameter (am)
   estimated Nose-frequenzy (Omega)   =  0.10E-29 period in steps =****** mass=  -0.138E-27a.u.
   SCALEE = 1.0000    scale energy and forces
   NPACO  =    256;   APACO  = 16.0  distance and # of slots for P.C.
   PSTRESS=    0.0 pullay stress

  Mass of Ions in am
   POMASS =  12.01
  Ionic Valenz
   ZVAL   =   4.00
  Atomic Wigner-Seitz radii
   RWIGS  =  -1.00
  virtual crystal weights 
   VCA    =   1.00
   NELECT =       8.0000    total number of electrons
   NUPDOWN=      -1.0000    fix difference up-down

 DOS related values:
   EMIN   =  10.00;   EMAX   =-10.00  energy-range for DOS
   EFERMI =   0.00
   ISMEAR =     0;   SIGMA  =   0.01  broadening in eV -4-tet -1-fermi 0-gaus

 Electronic relaxation 2 (details)
   IALGO  =     38    algorithm
   LDIAG  =      T    sub-space diagonalisation (order eigenvalues)
   LSUBROT=      F    optimize rotation matrix (better conditioning)
   TURBO    =      0    0=normal 1=particle mesh
   IRESTART =      0    0=no restart 2=restart with 2 vectors
   NREBOOT  =      0    no. of reboots
   NMIN     =      0    reboot dimension
   EREF     =   0.00    reference energy to select bands
   IMIX   =      4    mixing-type and parameters
     AMIX     =   0.40;   BMIX     =  1.00
     AMIX_MAG =   1.60;   BMIX_MAG =  1.00
     AMIN     =   0.01
     WC   =   100.;   INIMIX=   1;  MIXPRE=   1;  MAXMIX= -45

 Intra band minimization:
   WEIMIN = 0.0010     energy-eigenvalue tresh-hold
   EBREAK =  0.31E-09  absolut break condition
   DEPER  =   0.30     relativ break condition  

   TIME   =   0.40     timestep for ELM

  volume/ion in A,a.u.               =      52.39       353.53
  Fermi-wavevector in a.u.,A,eV,Ry     =   0.694521  1.312454  6.562896  0.482359
  Thomas-Fermi vector in A             =   1.777037
 
 Write flags
   LWAVE        =      F    write WAVECAR
   LDOWNSAMPLE  =      F    k-point downsampling of WAVECAR
   LCHARG       =      T    write CHGCAR
   LVTOT        =      F    write LOCPOT, total local potential
   LVHAR        =      F    write LOCPOT, Hartree potential only
   LELF         =      F    write electronic localiz. function (ELF)
   LORBIT       =      0    0 simple, 1 ext, 2 COOP (PROOUT), +10 PAW based schemes


 Dipole corrections
   LMONO  =      F    monopole corrections only (constant potential shift)
   LDIPOL =      F    correct potential (dipole corrections)
   IDIPOL =      0    1-x, 2-y, 3-z, 4-all directions 
   EPSILON=  1.0000000 bulk dielectric constant

 Exchange correlation treatment:
   GGA     =    --    GGA type
   LEXCH   =     8    internal setting for exchange type
   VOSKOWN=      0    Vosko Wilk Nusair interpolation
   LHFCALC =     F    Hartree Fock is set to
   LHFONE  =     F    Hartree Fock one center treatment
   AEXX    =    0.0000 exact exchange contribution

 Linear response parameters
   LEPSILON=     F    determine dielectric tensor
   LRPA    =     F    only Hartree local field effects (RPA)
   LNABLA  =     F    use nabla operator in PAW spheres
   LVEL    =     F    velocity operator in full k-point grid
   LINTERFAST=   F  fast interpolation
   KINTER  =     0    interpolate to denser k-point grid
   CSHIFT  =0.1000    complex shift for real part using Kramers Kronig
   OMEGAMAX=  -1.0    maximum frequency
   DEG_THRESHOLD= 0.2000000E-02 threshold for treating states as degnerate
   RTIME   =   -0.100 relaxation time in fs
  (WPLASMAI=    0.000 imaginary part of plasma frequency in eV, 0.658/RTIME)
   DFIELD  = 0.0000000 0.0000000 0.0000000 field for delta impulse in time
 
 Orbital magnetization related:
   ORBITALMAG=     F  switch on orbital magnetization
   LCHIMAG   =     F  perturbation theory with respect to B field
   DQ        =  0.001000  dq finite difference perturbation B field
   LLRAUG    =     F  two centre corrections for induced B field



--------------------------------------------------------------------------------------------------------


 conjugate gradient relaxation of ions
 charge density and potential will be updated during run
 non-spin polarized calculation
 Variant of blocked Davidson
 Davidson routine will perform the subspace rotation
 perform sub-space diagonalisation
    after iterative eigenvector-optimisation
 modified Broyden-mixing scheme, WC =      100.0
 initial mixing is a Kerker type mixing with AMIX =  0.4000 and BMIX =      1.0000
 Hartree-type preconditioning will be used
 using additional bands            4
 reciprocal scheme for non local part
 use partial core corrections
 calculate Harris-corrections to forces 
   (improved forces if not selfconsistent)
 use gradient corrections 
 use of overlap-Matrix (Vanderbilt PP)
 Gauss-broadening in eV      SIGMA  =   0.01


--------------------------------------------------------------------------------------------------------


  energy-cutoff  :      800.00
  volume of cell :      104.78
      direct lattice vectors                 reciprocal lattice vectors
     2.130000000 -1.229756000  0.000000000     0.234741784 -0.406584721  0.000000000
     2.130000000  1.229756000  0.000000000     0.234741784  0.406584721  0.000000000
     0.000000000  0.000000000 20.000000000     0.000000000  0.000000000  0.050000000

  length of vectors
     2.459512110  2.459512110 20.000000000     0.469483589  0.469483589  0.050000000


 
 k-points in units of 2pi/SCALE and weight: k grid                                  
   0.00000000  0.00000000  0.00000000       0.002
   0.01117818 -0.01936118  0.00000000       0.005
   0.02235636 -0.03872235  0.00000000       0.005
   0.03353454 -0.05808353  0.00000000       0.005
   0.04471272 -0.07744471  0.00000000       0.005
   0.05589090 -0.09680589  0.00000000       0.005
   0.06706908 -0.11616706  0.00000000       0.005
   0.07824726 -0.13552824  0.00000000       0.005
   0.08942544 -0.15488942  0.00000000       0.005
   0.10060362 -0.17425059  0.00000000       0.005
   0.11178180 -0.19361177  0.00000000       0.005
   0.01117818  0.01936118  0.00000000       0.005
   0.02235636 -0.00000000  0.00000000       0.005
   0.03353454 -0.01936118  0.00000000       0.005
   0.04471272 -0.03872235  0.00000000       0.005
   0.05589090 -0.05808353  0.00000000       0.005
   0.06706908 -0.07744471  0.00000000       0.005
   0.07824726 -0.09680589  0.00000000       0.005
   0.08942544 -0.11616706  0.00000000       0.005
   0.10060362 -0.13552824  0.00000000       0.005
   0.11178180 -0.15488942  0.00000000       0.005
   0.12295998 -0.17425059  0.00000000       0.005
  -0.10060362  0.21297295  0.00000000       0.005
  -0.08942544  0.19361177  0.00000000       0.005
  -0.07824726  0.17425059  0.00000000       0.005
  -0.06706908  0.15488942  0.00000000       0.005
  -0.05589090  0.13552824  0.00000000       0.005
  -0.04471272  0.11616706  0.00000000       0.005
  -0.03353454  0.09680589  0.00000000       0.005
  -0.02235636  0.07744471  0.00000000       0.005
  -0.01117818  0.05808353  0.00000000       0.005
   0.00000000  0.03872235  0.00000000       0.005
   0.02235636  0.03872235  0.00000000       0.005
   0.03353454  0.01936118  0.00000000       0.005
   0.04471272 -0.00000000  0.00000000       0.005
   0.05589090 -0.01936118  0.00000000       0.005
   0.06706908 -0.03872235  0.00000000       0.005
   0.07824726 -0.05808353  0.00000000       0.005
   0.08942544 -0.07744471  0.00000000       0.005
   0.10060362 -0.09680589  0.00000000       0.005
   0.11178180 -0.11616706  0.00000000       0.005
   0.12295998 -0.13552824  0.00000000       0.005
   0.13413816 -0.15488942  0.00000000       0.005
  -0.08942544  0.23233413  0.00000000       0.005
  -0.07824726  0.21297295  0.00000000       0.005
  -0.06706908  0.19361177  0.00000000       0.005
  -0.05589090  0.17425059  0.00000000       0.005
  -0.04471272  0.15488942  0.00000000       0.005
  -0.03353454  0.13552824  0.00000000       0.005
  -0.02235636  0.11616706  0.00000000       0.005
  -0.01117818  0.09680589  0.00000000       0.005
   0.00000000  0.07744471  0.00000000       0.005
   0.01117818  0.05808353  0.00000000       0.005
   0.03353454  0.05808353  0.00000000       0.005
   0.04471272  0.03872235  0.00000000       0.005
   0.05589090  0.01936118  0.00000000       0.005
   0.06706908  0.00000000  0.00000000       0.005
   0.07824726 -0.01936118  0.00000000       0.005
   0.08942544 -0.03872235  0.00000000       0.005
   0.10060362 -0.05808353  0.00000000       0.005
   0.11178180 -0.07744471  0.00000000       0.005
   0.12295998 -0.09680589  0.00000000       0.005
   0.13413816 -0.11616706  0.00000000       0.005
   0.14531634 -0.13552824  0.00000000       0.005
  -0.07824726  0.25169530  0.00000000       0.005
  -0.06706908  0.23233413  0.00000000       0.005
  -0.05589090  0.21297295  0.00000000       0.005
  -0.04471272  0.19361177  0.00000000       0.005
  -0.03353454  0.17425059  0.00000000       0.005
  -0.02235636  0.15488942  0.00000000       0.005
  -0.01117818  0.13552824  0.00000000       0.005
   0.00000000  0.11616706  0.00000000       0.005
   0.01117818  0.09680589  0.00000000       0.005
   0.02235636  0.07744471  0.00000000       0.005
   0.04471272  0.07744471  0.00000000       0.005
   0.05589090  0.05808353  0.00000000       0.005
   0.06706908  0.03872235  0.00000000       0.005
   0.07824726  0.01936118  0.00000000       0.005
   0.08942544  0.00000000  0.00000000       0.005
   0.10060362 -0.01936118  0.00000000       0.005
   0.11178180 -0.03872235  0.00000000       0.005
   0.12295998 -0.05808353  0.00000000       0.005
   0.13413816 -0.07744471  0.00000000       0.005
   0.14531634 -0.09680589  0.00000000       0.005
   0.15649452 -0.11616706  0.00000000       0.005
  -0.06706908  0.27105648  0.00000000       0.005
  -0.05589090  0.25169530  0.00000000       0.005
  -0.04471272  0.23233413  0.00000000       0.005
  -0.03353454  0.21297295  0.00000000       0.005
  -0.02235636  0.19361177  0.00000000       0.005
  -0.01117818  0.17425059  0.00000000       0.005
   0.00000000  0.15488942  0.00000000       0.005
   0.01117818  0.13552824  0.00000000       0.005
   0.02235636  0.11616706  0.00000000       0.005
   0.03353454  0.09680589  0.00000000       0.005
   0.05589090  0.09680589  0.00000000       0.005
   0.06706908  0.07744471  0.00000000       0.005
   0.07824726  0.05808353  0.00000000       0.005
   0.08942544  0.03872235  0.00000000       0.005
   0.10060362  0.01936118  0.00000000       0.005
   0.11178180  0.00000000  0.00000000       0.005
   0.12295998 -0.01936118  0.00000000       0.005
   0.13413816 -0.03872235  0.00000000       0.005
   0.14531634 -0.05808353  0.00000000       0.005
   0.15649452 -0.07744471  0.00000000       0.005
   0.16767270 -0.09680589  0.00000000       0.005
  -0.05589090  0.29041766  0.00000000       0.005
  -0.04471272  0.27105648  0.00000000       0.005
  -0.03353454  0.25169530  0.00000000       0.005
  -0.02235636  0.23233413  0.00000000       0.005
  -0.01117818  0.21297295  0.00000000       0.005
   0.00000000  0.19361177  0.00000000       0.005
   0.01117818  0.17425059  0.00000000       0.005
   0.02235636  0.15488942  0.00000000       0.005
   0.03353454  0.13552824  0.00000000       0.005
   0.04471272  0.11616706  0.00000000       0.005
   0.06706908  0.11616706  0.00000000       0.005
   0.07824726  0.09680589  0.00000000       0.005
   0.08942544  0.07744471  0.00000000       0.005
   0.10060362  0.05808353  0.00000000       0.005
   0.11178180  0.03872235  0.00000000       0.005
   0.12295998  0.01936118  0.00000000       0.005
   0.13413816 -0.00000000  0.00000000       0.005
   0.14531634 -0.01936118  0.00000000       0.005
   0.15649452 -0.03872235  0.00000000       0.005
   0.16767270 -0.05808353  0.00000000       0.005
   0.17885088 -0.07744471  0.00000000       0.005
  -0.04471272  0.30977883  0.00000000       0.005
  -0.03353454  0.29041766  0.00000000       0.005
  -0.02235636  0.27105648  0.00000000       0.005
  -0.01117818  0.25169530  0.00000000       0.005
   0.00000000  0.23233413  0.00000000       0.005
   0.01117818  0.21297295  0.00000000       0.005
   0.02235636  0.19361177  0.00000000       0.005
   0.03353454  0.17425059  0.00000000       0.005
   0.04471272  0.15488942  0.00000000       0.005
   0.05589090  0.13552824  0.00000000       0.005
   0.07824726  0.13552824  0.00000000       0.005
   0.08942544  0.11616706  0.00000000       0.005
   0.10060362  0.09680589  0.00000000       0.005
   0.11178180  0.07744471  0.00000000       0.005
   0.12295998  0.05808353  0.00000000       0.005
   0.13413816  0.03872235  0.00000000       0.005
   0.14531634  0.01936118  0.00000000       0.005
   0.15649452 -0.00000000  0.00000000       0.005
   0.16767270 -0.01936118  0.00000000       0.005
   0.17885088 -0.03872235  0.00000000       0.005
   0.19002906 -0.05808353  0.00000000       0.005
  -0.03353454  0.32914001  0.00000000       0.005
  -0.02235636  0.30977883  0.00000000       0.005
  -0.01117818  0.29041766  0.00000000       0.005
   0.00000000  0.27105648  0.00000000       0.005
   0.01117818  0.25169530  0.00000000       0.005
   0.02235636  0.23233413  0.00000000       0.005
   0.03353454  0.21297295  0.00000000       0.005
   0.04471272  0.19361177  0.00000000       0.005
   0.05589090  0.17425059  0.00000000       0.005
   0.06706908  0.15488942  0.00000000       0.005
   0.08942544  0.15488942  0.00000000       0.005
   0.10060362  0.13552824  0.00000000       0.005
   0.11178180  0.11616706  0.00000000       0.005
   0.12295998  0.09680589  0.00000000       0.005
   0.13413816  0.07744471  0.00000000       0.005
   0.14531634  0.05808353  0.00000000       0.005
   0.15649452  0.03872235  0.00000000       0.005
   0.16767270  0.01936118  0.00000000       0.005
   0.17885088 -0.00000000  0.00000000       0.005
   0.19002906 -0.01936118  0.00000000       0.005
   0.20120724 -0.03872235  0.00000000       0.005
  -0.02235636  0.34850119  0.00000000       0.005
  -0.01117818  0.32914001  0.00000000       0.005
   0.00000000  0.30977883  0.00000000       0.005
   0.01117818  0.29041766  0.00000000       0.005
   0.02235636  0.27105648  0.00000000       0.005
   0.03353454  0.25169530  0.00000000       0.005
   0.04471272  0.23233413  0.00000000       0.005
   0.05589090  0.21297295  0.00000000       0.005
   0.06706908  0.19361177  0.00000000       0.005
   0.07824726  0.17425059  0.00000000       0.005
   0.10060362  0.17425059  0.00000000       0.005
   0.11178180  0.15488942  0.00000000       0.005
   0.12295998  0.13552824  0.00000000       0.005
   0.13413816  0.11616706  0.00000000       0.005
   0.14531634  0.09680589  0.00000000       0.005
   0.15649452  0.07744471  0.00000000       0.005
   0.16767270  0.05808353  0.00000000       0.005
   0.17885088  0.03872235  0.00000000       0.005
   0.19002906  0.01936118  0.00000000       0.005
   0.20120724 -0.00000000  0.00000000       0.005
   0.21238542 -0.01936118  0.00000000       0.005
  -0.01117818  0.36786237  0.00000000       0.005
   0.00000000  0.34850119  0.00000000       0.005
   0.01117818  0.32914001  0.00000000       0.005
   0.02235636  0.30977883  0.00000000       0.005
   0.03353454  0.29041766  0.00000000       0.005
   0.04471272  0.27105648  0.00000000       0.005
   0.05589090  0.25169530  0.00000000       0.005
   0.06706908  0.23233413  0.00000000       0.005
   0.07824726  0.21297295  0.00000000       0.005
   0.08942544  0.19361177  0.00000000       0.005
   0.11178180  0.19361177  0.00000000       0.005
   0.12295998  0.17425059  0.00000000       0.005
   0.13413816  0.15488942  0.00000000       0.005
   0.14531634  0.13552824  0.00000000       0.005
   0.15649452  0.11616706  0.00000000       0.005
   0.16767270  0.09680589  0.00000000       0.005
   0.17885088  0.07744471  0.00000000       0.005
   0.19002906  0.05808353  0.00000000       0.005
   0.20120724  0.03872235  0.00000000       0.005
   0.21238542  0.01936118  0.00000000       0.005
   0.22356360  0.00000000  0.00000000       0.005
   0.00000000  0.38722354  0.00000000       0.005
   0.01117818  0.36786237  0.00000000       0.005
   0.02235636  0.34850119  0.00000000       0.005
   0.03353454  0.32914001  0.00000000       0.005
   0.04471272  0.30977883  0.00000000       0.005
   0.05589090  0.29041766  0.00000000       0.005
   0.06706908  0.27105648  0.00000000       0.005
   0.07824726  0.25169530  0.00000000       0.005
   0.08942544  0.23233413  0.00000000       0.005
   0.10060362  0.21297295  0.00000000       0.005
 
 k-points in reciprocal lattice and weights: k grid                                  
   0.00000000  0.00000000  0.00000000       0.002
   0.04761905  0.00000000  0.00000000       0.005
   0.09523810  0.00000000  0.00000000       0.005
   0.14285714  0.00000000  0.00000000       0.005
   0.19047619  0.00000000  0.00000000       0.005
   0.23809524  0.00000000  0.00000000       0.005
   0.28571429  0.00000000  0.00000000       0.005
   0.33333333  0.00000000  0.00000000       0.005
   0.38095238  0.00000000  0.00000000       0.005
   0.42857143  0.00000000  0.00000000       0.005
   0.47619048  0.00000000  0.00000000       0.005
   0.00000000  0.04761905  0.00000000       0.005
   0.04761905  0.04761905  0.00000000       0.005
   0.09523810  0.04761905  0.00000000       0.005
   0.14285714  0.04761905  0.00000000       0.005
   0.19047619  0.04761905  0.00000000       0.005
   0.23809524  0.04761905  0.00000000       0.005
   0.28571429  0.04761905  0.00000000       0.005
   0.33333333  0.04761905  0.00000000       0.005
   0.38095238  0.04761905  0.00000000       0.005
   0.42857143  0.04761905  0.00000000       0.005
   0.47619048  0.04761905  0.00000000       0.005
  -0.47619048  0.04761905  0.00000000       0.005
  -0.42857143  0.04761905  0.00000000       0.005
  -0.38095238  0.04761905  0.00000000       0.005
  -0.33333333  0.04761905  0.00000000       0.005
  -0.28571429  0.04761905  0.00000000       0.005
  -0.23809524  0.04761905  0.00000000       0.005
  -0.19047619  0.04761905  0.00000000       0.005
  -0.14285714  0.04761905  0.00000000       0.005
  -0.09523810  0.04761905  0.00000000       0.005
  -0.04761905  0.04761905  0.00000000       0.005
   0.00000000  0.09523810  0.00000000       0.005
   0.04761905  0.09523810  0.00000000       0.005
   0.09523810  0.09523810  0.00000000       0.005
   0.14285714  0.09523810  0.00000000       0.005
   0.19047619  0.09523810  0.00000000       0.005
   0.23809524  0.09523810  0.00000000       0.005
   0.28571429  0.09523810  0.00000000       0.005
   0.33333333  0.09523810  0.00000000       0.005
   0.38095238  0.09523810  0.00000000       0.005
   0.42857143  0.09523810  0.00000000       0.005
   0.47619048  0.09523810  0.00000000       0.005
  -0.47619048  0.09523810  0.00000000       0.005
  -0.42857143  0.09523810  0.00000000       0.005
  -0.38095238  0.09523810  0.00000000       0.005
  -0.33333333  0.09523810  0.00000000       0.005
  -0.28571429  0.09523810  0.00000000       0.005
  -0.23809524  0.09523810  0.00000000       0.005
  -0.19047619  0.09523810  0.00000000       0.005
  -0.14285714  0.09523810  0.00000000       0.005
  -0.09523810  0.09523810  0.00000000       0.005
  -0.04761905  0.09523810  0.00000000       0.005
   0.00000000  0.14285714  0.00000000       0.005
   0.04761905  0.14285714  0.00000000       0.005
   0.09523810  0.14285714  0.00000000       0.005
   0.14285714  0.14285714  0.00000000       0.005
   0.19047619  0.14285714  0.00000000       0.005
   0.23809524  0.14285714  0.00000000       0.005
   0.28571429  0.14285714  0.00000000       0.005
   0.33333333  0.14285714  0.00000000       0.005
   0.38095238  0.14285714  0.00000000       0.005
   0.42857143  0.14285714  0.00000000       0.005
   0.47619048  0.14285714  0.00000000       0.005
  -0.47619048  0.14285714  0.00000000       0.005
  -0.42857143  0.14285714  0.00000000       0.005
  -0.38095238  0.14285714  0.00000000       0.005
  -0.33333333  0.14285714  0.00000000       0.005
  -0.28571429  0.14285714  0.00000000       0.005
  -0.23809524  0.14285714  0.00000000       0.005
  -0.19047619  0.14285714  0.00000000       0.005
  -0.14285714  0.14285714  0.00000000       0.005
  -0.09523810  0.14285714  0.00000000       0.005
  -0.04761905  0.14285714  0.00000000       0.005
   0.00000000  0.19047619  0.00000000       0.005
   0.04761905  0.19047619  0.00000000       0.005
   0.09523810  0.19047619  0.00000000       0.005
   0.14285714  0.19047619  0.00000000       0.005
   0.19047619  0.19047619  0.00000000       0.005
   0.23809524  0.19047619  0.00000000       0.005
   0.28571429  0.19047619  0.00000000       0.005
   0.33333333  0.19047619  0.00000000       0.005
   0.38095238  0.19047619  0.00000000       0.005
   0.42857143  0.19047619  0.00000000       0.005
   0.47619048  0.19047619  0.00000000       0.005
  -0.47619048  0.19047619  0.00000000       0.005
  -0.42857143  0.19047619  0.00000000       0.005
  -0.38095238  0.19047619  0.00000000       0.005
  -0.33333333  0.19047619  0.00000000       0.005
  -0.28571429  0.19047619  0.00000000       0.005
  -0.23809524  0.19047619  0.00000000       0.005
  -0.19047619  0.19047619  0.00000000       0.005
  -0.14285714  0.19047619  0.00000000       0.005
  -0.09523810  0.19047619  0.00000000       0.005
  -0.04761905  0.19047619  0.00000000       0.005
   0.00000000  0.23809524  0.00000000       0.005
   0.04761905  0.23809524  0.00000000       0.005
   0.09523810  0.23809524  0.00000000       0.005
   0.14285714  0.23809524  0.00000000       0.005
   0.19047619  0.23809524  0.00000000       0.005
   0.23809524  0.23809524  0.00000000       0.005
   0.28571429  0.23809524  0.00000000       0.005
   0.33333333  0.23809524  0.00000000       0.005
   0.38095238  0.23809524  0.00000000       0.005
   0.42857143  0.23809524  0.00000000       0.005
   0.47619048  0.23809524  0.00000000       0.005
  -0.47619048  0.23809524  0.00000000       0.005
  -0.42857143  0.23809524  0.00000000       0.005
  -0.38095238  0.23809524  0.00000000       0.005
  -0.33333333  0.23809524  0.00000000       0.005
  -0.28571429  0.23809524  0.00000000       0.005
  -0.23809524  0.23809524  0.00000000       0.005
  -0.19047619  0.23809524  0.00000000       0.005
  -0.14285714  0.23809524  0.00000000       0.005
  -0.09523810  0.23809524  0.00000000       0.005
  -0.04761905  0.23809524  0.00000000       0.005
   0.00000000  0.28571429  0.00000000       0.005
   0.04761905  0.28571429  0.00000000       0.005
   0.09523810  0.28571429  0.00000000       0.005
   0.14285714  0.28571429  0.00000000       0.005
   0.19047619  0.28571429  0.00000000       0.005
   0.23809524  0.28571429  0.00000000       0.005
   0.28571429  0.28571429  0.00000000       0.005
   0.33333333  0.28571429  0.00000000       0.005
   0.38095238  0.28571429  0.00000000       0.005
   0.42857143  0.28571429  0.00000000       0.005
   0.47619048  0.28571429  0.00000000       0.005
  -0.47619048  0.28571429  0.00000000       0.005
  -0.42857143  0.28571429  0.00000000       0.005
  -0.38095238  0.28571429  0.00000000       0.005
  -0.33333333  0.28571429  0.00000000       0.005
  -0.28571429  0.28571429  0.00000000       0.005
  -0.23809524  0.28571429  0.00000000       0.005
  -0.19047619  0.28571429  0.00000000       0.005
  -0.14285714  0.28571429  0.00000000       0.005
  -0.09523810  0.28571429  0.00000000       0.005
  -0.04761905  0.28571429  0.00000000       0.005
   0.00000000  0.33333333  0.00000000       0.005
   0.04761905  0.33333333  0.00000000       0.005
   0.09523810  0.33333333  0.00000000       0.005
   0.14285714  0.33333333  0.00000000       0.005
   0.19047619  0.33333333  0.00000000       0.005
   0.23809524  0.33333333  0.00000000       0.005
   0.28571429  0.33333333  0.00000000       0.005
   0.33333333  0.33333333  0.00000000       0.005
   0.38095238  0.33333333  0.00000000       0.005
   0.42857143  0.33333333  0.00000000       0.005
   0.47619048  0.33333333  0.00000000       0.005
  -0.47619048  0.33333333  0.00000000       0.005
  -0.42857143  0.33333333  0.00000000       0.005
  -0.38095238  0.33333333  0.00000000       0.005
  -0.33333333  0.33333333  0.00000000       0.005
  -0.28571429  0.33333333  0.00000000       0.005
  -0.23809524  0.33333333  0.00000000       0.005
  -0.19047619  0.33333333  0.00000000       0.005
  -0.14285714  0.33333333  0.00000000       0.005
  -0.09523810  0.33333333  0.00000000       0.005
  -0.04761905  0.33333333  0.00000000       0.005
   0.00000000  0.38095238  0.00000000       0.005
   0.04761905  0.38095238  0.00000000       0.005
   0.09523810  0.38095238  0.00000000       0.005
   0.14285714  0.38095238  0.00000000       0.005
   0.19047619  0.38095238  0.00000000       0.005
   0.23809524  0.38095238  0.00000000       0.005
   0.28571429  0.38095238  0.00000000       0.005
   0.33333333  0.38095238  0.00000000       0.005
   0.38095238  0.38095238  0.00000000       0.005
   0.42857143  0.38095238  0.00000000       0.005
   0.47619048  0.38095238  0.00000000       0.005
  -0.47619048  0.38095238  0.00000000       0.005
  -0.42857143  0.38095238  0.00000000       0.005
  -0.38095238  0.38095238  0.00000000       0.005
  -0.33333333  0.38095238  0.00000000       0.005
  -0.28571429  0.38095238  0.00000000       0.005
  -0.23809524  0.38095238  0.00000000       0.005
  -0.19047619  0.38095238  0.00000000       0.005
  -0.14285714  0.38095238  0.00000000       0.005
  -0.09523810  0.38095238  0.00000000       0.005
  -0.04761905  0.38095238  0.00000000       0.005
   0.00000000  0.42857143  0.00000000       0.005
   0.04761905  0.42857143  0.00000000       0.005
   0.09523810  0.42857143  0.00000000       0.005
   0.14285714  0.42857143  0.00000000       0.005
   0.19047619  0.42857143  0.00000000       0.005
   0.23809524  0.42857143  0.00000000       0.005
   0.28571429  0.42857143  0.00000000       0.005
   0.33333333  0.42857143  0.00000000       0.005
   0.38095238  0.42857143  0.00000000       0.005
   0.42857143  0.42857143  0.00000000       0.005
   0.47619048  0.42857143  0.00000000       0.005
  -0.47619048  0.42857143  0.00000000       0.005
  -0.42857143  0.42857143  0.00000000       0.005
  -0.38095238  0.42857143  0.00000000       0.005
  -0.33333333  0.42857143  0.00000000       0.005
  -0.28571429  0.42857143  0.00000000       0.005
  -0.23809524  0.42857143  0.00000000       0.005
  -0.19047619  0.42857143  0.00000000       0.005
  -0.14285714  0.42857143  0.00000000       0.005
  -0.09523810  0.42857143  0.00000000       0.005
  -0.04761905  0.42857143  0.00000000       0.005
   0.00000000  0.47619048  0.00000000       0.005
   0.04761905  0.47619048  0.00000000       0.005
   0.09523810  0.47619048  0.00000000       0.005
   0.14285714  0.47619048  0.00000000       0.005
   0.19047619  0.47619048  0.00000000       0.005
   0.23809524  0.47619048  0.00000000       0.005
   0.28571429  0.47619048  0.00000000       0.005
   0.33333333  0.47619048  0.00000000       0.005
   0.38095238  0.47619048  0.00000000       0.005
   0.42857143  0.47619048  0.00000000       0.005
   0.47619048  0.47619048  0.00000000       0.005
  -0.47619048  0.47619048  0.00000000       0.005
  -0.42857143  0.47619048  0.00000000       0.005
  -0.38095238  0.47619048  0.00000000       0.005
  -0.33333333  0.47619048  0.00000000       0.005
  -0.28571429  0.47619048  0.00000000       0.005
  -0.23809524  0.47619048  0.00000000       0.005
  -0.19047619  0.47619048  0.00000000       0.005
  -0.14285714  0.47619048  0.00000000       0.005
  -0.09523810  0.47619048  0.00000000       0.005
  -0.04761905  0.47619048  0.00000000       0.005
 
 position of ions in fractional coordinates (direct lattice) 
   0.01000000  0.02000000  0.00000000
   0.33333300  0.33333300  0.00000000
 
 position of ions in cartesian coordinates  (Angst):
   0.06390000  0.01229756  0.00000000
   1.41999858  0.00000000  0.00000000
 


--------------------------------------------------------------------------------------------------------


 k-point  1 :   0.0000 0.0000 0.0000  plane waves:    5409
 k-point  2 :   0.0476 0.0000 0.0000  plane waves:    5413
 k-point  3 :   0.0952 0.0000 0.0000  plane waves:    5402
 k-point  4 :   0.1429 0.0000 0.0000  plane waves:    5398
 k-point  5 :   0.1905 0.0000 0.0000  plane waves:    5404
 k-point  6 :   0.2381 0.0000 0.0000  plane waves:    5408
 k-point  7 :   0.2857 0.0000 0.0000  plane waves:    5404
 k-point  8 :   0.3333 0.0000 0.0000  plane waves:    5394
 k-point  9 :   0.3810 0.0000 0.0000  plane waves:    5382
 k-point 10 :   0.4286 0.0000 0.0000  plane waves:    5396
 k-point 11 :   0.4762 0.0000 0.0000  plane waves:    5380
 k-point 12 :   0.0000 0.0476 0.0000  plane waves:    5413
 k-point 13 :   0.0476 0.0476 0.0000  plane waves:    5413
 k-point 14 :   0.0952 0.0476 0.0000  plane waves:    5411
 k-point 15 :   0.1429 0.0476 0.0000  plane waves:    5415
 k-point 16 :   0.1905 0.0476 0.0000  plane waves:    5413
 k-point 17 :   0.2381 0.0476 0.0000  plane waves:    5399
 k-point 18 :   0.2857 0.0476 0.0000  plane waves:    5396
 k-point 19 :   0.3333 0.0476 0.0000  plane waves:    5389
 k-point 20 :   0.3810 0.0476 0.0000  plane waves:    5378
 k-point 21 :   0.4286 0.0476 0.0000  plane waves:    5381
 k-point 22 :   0.4762 0.0476 0.0000  plane waves:    5391
 k-point 23 :  -0.4762 0.0476 0.0000  plane waves:    5394
 k-point 24 :  -0.4286 0.0476 0.0000  plane waves:    5391
 k-point 25 :  -0.3810 0.0476 0.0000  plane waves:    5381
 k-point 26 :  -0.3333 0.0476 0.0000  plane waves:    5378
 k-point 27 :  -0.2857 0.0476 0.0000  plane waves:    5389
 k-point 28 :  -0.2381 0.0476 0.0000  plane waves:    5396
 k-point 29 :  -0.1905 0.0476 0.0000  plane waves:    5399
 k-point 30 :  -0.1429 0.0476 0.0000  plane waves:    5413
 k-point 31 :  -0.0952 0.0476 0.0000  plane waves:    5415
 k-point 32 :  -0.0476 0.0476 0.0000  plane waves:    5411
 k-point 33 :   0.0000 0.0952 0.0000  plane waves:    5402
 k-point 34 :   0.0476 0.0952 0.0000  plane waves:    5411
 k-point 35 :   0.0952 0.0952 0.0000  plane waves:    5402
 k-point 36 :   0.1429 0.0952 0.0000  plane waves:    5415
 k-point 37 :   0.1905 0.0952 0.0000  plane waves:    5403
 k-point 38 :   0.2381 0.0952 0.0000  plane waves:    5409
 k-point 39 :   0.2857 0.0952 0.0000  plane waves:    5419
 k-point 40 :   0.3333 0.0952 0.0000  plane waves:    5384
 k-point 41 :   0.3810 0.0952 0.0000  plane waves:    5369
 k-point 42 :   0.4286 0.0952 0.0000  plane waves:    5364
 k-point 43 :   0.4762 0.0952 0.0000  plane waves:    5382
 k-point 44 :  -0.4762 0.0952 0.0000  plane waves:    5404
 k-point 45 :  -0.4286 0.0952 0.0000  plane waves:    5404
 k-point 46 :  -0.3810 0.0952 0.0000  plane waves:    5382
 k-point 47 :  -0.3333 0.0952 0.0000  plane waves:    5364
 k-point 48 :  -0.2857 0.0952 0.0000  plane waves:    5369
 k-point 49 :  -0.2381 0.0952 0.0000  plane waves:    5384
 k-point 50 :  -0.1905 0.0952 0.0000  plane waves:    5419
 k-point 51 :  -0.1429 0.0952 0.0000  plane waves:    5409
 k-point 52 :  -0.0952 0.0952 0.0000  plane waves:    5403
 k-point 53 :  -0.0476 0.0952 0.0000  plane waves:    5415
 k-point 54 :   0.0000 0.1429 0.0000  plane waves:    5398
 k-point 55 :   0.0476 0.1429 0.0000  plane waves:    5415
 k-point 56 :   0.0952 0.1429 0.0000  plane waves:    5415
 k-point 57 :   0.1429 0.1429 0.0000  plane waves:    5398
 k-point 58 :   0.1905 0.1429 0.0000  plane waves:    5413
 k-point 59 :   0.2381 0.1429 0.0000  plane waves:    5409
 k-point 60 :   0.2857 0.1429 0.0000  plane waves:    5405
 k-point 61 :   0.3333 0.1429 0.0000  plane waves:    5404
 k-point 62 :   0.3810 0.1429 0.0000  plane waves:    5382
 k-point 63 :   0.4286 0.1429 0.0000  plane waves:    5347
 k-point 64 :   0.4762 0.1429 0.0000  plane waves:    5367
 k-point 65 :  -0.4762 0.1429 0.0000  plane waves:    5376
 k-point 66 :  -0.4286 0.1429 0.0000  plane waves:    5400
 k-point 67 :  -0.3810 0.1429 0.0000  plane waves:    5376
 k-point 68 :  -0.3333 0.1429 0.0000  plane waves:    5367
 k-point 69 :  -0.2857 0.1429 0.0000  plane waves:    5347
 k-point 70 :  -0.2381 0.1429 0.0000  plane waves:    5382
 k-point 71 :  -0.1905 0.1429 0.0000  plane waves:    5404
 k-point 72 :  -0.1429 0.1429 0.0000  plane waves:    5405
 k-point 73 :  -0.0952 0.1429 0.0000  plane waves:    5409
 k-point 74 :  -0.0476 0.1429 0.0000  plane waves:    5413
 k-point 75 :   0.0000 0.1905 0.0000  plane waves:    5404
 k-point 76 :   0.0476 0.1905 0.0000  plane waves:    5413
 k-point 77 :   0.0952 0.1905 0.0000  plane waves:    5403
 k-point 78 :   0.1429 0.1905 0.0000  plane waves:    5413
 k-point 79 :   0.1905 0.1905 0.0000  plane waves:    5404
 k-point 80 :   0.2381 0.1905 0.0000  plane waves:    5399
 k-point 81 :   0.2857 0.1905 0.0000  plane waves:    5419
 k-point 82 :   0.3333 0.1905 0.0000  plane waves:    5404
 k-point 83 :   0.3810 0.1905 0.0000  plane waves:    5390
 k-point 84 :   0.4286 0.1905 0.0000  plane waves:    5358
 k-point 85 :   0.4762 0.1905 0.0000  plane waves:    5365
 k-point 86 :  -0.4762 0.1905 0.0000  plane waves:    5363
 k-point 87 :  -0.4286 0.1905 0.0000  plane waves:    5377
 k-point 88 :  -0.3810 0.1905 0.0000  plane waves:    5377
 k-point 89 :  -0.3333 0.1905 0.0000  plane waves:    5363
 k-point 90 :  -0.2857 0.1905 0.0000  plane waves:    5365
 k-point 91 :  -0.2381 0.1905 0.0000  plane waves:    5358
 k-point 92 :  -0.1905 0.1905 0.0000  plane waves:    5390
 k-point 93 :  -0.1429 0.1905 0.0000  plane waves:    5404
 k-point 94 :  -0.0952 0.1905 0.0000  plane waves:    5419
 k-point 95 :  -0.0476 0.1905 0.0000  plane waves:    5399
 k-point 96 :   0.0000 0.2381 0.0000  plane waves:    5408
 k-point 97 :   0.0476 0.2381 0.0000  plane waves:    5399
 k-point 98 :   0.0952 0.2381 0.0000  plane waves:    5409
 k-point 99 :   0.1429 0.2381 0.0000  plane waves:    5409
 k-point ** :   0.1905 0.2381 0.0000  plane waves:    5399
 k-point ** :   0.2381 0.2381 0.0000  plane waves:    5408
 k-point ** :   0.2857 0.2381 0.0000  plane waves:    5396
 k-point ** :   0.3333 0.2381 0.0000  plane waves:    5384
 k-point ** :   0.3810 0.2381 0.0000  plane waves:    5382
 k-point ** :   0.4286 0.2381 0.0000  plane waves:    5358
 k-point ** :   0.4762 0.2381 0.0000  plane waves:    5364
 k-point ** :  -0.4762 0.2381 0.0000  plane waves:    5368
 k-point ** :  -0.4286 0.2381 0.0000  plane waves:    5360
 k-point ** :  -0.3810 0.2381 0.0000  plane waves:    5366
 k-point ** :  -0.3333 0.2381 0.0000  plane waves:    5360
 k-point ** :  -0.2857 0.2381 0.0000  plane waves:    5368
 k-point ** :  -0.2381 0.2381 0.0000  plane waves:    5364
 k-point ** :  -0.1905 0.2381 0.0000  plane waves:    5358
 k-point ** :  -0.1429 0.2381 0.0000  plane waves:    5382
 k-point ** :  -0.0952 0.2381 0.0000  plane waves:    5384
 k-point ** :  -0.0476 0.2381 0.0000  plane waves:    5396
 k-point ** :   0.0000 0.2857 0.0000  plane waves:    5404
 k-point ** :   0.0476 0.2857 0.0000  plane waves:    5396
 k-point ** :   0.0952 0.2857 0.0000  plane waves:    5419
 k-point ** :   0.1429 0.2857 0.0000  plane waves:    5405
 k-point ** :   0.1905 0.2857 0.0000  plane waves:    5419
 k-point ** :   0.2381 0.2857 0.0000  plane waves:    5396
 k-point ** :   0.2857 0.2857 0.0000  plane waves:    5404
 k-point ** :   0.3333 0.2857 0.0000  plane waves:    5389
 k-point ** :   0.3810 0.2857 0.0000  plane waves:    5369
 k-point ** :   0.4286 0.2857 0.0000  plane waves:    5347
 k-point ** :   0.4762 0.2857 0.0000  plane waves:    5365
 k-point ** :  -0.4762 0.2857 0.0000  plane waves:    5368
 k-point ** :  -0.4286 0.2857 0.0000  plane waves:    5362
 k-point ** :  -0.3810 0.2857 0.0000  plane waves:    5326
 k-point ** :  -0.3333 0.2857 0.0000  plane waves:    5326
 k-point ** :  -0.2857 0.2857 0.0000  plane waves:    5362
 k-point ** :  -0.2381 0.2857 0.0000  plane waves:    5368
 k-point ** :  -0.1905 0.2857 0.0000  plane waves:    5365
 k-point ** :  -0.1429 0.2857 0.0000  plane waves:    5347
 k-point ** :  -0.0952 0.2857 0.0000  plane waves:    5369
 k-point ** :  -0.0476 0.2857 0.0000  plane waves:    5389
 k-point ** :   0.0000 0.3333 0.0000  plane waves:    5394
 k-point ** :   0.0476 0.3333 0.0000  plane waves:    5389
 k-point ** :   0.0952 0.3333 0.0000  plane waves:    5384
 k-point ** :   0.1429 0.3333 0.0000  plane waves:    5404
 k-point ** :   0.1905 0.3333 0.0000  plane waves:    5404
 k-point ** :   0.2381 0.3333 0.0000  plane waves:    5384
 k-point ** :   0.2857 0.3333 0.0000  plane waves:    5389
 k-point ** :   0.3333 0.3333 0.0000  plane waves:    5394
 k-point ** :   0.3810 0.3333 0.0000  plane waves:    5378
 k-point ** :   0.4286 0.3333 0.0000  plane waves:    5364
 k-point ** :   0.4762 0.3333 0.0000  plane waves:    5367
 k-point ** :  -0.4762 0.3333 0.0000  plane waves:    5363
 k-point ** :  -0.4286 0.3333 0.0000  plane waves:    5360
 k-point ** :  -0.3810 0.3333 0.0000  plane waves:    5326
 k-point ** :  -0.3333 0.3333 0.0000  plane waves:    5334
 k-point ** :  -0.2857 0.3333 0.0000  plane waves:    5326
 k-point ** :  -0.2381 0.3333 0.0000  plane waves:    5360
 k-point ** :  -0.1905 0.3333 0.0000  plane waves:    5363
 k-point ** :  -0.1429 0.3333 0.0000  plane waves:    5367
 k-point ** :  -0.0952 0.3333 0.0000  plane waves:    5364
 k-point ** :  -0.0476 0.3333 0.0000  plane waves:    5378
 k-point ** :   0.0000 0.3810 0.0000  plane waves:    5382
 k-point ** :   0.0476 0.3810 0.0000  plane waves:    5378
 k-point ** :   0.0952 0.3810 0.0000  plane waves:    5369
 k-point ** :   0.1429 0.3810 0.0000  plane waves:    5382
 k-point ** :   0.1905 0.3810 0.0000  plane waves:    5390
 k-point ** :   0.2381 0.3810 0.0000  plane waves:    5382
 k-point ** :   0.2857 0.3810 0.0000  plane waves:    5369
 k-point ** :   0.3333 0.3810 0.0000  plane waves:    5378
 k-point ** :   0.3810 0.3810 0.0000  plane waves:    5382
 k-point ** :   0.4286 0.3810 0.0000  plane waves:    5381
 k-point ** :   0.4762 0.3810 0.0000  plane waves:    5382
 k-point ** :  -0.4762 0.3810 0.0000  plane waves:    5376
 k-point ** :  -0.4286 0.3810 0.0000  plane waves:    5377
 k-point ** :  -0.3810 0.3810 0.0000  plane waves:    5366
 k-point ** :  -0.3333 0.3810 0.0000  plane waves:    5326
 k-point ** :  -0.2857 0.3810 0.0000  plane waves:    5326
 k-point ** :  -0.2381 0.3810 0.0000  plane waves:    5366
 k-point ** :  -0.1905 0.3810 0.0000  plane waves:    5377
 k-point ** :  -0.1429 0.3810 0.0000  plane waves:    5376
 k-point ** :  -0.0952 0.3810 0.0000  plane waves:    5382
 k-point ** :  -0.0476 0.3810 0.0000  plane waves:    5381
 k-point ** :   0.0000 0.4286 0.0000  plane waves:    5396
 k-point ** :   0.0476 0.4286 0.0000  plane waves:    5381
 k-point ** :   0.0952 0.4286 0.0000  plane waves:    5364
 k-point ** :   0.1429 0.4286 0.0000  plane waves:    5347
 k-point ** :   0.1905 0.4286 0.0000  plane waves:    5358
 k-point ** :   0.2381 0.4286 0.0000  plane waves:    5358
 k-point ** :   0.2857 0.4286 0.0000  plane waves:    5347
 k-point ** :   0.3333 0.4286 0.0000  plane waves:    5364
 k-point ** :   0.3810 0.4286 0.0000  plane waves:    5381
 k-point ** :   0.4286 0.4286 0.0000  plane waves:    5396
 k-point ** :   0.4762 0.4286 0.0000  plane waves:    5391
 k-point ** :  -0.4762 0.4286 0.0000  plane waves:    5404
 k-point ** :  -0.4286 0.4286 0.0000  plane waves:    5400
 k-point ** :  -0.3810 0.4286 0.0000  plane waves:    5377
 k-point ** :  -0.3333 0.4286 0.0000  plane waves:    5360
 k-point ** :  -0.2857 0.4286 0.0000  plane waves:    5362
 k-point ** :  -0.2381 0.4286 0.0000  plane waves:    5360
 k-point ** :  -0.1905 0.4286 0.0000  plane waves:    5377
 k-point ** :  -0.1429 0.4286 0.0000  plane waves:    5400
 k-point ** :  -0.0952 0.4286 0.0000  plane waves:    5404
 k-point ** :  -0.0476 0.4286 0.0000  plane waves:    5391
 k-point ** :   0.0000 0.4762 0.0000  plane waves:    5380
 k-point ** :   0.0476 0.4762 0.0000  plane waves:    5391
 k-point ** :   0.0952 0.4762 0.0000  plane waves:    5382
 k-point ** :   0.1429 0.4762 0.0000  plane waves:    5367
 k-point ** :   0.1905 0.4762 0.0000  plane waves:    5365
 k-point ** :   0.2381 0.4762 0.0000  plane waves:    5364
 k-point ** :   0.2857 0.4762 0.0000  plane waves:    5365
 k-point ** :   0.3333 0.4762 0.0000  plane waves:    5367
 k-point ** :   0.3810 0.4762 0.0000  plane waves:    5382
 k-point ** :   0.4286 0.4762 0.0000  plane waves:    5391
 k-point ** :   0.4762 0.4762 0.0000  plane waves:    5380
 k-point ** :  -0.4762 0.4762 0.0000  plane waves:    5394
 k-point ** :  -0.4286 0.4762 0.0000  plane waves:    5404
 k-point ** :  -0.3810 0.4762 0.0000  plane waves:    5376
 k-point ** :  -0.3333 0.4762 0.0000  plane waves:    5363
 k-point ** :  -0.2857 0.4762 0.0000  plane waves:    5368
 k-point ** :  -0.2381 0.4762 0.0000  plane waves:    5368
 k-point ** :  -0.1905 0.4762 0.0000  plane waves:    5363
 k-point ** :  -0.1429 0.4762 0.0000  plane waves:    5376
 k-point ** :  -0.0952 0.4762 0.0000  plane waves:    5404
 k-point ** :  -0.0476 0.4762 0.0000  plane waves:    5394

 maximum and minimum number of plane-waves per node :      5419     5326

 maximum number of plane-waves:      5419
 maximum index in each direction: 
   IXMAX=    6   IYMAX=    5   IZMAX=   46
   IXMIN=   -6   IYMIN=   -6   IZMIN=  -46


 serial   3D FFT for wavefunctions
 parallel 3D FFT for charge:
    minimum data exchange during FFTs selected (reduces bandwidth)


 total amount of memory used by VASP MPI-rank0   193088. kBytes
=======================================================================

   base      :      30000. kBytes
   nonl-proj :      76833. kBytes
   fftplans  :      32720. kBytes
   grid      :      15086. kBytes
   one-center:          6. kBytes
   wavefun   :      38443. kBytes
 
     INWAV:  cpu time    0.0000: real time    0.0001
 Broyden mixing: mesh for mixing (old mesh)
   NGX = 11   NGY = 11   NGZ = 93
  (NGX  = 48   NGY  = 48   NGZ  =384)
  gives a total of  11253 points

 initial charge density was supplied:
 charge density of overlapping atoms calculated
 number of electron       8.0000000 magnetization 
 keeping initial charge density in first step


--------------------------------------------------------------------------------------------------------


 Maximum index for augmentation-charges        24200 (set IRDMAX)


--------------------------------------------------------------------------------------------------------


 First call to EWALD:  gamma=   0.376
 Maximum number of real-space cells 5x 5x 1
 Maximum number of reciprocal cells 2x 2x10

    FEWALD:  cpu time    0.0011: real time    0.0011



--------------------------------------- Iteration      1(   1)  ---------------------------------------


    POTLOK:  cpu time    0.0866: real time    0.1044
    SETDIJ:  cpu time    0.0367: real time    0.0368
     EDDAV:  cpu time    3.8706: real time    3.8798
       DOS:  cpu time    0.0010: real time    0.0010
    --------------------------------------------
      LOOP:  cpu time    3.9949: real time    4.0220

 eigenvalue-minimisations  :  3536
 total energy-change (2. order) : 0.5643512E+02  (-0.3686510E+03)
 number of electron       8.0000000 magnetization 
 augmentation part        8.0000000 magnetization 

 Free energy of the ion-electron system (eV)
  ---------------------------------------------------
  alpha Z        PSCENC =         3.13611264
  Ewald energy   TEWEN  =      1303.43657780
  -Hartree energ DENC   =     -1515.29224648
  -exchange      EXHF   =         0.00000000
  -V(xc)+E(xc)   XCENC  =        26.40098624
  PAW double counting   =       217.04409276     -218.18290438
  entropy T*S    EENTRO =        -0.00009962
  eigenvalues    EBANDS =       -54.41624555
  atomic energy  EATOM  =       294.30884690
  Solvation  Ediel_sol  =         0.00000000
  ---------------------------------------------------
  free energy    TOTEN  =        56.43512032 eV

  energy without entropy =       56.43521994  energy(sigma->0) =       56.43517013


--------------------------------------------------------------------------------------------------------




--------------------------------------- Iteration      1(   2)  ---------------------------------------


     EDDAV:  cpu time    5.0682: real time    5.0829
       DOS:  cpu time    0.0004: real time    0.0004
    --------------------------------------------
      LOOP:  cpu time    5.0686: real time    5.0834

 eigenvalue-minimisations  :  5296
 total energy-change (2. order) :-0.7131408E+02  (-0.5546106E+02)
 number of electron       8.0000000 magnetization 
 augmentation part        8.0000000 magnetization 

 Free energy of the ion-electron system (eV)
  ---------------------------------------------------
  alpha Z        PSCENC =         3.13611264
  Ewald energy   TEWEN  =      1303.43657780
  -Hartree energ DENC   =     -1515.29224648
  -exchange      EXHF   =         0.00000000
  -V(xc)+E(xc)   XCENC  =        26.40098624
  PAW double counting   =       217.04409276     -218.18290438
  entropy T*S    EENTRO =        -0.00000000
  eigenvalues    EBANDS =      -125.73042780
  atomic energy  EATOM  =       294.30884690
  Solvation  Ediel_sol  =         0.00000000
  ---------------------------------------------------
  free energy    TOTEN  =       -14.87896231 eV

  energy without entropy =      -14.87896231  energy(sigma->0) =      -14.87896231


--------------------------------------------------------------------------------------------------------




--------------------------------------- Iteration      1(   3)  ---------------------------------------


     EDDAV:  cpu time    5.0415: real time    5.0538
       DOS:  cpu time    0.0004: real time    0.0004
    --------------------------------------------
      LOOP:  cpu time    5.0419: real time    5.0542

 eigenvalue-minimisations  :  5136
 total energy-change (2. order) :-0.4761001E+01  (-0.4727758E+01)
 number of electron       8.0000000 magnetization 
 augmentation part        8.0000000 magnetization 

 Free energy of the ion-electron system (eV)
  ---------------------------------------------------
  alpha Z        PSCENC =         3.13611264
  Ewald energy   TEWEN  =      1303.43657780
  -Hartree energ DENC   =     -1515.29224648
  -exchange      EXHF   =         0.00000000
  -V(xc)+E(xc)   XCENC  =        26.40098624
  PAW double counting   =       217.04409276     -218.18290438
  entropy T*S    EENTRO =        -0.00000000
  eigenvalues    EBANDS =      -130.49142882
  atomic energy  EATOM  =       294.30884690
  Solvation  Ediel_sol  =         0.00000000
  ---------------------------------------------------
  free energy    TOTEN  =       -19.63996333 eV

  energy without entropy =      -19.63996333  energy(sigma->0) =      -19.63996333


--------------------------------------------------------------------------------------------------------




--------------------------------------- Iteration      1(   4)  ---------------------------------------


     EDDAV:  cpu time    5.3043: real time    5.3172
       DOS:  cpu time    0.0003: real time    0.0003
    --------------------------------------------
      LOOP:  cpu time    5.3047: real time    5.3176

 eigenvalue-minimisations  :  5592
 total energy-change (2. order) :-0.3792272E-01  (-0.3792272E-01)
 number of electron       8.0000000 magnetization 
 augmentation part        8.0000000 magnetization 

 Free energy of the ion-electron system (eV)
  ---------------------------------------------------
  alpha Z        PSCENC =         3.13611264
  Ewald energy   TEWEN  =      1303.43657780
  -Hartree energ DENC   =     -1515.29224648
  -exchange      EXHF   =         0.00000000
  -V(xc)+E(xc)   XCENC  =        26.40098624
  PAW double counting   =       217.04409276     -218.18290438
  entropy T*S    EENTRO =        -0.00000000
  eigenvalues    EBANDS =      -130.52935154
  atomic energy  EATOM  =       294.30884690
  Solvation  Ediel_sol  =         0.00000000
  ---------------------------------------------------
  free energy    TOTEN  =       -19.67788605 eV

  energy without entropy =      -19.67788605  energy(sigma->0) =      -19.67788605


--------------------------------------------------------------------------------------------------------




--------------------------------------- Iteration      1(   5)  ---------------------------------------


     EDDAV:  cpu time    5.1317: real time    5.1442
       DOS:  cpu time    0.0004: real time    0.0004
    CHARGE:  cpu time    0.3249: real time    0.3256
    MIXING:  cpu time    0.0026: real time    0.0026
    --------------------------------------------
      LOOP:  cpu time    5.4595: real time    5.4728

 eigenvalue-minimisations  :  5288
 total energy-change (2. order) :-0.2831777E-03  (-0.2831777E-03)
 number of electron       8.0000000 magnetization 
 augmentation part        0.2153907 magnetization 

 Broyden mixing:
  rms(total) = 0.64472E+00    rms(broyden)= 0.64471E+00
  rms(prec ) = 0.68947E+00
  weight for this iteration     100.00

 Free energy of the ion-electron system (eV)
  ---------------------------------------------------
  alpha Z        PSCENC =         3.13611264
  Ewald energy   TEWEN  =      1303.43657780
  -Hartree energ DENC   =     -1515.29224648
  -exchange      EXHF   =         0.00000000
  -V(xc)+E(xc)   XCENC  =        26.40098624
  PAW double counting   =       217.04409276     -218.18290438
  entropy T*S    EENTRO =        -0.00000000
  eigenvalues    EBANDS =      -130.52963471
  atomic energy  EATOM  =       294.30884690
  Solvation  Ediel_sol  =         0.00000000
  ---------------------------------------------------
  free energy    TOTEN  =       -19.67816922 eV

  energy without entropy =      -19.67816922  energy(sigma->0) =      -19.67816922


--------------------------------------------------------------------------------------------------------




[...]
  band No.  band energies     occupation 
      1     -18.0814      2.00000
      2     -14.7654      2.00000
      3      -9.0344      2.00000
      4      -5.7599      2.00000
      5      -0.1941      0.00000
      6       4.7879      0.00000
      7       6.4218      0.00000
      8       7.2866      0.00000

 k-point   190 :       0.4762    0.4286    0.0000
  band No.  band energies     occupation 
      1     -17.6074      2.00000
      2     -15.2706      2.00000
      3      -9.2801      2.00000
      4      -5.3768      2.00000
      5      -0.6456      0.00000
      6       4.9990      0.00000
      7       7.1322      0.00000
      8       7.9925      0.00000

 k-point   191 :      -0.4762    0.4286    0.0000
  band No.  band energies     occupation 
      1     -17.0959      2.00000
      2     -15.6366      2.00000
      3      -9.8195      2.00000
      4      -4.9928      2.00000
      5      -0.9875      0.00000
      6       5.6663      0.00000
      7       7.9716      0.00000
      8       8.7581      0.00000

 k-point   192 :      -0.4286    0.4286    0.0000
  band No.  band energies     occupation 
      1     -16.7123      2.00000
      2     -15.7023      2.00000
      3     -10.5611      2.00000
      4      -4.6579      2.00000
      5      -1.1908      0.00000
      6       6.6872      0.00000
      7       8.8355      0.00000
      8       9.0729      0.00000

 k-point   193 :      -0.3810    0.4286    0.0000
  band No.  band energies     occupation 
      1     -16.6765      2.00000
      2     -15.2665      2.00000
      3     -11.3985      2.00000
      4      -4.4161      2.00000
      5      -1.2579      0.00000
      6       7.9271      0.00000
      7       8.5732      0.00000
      8       8.6153      0.00000

 k-point   194 :      -0.3333    0.4286    0.0000
  band No.  band energies     occupation 
      1     -16.7543      2.00000
      2     -14.6286      2.00000
      3     -12.2023      2.00000
      4      -4.2817      2.00000
      5      -1.2415      0.00000
      6       8.1982      0.00000
      7       8.3373      0.00000
      8       9.2703      0.00000

 k-point   195 :      -0.2857    0.4286    0.0000
  band No.  band energies     occupation 
      1     -16.7889      2.00000
      2     -14.2493      2.00000
      3     -12.6323      2.00000
      4      -4.2405      2.00000
      5      -1.2227      0.00000
      6       8.0393      0.00000
      7       8.2703      0.00000
      8       9.7805      0.00000

 k-point   196 :      -0.2381    0.4286    0.0000
  band No.  band energies     occupation 
      1     -16.7543      2.00000
      2     -14.6286      2.00000
      3     -12.2024      2.00000
      4      -4.2818      2.00000
      5      -1.2415      0.00000
      6       8.1982      0.00000
      7       8.3373      0.00000
      8       9.2703      0.00000

 k-point   197 :      -0.1905    0.4286    0.0000
  band No.  band energies     occupation 
      1     -16.6765      2.00000
      2     -15.2664      2.00000
      3     -11.3986      2.00000
      4      -4.4162      2.00000
      5      -1.2577      0.00000
      6       7.9270      0.00000
      7       8.5732      0.00000
      8       8.6153      0.00000

 k-point   198 :      -0.1429    0.4286    0.0000
  band No.  band energies     occupation 
      1     -16.7123      2.00000
      2     -15.7022      2.00000
      3     -10.5612      2.00000
      4      -4.6580      2.00000
      5      -1.1907      0.00000
      6       6.6872      0.00000
      7       8.8355      0.00000
      8       9.0197      0.00000

 k-point   199 :      -0.0952    0.4286    0.0000
  band No.  band energies     occupation 
      1     -17.0959      2.00000
      2     -15.6365      2.00000
      3      -9.8196      2.00000
      4      -4.9929      2.00000
      5      -0.9873      0.00000
      6       5.6663      0.00000
      7       7.9716      0.00000
      8       8.7580      0.00000

 k-point   200 :      -0.0476    0.4286    0.0000
  band No.  band energies     occupation 
      1     -17.6074      2.00000
      2     -15.2705      2.00000
      3      -9.2802      2.00000
      4      -5.3769      2.00000
      5      -0.6454      0.00000
      6       4.9990      0.00000
      7       7.1322      0.00000
      8       7.9925      0.00000

 k-point   201 :       0.0000    0.4762    0.0000
  band No.  band energies     occupation 
      1     -17.2366      2.00000
      2     -15.7695      2.00000
      3      -9.1412      2.00000
      4      -5.1873      2.00000
      5      -0.9338      0.00000
      6       4.7363      0.00000
      7       7.7690      0.00000
      8       8.6434      0.00000

 k-point   202 :       0.0476    0.4762    0.0000
  band No.  band energies     occupation 
      1     -17.6074      2.00000
      2     -15.2705      2.00000
      3      -9.2802      2.00000
      4      -5.3769      2.00000
      5      -0.6454      0.00000
      6       4.9990      0.00000
      7       7.1322      0.00000
      8       7.9925      0.00000

 k-point   203 :       0.0952    0.4762    0.0000
  band No.  band energies     occupation 
      1     -17.9342      2.00000
      2     -14.6459      2.00000
      3      -9.7101      2.00000
      4      -5.5751      2.00000
      5      -0.2533      0.00000
      6       5.7141      0.00000
      7       6.6371      0.00000
      8       7.4615      0.00000

 k-point   204 :       0.1429    0.4762    0.0000
  band No.  band energies     occupation 
      1     -18.1780      2.00000
      2     -13.9559      2.00000
      3     -10.3307      2.00000
      4      -5.7424      2.00000
      5       0.1527      0.00000
      6       6.2451      0.00000
      7       6.8203      0.00000
      8       7.0621      0.00000

 k-point   205 :       0.1905    0.4762    0.0000
  band No.  band energies     occupation 
      1     -18.3272      2.00000
      2     -13.2793      2.00000
      3     -10.9968      2.00000
      4      -5.8524      2.00000
      5       0.4664      0.00000
      6       6.0422      0.00000
      7       6.8073      0.00000
      8       7.3932      0.00000

 k-point   206 :       0.2381    0.4762    0.0000
  band No.  band energies     occupation 
      1     -18.3773      2.00000
      2     -12.9086      2.00000
      3     -11.3694      2.00000
      4      -5.8905      2.00000
      5       0.5860      0.00000
      6       5.9712      0.00000
      7       6.7183      0.00000
      8       7.3192      0.00000

 k-point   207 :       0.2857    0.4762    0.0000
  band No.  band energies     occupation 
      1     -18.3272      2.00000
      2     -13.2794      2.00000
      3     -10.9968      2.00000
      4      -5.8523      2.00000
      5       0.4663      0.00000
      6       6.0422      0.00000
      7       6.8073      0.00000
      8       7.3932      0.00000

 k-point   208 :       0.3333    0.4762    0.0000
  band No.  band energies     occupation 
      1     -18.1780      2.00000
      2     -13.9560      2.00000
      3     -10.3306      2.00000
      4      -5.7424      2.00000
      5       0.1526      0.00000
      6       6.2451      0.00000
      7       6.8203      0.00000
      8       7.0621      0.00000

 k-point   209 :       0.3810    0.4762    0.0000
  band No.  band energies     occupation 
      1     -17.9342      2.00000
      2     -14.6459      2.00000
      3      -9.7100      2.00000
      4      -5.5751      2.00000
      5      -0.2535      0.00000
      6       5.7141      0.00000
      7       6.6371      0.00000
      8       7.4615      0.00000

 k-point   210 :       0.4286    0.4762    0.0000
  band No.  band energies     occupation 
      1     -17.6074      2.00000
      2     -15.2706      2.00000
      3      -9.2801      2.00000
      4      -5.3768      2.00000
      5      -0.6456      0.00000
      6       4.9990      0.00000
      7       7.1322      0.00000
      8       7.9925      0.00000

 k-point   211 :       0.4762    0.4762    0.0000
  band No.  band energies     occupation 
      1     -17.2366      2.00000
      2     -15.7696      2.00000
      3      -9.1411      2.00000
      4      -5.1872      2.00000
      5      -0.9340      0.00000
      6       4.7364      0.00000
      7       7.7690      0.00000
      8       8.6434      0.00000

 k-point   212 :      -0.4762    0.4762    0.0000
  band No.  band energies     occupation 
      1     -16.9885      2.00000
      2     -15.9688      2.00000
      3      -9.3339      2.00000
      4      -5.0507      2.00000
      5      -1.0541      0.00000
      6       4.9728      0.00000
      7       8.4643      0.00000
      8       8.6202      0.00000

 k-point   213 :      -0.4286    0.4762    0.0000
  band No.  band energies     occupation 
      1     -17.0959      2.00000
      2     -15.6366      2.00000
      3      -9.8195      2.00000
      4      -4.9928      2.00000
      5      -0.9875      0.00000
      6       5.6663      0.00000
      7       7.9716      0.00000
      8       8.7581      0.00000

 k-point   214 :      -0.3810    0.4762    0.0000
  band No.  band energies     occupation 
      1     -17.3198      2.00000
      2     -15.0234      2.00000
      3     -10.5035      2.00000
      4      -5.0008      2.00000
      5      -0.7819      0.00000
      6       6.7095      0.00000
      7       7.5511      0.00000
      8       8.2517      0.00000

 k-point   215 :      -0.3333    0.4762    0.0000
  band No.  band energies     occupation 
      1     -17.4964      2.00000
      2     -14.3277      2.00000
      3     -11.2680      2.00000
      4      -5.0365      2.00000
      5      -0.5387      0.00000
      6       7.2404      0.00000
      7       7.8658      0.00000
      8       8.0105      0.00000

 k-point   216 :      -0.2857    0.4762    0.0000
  band No.  band energies     occupation 
      1     -17.5893      2.00000
      2     -13.7228      2.00000
      3     -11.9172      2.00000
      4      -5.0641      2.00000
      5      -0.3756      0.00000
      6       7.1038      0.00000
      7       7.6467      0.00000
      8       8.5149      0.00000

 k-point   217 :      -0.2381    0.4762    0.0000
  band No.  band energies     occupation 
      1     -17.5893      2.00000
      2     -13.7227      2.00000
      3     -11.9172      2.00000
      4      -5.0641      2.00000
      5      -0.3756      0.00000
      6       7.1038      0.00000
      7       7.6467      0.00000
      8       8.5149      0.00000

 k-point   218 :      -0.1905    0.4762    0.0000
  band No.  band energies     occupation 
      1     -17.4964      2.00000
      2     -14.3276      2.00000
      3     -11.2681      2.00000
      4      -5.0366      2.00000
      5      -0.5387      0.00000
      6       7.2404      0.00000
      7       7.8658      0.00000
      8       8.0104      0.00000

 k-point   219 :      -0.1429    0.4762    0.0000
  band No.  band energies     occupation 
      1     -17.3198      2.00000
      2     -15.0234      2.00000
      3     -10.5036      2.00000
      4      -5.0009      2.00000
      5      -0.7818      0.00000
      6       6.7095      0.00000
      7       7.5511      0.00000
      8       8.2517      0.00000

 k-point   220 :      -0.0952    0.4762    0.0000
  band No.  band energies     occupation 
      1     -17.0959      2.00000
      2     -15.6365      2.00000
      3      -9.8196      2.00000
      4      -4.9929      2.00000
      5      -0.9873      0.00000
      6       5.6663      0.00000
      7       7.9716      0.00000
      8       8.7581      0.00000

 k-point   221 :      -0.0476    0.4762    0.0000
  band No.  band energies     occupation 
      1     -16.9885      2.00000
      2     -15.9686      2.00000
      3      -9.3340      2.00000
      4      -5.0508      2.00000
      5      -1.0539      0.00000
      6       4.9728      0.00000
      7       8.4643      0.00000
      8       8.6202      0.00000


--------------------------------------------------------------------------------------------------------


 soft charge-density along one line, spin component           1
         0         1         2         3         4         5         6         7         8         9
 total charge-density along one line
 
 pseudopotential strength for first ion, spin component:           1
 10.216  13.585  -0.000   0.000  -0.000   0.000  -0.000   0.000
 13.585  18.066  -0.000   0.000  -0.000   0.000  -0.000   0.000
 -0.000  -0.000  -4.346   0.000  -0.000   8.501  -0.000   0.000
  0.000   0.000   0.000  -4.339  -0.000  -0.000   8.491   0.000
 -0.000  -0.000  -0.000  -0.000  -4.346   0.000   0.000   8.501
  0.000   0.000   8.501  -0.000   0.000 -18.763   0.000  -0.000
 -0.000  -0.000  -0.000   8.491   0.000   0.000 -18.754  -0.000
  0.000   0.000   0.000   0.000   8.501  -0.000  -0.000 -18.763
 total augmentation occupancy for first ion, spin component:           1
  8.117  -3.602  -0.000   0.000   0.000  -0.000   0.000   0.000
 -3.602   1.656   0.000   0.000  -0.000   0.000   0.000  -0.000
 -0.000   0.000   1.837   0.000   0.000   0.173   0.000   0.000
  0.000   0.000   0.000   1.199   0.000   0.000   0.073   0.000
  0.000  -0.000   0.000   0.000   1.837   0.000   0.000   0.173
 -0.000   0.000   0.173   0.000   0.000   0.018   0.000   0.000
  0.000   0.000   0.000   0.073   0.000   0.000   0.005   0.000
  0.000  -0.000   0.000   0.000   0.173   0.000   0.000   0.018


------------------------ aborting loop because EDIFF is reached ----------------------------------------


    CHARGE:  cpu time    0.3180: real time    0.3187
    FORLOC:  cpu time    0.0037: real time    0.0037
    FORNL :  cpu time    0.4172: real time    0.4182
    STRESS:  cpu time    2.9072: real time    2.9141
    FORCOR:  cpu time    0.0699: real time    0.0700
    FORHAR:  cpu time    0.0175: real time    0.0176
    MIXING:  cpu time    0.0027: real time    0.0027
    OFIELD:  cpu time    0.0000: real time    0.0000

  FORCE on cell =-STRESS in cart. coord.  units (eV):
  Direction    XX          YY          ZZ          XY          YZ          ZX
  --------------------------------------------------------------------------------------
  Alpha Z     3.13611     3.13611     3.13611
  Ewald    1572.61793  1572.61237 -1842.19716     0.00047     0.00000     0.00000
  Hartree  1538.78514  1538.78423 -1527.52126     0.00008    -0.00000    -0.00000
  E(xc)     -29.75970   -29.75972   -30.87542     0.00000     0.00000    -0.00000
  Local   -3196.91990 -3196.91424  3266.99930    -0.00048    -0.00000    -0.00000
  n-local    -7.14436    -7.14436    -6.50390     0.00000     0.00000    -0.00000
  augment    -0.78557    -0.78557    -0.72207     0.00000    -0.00000    -0.00000
  Kinetic   120.48515   120.48673   137.66194    -0.00014    -0.00000     0.00000
  Fock        0.00000     0.00000     0.00000     0.00000     0.00000     0.00000
  -------------------------------------------------------------------------------------
  Total       0.41480     0.41555    -0.02247    -0.00007     0.00000     0.00000
  in kB       6.34297     6.35442    -0.34357    -0.00101     0.00000     0.00000
  external pressure =        4.12 kB  Pullay stress =        0.00 kB


 VOLUME and BASIS-vectors are now :
 -----------------------------------------------------------------------------
  energy-cutoff  :      800.00
  volume of cell :      104.78
      direct lattice vectors                 reciprocal lattice vectors
     2.130000000 -1.229756000  0.000000000     0.234741784 -0.406584721  0.000000000
     2.130000000  1.229756000  0.000000000     0.234741784  0.406584721  0.000000000
     0.000000000  0.000000000 20.000000000     0.000000000  0.000000000  0.050000000

  length of vectors
     2.459512110  2.459512110 20.000000000     0.469483589  0.469483589  0.050000000


 FORCES acting on ions
    electron-ion (+dipol)            ewald-force                    non-local-force                 convergence-correction
 -----------------------------------------------------------------------------------------------
   0.221E-02 -.383E-03 -.980E-09   -.225E-02 0.381E-03 0.160E-22   -.112E-03 0.182E-04 0.129E-25   0.256E-05 0.507E-05 0.215E-13
   -.221E-02 0.383E-03 0.179E-08   0.225E-02 -.381E-03 -.160E-22   0.112E-03 -.182E-04 -.129E-25   -.256E-05 -.507E-05 0.198E-13
 -----------------------------------------------------------------------------------------------
   -.288E-07 0.167E-07 0.810E-09   0.429E-14 0.228E-14 0.000E+00   0.136E-19 -.339E-20 0.000E+00   0.960E-12 -.232E-11 0.413E-13
 
 
 POSITION                                       TOTAL-FORCE (eV/Angst)
 -----------------------------------------------------------------------------------
      0.03196      0.00615     -0.00000        -0.000152      0.000021     -0.000000
      1.45194      0.00615      0.00000         0.000152     -0.000021      0.000000
 -----------------------------------------------------------------------------------
    total drift:                               -0.000000      0.000000      0.000000


--------------------------------------------------------------------------------------------------------



  FREE ENERGIE OF THE ION-ELECTRON SYSTEM (eV)
  ---------------------------------------------------
  free  energy   TOTEN  =       -18.46430051 eV

  energy  without entropy=      -18.46424934  energy(sigma->0) =      -18.46427492
 
 d Force = 0.1132877E-07[-0.241E-08, 0.251E-07]  d Energy = 0.1144474E-07-0.116E-09
 d Force = 0.1799234E-06[-0.327E-07, 0.393E-06]  d Ewald  = 0.1799176E-06 0.568E-11


--------------------------------------------------------------------------------------------------------


    POTLOK:  cpu time    0.0983: real time    0.0985


--------------------------------------------------------------------------------------------------------




--------------------------------------------------------------------------------------------------------


  
 reached required accuracy - stopping structural energy minimisation
     LOOP+:  cpu time   28.6942: real time   28.8568
00. kBytes
   nonl-proj :      76833. kBytes
   fftplans  :      32720. kBytes
   grid      :      15086. kBytes
   one-center:          6. kBytes
   wavefun   :      38443. kBytes
 
  
  
 General timing and accounting informations for this job:
 ========================================================
  
                  Total CPU time used (sec):      552.187
                            User time (sec):      549.636
                          System time (sec):        2.551
                         Elapsed time (sec):      554.935
  
                   Maximum memory used (kb):      295940.
                   Average memory used (kb):           0.
  
                          Minor page faults:       164368
                          Major page faults:            0
                 Voluntary context switches:         1580
    4ORBIT:  cpu time    0.0000: real time    0.0000

 total amount of memory used by VASP MPI-rank0   193088. kBytes
=======================================================================

   base      :      30000. kBytes
   nonl-proj :      76833. kBytes
   fftplans  :      32720. kBytes
   grid      :      15086. kBytes
   one-center:          6. kBytes
   wavefun   :      38443. kBytes
 
  
  
 General timing and accounting informations for this job:
 ========================================================
  
                  Total CPU time used (sec):      554.820
                            User time (sec):      552.088
                          System time (sec):        2.732
                         Elapsed time (sec):      557.762
  
                   Maximum memory used (kb):      296620.
                   Average memory used (kb):           0.
  
                          Minor page faults:       163860
                          Major page faults:            0
                 Voluntary context switches:         1680
