<?xml version="1.0" encoding="ISO-8859-1"?>
<modeling>
 <generator>
  <i name="program" type="string">vasp </i>
  <i name="version" type="string">5.4.4.18Apr17-6-g9f103f2a35  </i>
  <i name="subversion" type="string">(build May 31 2018 21:15:54) complex            parallel </i>
  <i name="platform" type="string">c7_intel_O1 </i>
  <i name="date" type="string">2020 07 22 </i>
  <i name="time" type="string">22:03:21 </i>
 </generator>
 <incar>
  <i type="string" name="SYSTEM"> C:graphene</i>
  <i type="int" name="ISTART">     0</i>
  <i type="string" name="PREC">accurate</i>
  <i type="string" name="ALGO"> N</i>
  <i type="logical" name="ADDGRID"> T  </i>
  <i name="AMIN">      0.01000000</i>
  <i type="int" name="NELMIN">     5</i>
  <i type="int" name="IBRION">     2</i>
  <i name="EDIFF">      0.00000001</i>
  <i name="EDIFFG">      0.00000010</i>
  <i type="int" name="NSW">    80</i>
  <i name="SYMPREC">      0.00010000</i>
  <i name="ENCUT">    800.00000000</i>
  <i type="logical" name="LREAL"> F  </i>
  <i type="int" name="ISMEAR">     0</i>
  <i name="SIGMA">      0.01000000</i>
  <i type="logical" name="LWAVE"> F  </i>
  <v type="int" name="KPOINT_BSE">    -1     0     0     0</v>
 </incar>
 <structure name="primitive_cell" >
  <crystal>
   <varray name="basis" >
    <v>       2.13000000      -1.22975600       0.00000000 </v>
    <v>       2.13000000       1.22975600       0.00000000 </v>
    <v>       0.00000000       0.00000000      20.00000000 </v>
   </varray>
   <i name="volume">    104.77521120 </i>
   <varray name="rec_basis" >
    <v>       0.23474178      -0.40658472       0.00000000 </v>
    <v>       0.23474178       0.40658472       0.00000000 </v>
    <v>       0.00000000       0.00000000       0.05000000 </v>
   </varray>
  </crystal>
  <varray name="positions" >
   <v>       0.01000000       0.02000000       0.00000000 </v>
   <v>       0.33333300       0.33333300       0.00000000 </v>
  </varray>
 </structure>
 <varray name="primitive_index" >
  <v type="int" >        1 </v>
  <v type="int" >        2 </v>
 </varray>
 <kpoints>
  <generation param="Gamma">
   <v type="int" name="divisions">      21       21        1 </v>
   <v name="usershift">      0.00000000       0.00000000       0.00000000 </v>
   <v name="genvec1">      0.04761905       0.00000000       0.00000000 </v>
   <v name="genvec2">      0.00000000       0.04761905       0.00000000 </v>
   <v name="genvec3">      0.00000000       0.00000000       1.00000000 </v>
   <v name="shift">      0.00000000       0.00000000       0.00000000 </v>
  </generation>
  <varray name="kpointlist" >
   <v>       0.00000000       0.00000000       0.00000000 </v>
   <v>       0.04761905       0.00000000       0.00000000 </v>
   <v>       0.09523810       0.00000000       0.00000000 </v>
   <v>       0.14285714       0.00000000       0.00000000 </v>
   <v>       0.19047619       0.00000000       0.00000000 </v>
   <v>       0.23809524       0.00000000       0.00000000 </v>
   <v>       0.28571429       0.00000000       0.00000000 </v>
   <v>       0.33333333       0.00000000       0.00000000 </v>
   <v>       0.38095238       0.00000000       0.00000000 </v>
   <v>       0.42857143       0.00000000       0.00000000 </v>
   <v>       0.47619048       0.00000000       0.00000000 </v>
   <v>       0.00000000       0.04761905       0.00000000 </v>
   <v>       0.04761905       0.04761905       0.00000000 </v>
   <v>       0.09523810       0.04761905       0.00000000 </v>
   <v>       0.14285714       0.04761905       0.00000000 </v>
   <v>       0.19047619       0.04761905       0.00000000 </v>
   <v>       0.23809524       0.04761905       0.00000000 </v>
   <v>       0.28571429       0.04761905       0.00000000 </v>
   <v>       0.33333333       0.04761905       0.00000000 </v>
   <v>       0.38095238       0.04761905       0.00000000 </v>
   <v>       0.42857143       0.04761905       0.00000000 </v>
   <v>       0.47619048       0.04761905       0.00000000 </v>
   <v>      -0.47619048       0.04761905       0.00000000 </v>
   <v>      -0.42857143       0.04761905       0.00000000 </v>
   <v>      -0.38095238       0.04761905       0.00000000 </v>
   <v>      -0.33333333       0.04761905       0.00000000 </v>
   <v>      -0.28571429       0.04761905       0.00000000 </v>
   <v>      -0.23809524       0.04761905       0.00000000 </v>
   <v>      -0.19047619       0.04761905       0.00000000 </v>
   <v>      -0.14285714       0.04761905       0.00000000 </v>
   <v>      -0.09523810       0.04761905       0.00000000 </v>
   <v>      -0.04761905       0.04761905       0.00000000 </v>
   <v>       0.00000000       0.09523810       0.00000000 </v>
   <v>       0.04761905       0.09523810       0.00000000 </v>
   <v>       0.09523810       0.09523810       0.00000000 </v>
   <v>       0.14285714       0.09523810       0.00000000 </v>
   <v>       0.19047619       0.09523810       0.00000000 </v>
   <v>       0.23809524       0.09523810       0.00000000 </v>
   <v>       0.28571429       0.09523810       0.00000000 </v>
   <v>       0.33333333       0.09523810       0.00000000 </v>
   <v>       0.38095238       0.09523810       0.00000000 </v>
   <v>       0.42857143       0.09523810       0.00000000 </v>
   <v>       0.47619048       0.09523810       0.00000000 </v>
   <v>      -0.47619048       0.09523810       0.00000000 </v>
   <v>      -0.42857143       0.09523810       0.00000000 </v>
   <v>      -0.38095238       0.09523810       0.00000000 </v>
   <v>      -0.33333333       0.09523810       0.00000000 </v>
   <v>      -0.28571429       0.09523810       0.00000000 </v>
   <v>      -0.23809524       0.09523810       0.00000000 </v>
   <v>      -0.19047619       0.09523810       0.00000000 </v>
   <v>      -0.14285714       0.09523810       0.00000000 </v>
   <v>      -0.09523810       0.09523810       0.00000000 </v>
   <v>      -0.04761905       0.09523810       0.00000000 </v>
   <v>       0.00000000       0.14285714       0.00000000 </v>
   <v>       0.04761905       0.14285714       0.00000000 </v>
   <v>       0.09523810       0.14285714       0.00000000 </v>
   <v>       0.14285714       0.14285714       0.00000000 </v>
   <v>       0.19047619       0.14285714       0.00000000 </v>
   <v>       0.23809524       0.14285714       0.00000000 </v>
   <v>       0.28571429       0.14285714       0.00000000 </v>
   <v>       0.33333333       0.14285714       0.00000000 </v>
   <v>       0.38095238       0.14285714       0.00000000 </v>
   <v>       0.42857143       0.14285714       0.00000000 </v>
   <v>       0.47619048       0.14285714       0.00000000 </v>
   <v>      -0.47619048       0.14285714       0.00000000 </v>
   <v>      -0.42857143       0.14285714       0.00000000 </v>
   <v>      -0.38095238       0.14285714       0.00000000 </v>
   <v>      -0.33333333       0.14285714       0.00000000 </v>
   <v>      -0.28571429       0.14285714       0.00000000 </v>
   <v>      -0.23809524       0.14285714       0.00000000 </v>
   <v>      -0.19047619       0.14285714       0.00000000 </v>
   <v>      -0.14285714       0.14285714       0.00000000 </v>
   <v>      -0.09523810       0.14285714       0.00000000 </v>
   <v>      -0.04761905       0.14285714       0.00000000 </v>
   <v>       0.00000000       0.19047619       0.00000000 </v>
   <v>       0.04761905       0.19047619       0.00000000 </v>
   <v>       0.09523810       0.19047619       0.00000000 </v>
   <v>       0.14285714       0.19047619       0.00000000 </v>
   <v>       0.19047619       0.19047619       0.00000000 </v>
   <v>       0.23809524       0.19047619       0.00000000 </v>
   <v>       0.28571429       0.19047619       0.00000000 </v>
   <v>       0.33333333       0.19047619       0.00000000 </v>
   <v>       0.38095238       0.19047619       0.00000000 </v>
   <v>       0.42857143       0.19047619       0.00000000 </v>
   <v>       0.47619048       0.19047619       0.00000000 </v>
   <v>      -0.47619048       0.19047619       0.00000000 </v>
   <v>      -0.42857143       0.19047619       0.00000000 </v>
   <v>      -0.38095238       0.19047619       0.00000000 </v>
   <v>      -0.33333333       0.19047619       0.00000000 </v>
   <v>      -0.28571429       0.19047619       0.00000000 </v>
   <v>      -0.23809524       0.19047619       0.00000000 </v>
   <v>      -0.19047619       0.19047619       0.00000000 </v>
   <v>      -0.14285714       0.19047619       0.00000000 </v>
   <v>      -0.09523810       0.19047619       0.00000000 </v>
   <v>      -0.04761905       0.19047619       0.00000000 </v>
   <v>       0.00000000       0.23809524       0.00000000 </v>
   <v>       0.04761905       0.23809524       0.00000000 </v>
   <v>       0.09523810       0.23809524       0.00000000 </v>
   <v>       0.14285714       0.23809524       0.00000000 </v>
   <v>       0.19047619       0.23809524       0.00000000 </v>
   <v>       0.23809524       0.23809524       0.00000000 </v>
   <v>       0.28571429       0.23809524       0.00000000 </v>
   <v>       0.33333333       0.23809524       0.00000000 </v>
   <v>       0.38095238       0.23809524       0.00000000 </v>
   <v>       0.42857143       0.23809524       0.00000000 </v>
   <v>       0.47619048       0.23809524       0.00000000 </v>
   <v>      -0.47619048       0.23809524       0.00000000 </v>
   <v>      -0.42857143       0.23809524       0.00000000 </v>
   <v>      -0.38095238       0.23809524       0.00000000 </v>
   <v>      -0.33333333       0.23809524       0.00000000 </v>
   <v>      -0.28571429       0.23809524       0.00000000 </v>
   <v>      -0.23809524       0.23809524       0.00000000 </v>
   <v>      -0.19047619       0.23809524       0.00000000 </v>
   <v>      -0.14285714       0.23809524       0.00000000 </v>
   <v>      -0.09523810       0.23809524       0.00000000 </v>
   <v>      -0.04761905       0.23809524       0.00000000 </v>
   <v>       0.00000000       0.28571429       0.00000000 </v>
   <v>       0.04761905       0.28571429       0.00000000 </v>
   <v>       0.09523810       0.28571429       0.00000000 </v>
   <v>       0.14285714       0.28571429       0.00000000 </v>
   <v>       0.19047619       0.28571429       0.00000000 </v>
   <v>       0.23809524       0.28571429       0.00000000 </v>
   <v>       0.28571429       0.28571429       0.00000000 </v>
   <v>       0.33333333       0.28571429       0.00000000 </v>
   <v>       0.38095238       0.28571429       0.00000000 </v>
   <v>       0.42857143       0.28571429       0.00000000 </v>
   <v>       0.47619048       0.28571429       0.00000000 </v>
   <v>      -0.47619048       0.28571429       0.00000000 </v>
   <v>      -0.42857143       0.28571429       0.00000000 </v>
   <v>      -0.38095238       0.28571429       0.00000000 </v>
   <v>      -0.33333333       0.28571429       0.00000000 </v>
   <v>      -0.28571429       0.28571429       0.00000000 </v>
   <v>      -0.23809524       0.28571429       0.00000000 </v>
   <v>      -0.19047619       0.28571429       0.00000000 </v>
   <v>      -0.14285714       0.28571429       0.00000000 </v>
   <v>      -0.09523810       0.28571429       0.00000000 </v>
   <v>      -0.04761905       0.28571429       0.00000000 </v>
   <v>       0.00000000       0.33333333       0.00000000 </v>
   <v>       0.04761905       0.33333333       0.00000000 </v>
   <v>       0.09523810       0.33333333       0.00000000 </v>
   <v>       0.14285714       0.33333333       0.00000000 </v>
   <v>       0.19047619       0.33333333       0.00000000 </v>
   <v>       0.23809524       0.33333333       0.00000000 </v>
   <v>       0.28571429       0.33333333       0.00000000 </v>
   <v>       0.33333333       0.33333333       0.00000000 </v>
   <v>       0.38095238       0.33333333       0.00000000 </v>
   <v>       0.42857143       0.33333333       0.00000000 </v>
   <v>       0.47619048       0.33333333       0.00000000 </v>
   <v>      -0.47619048       0.33333333       0.00000000 </v>
   <v>      -0.42857143       0.33333333       0.00000000 </v>
   <v>      -0.38095238       0.33333333       0.00000000 </v>
   <v>      -0.33333333       0.33333333       0.00000000 </v>
   <v>      -0.28571429       0.33333333       0.00000000 </v>
   <v>      -0.23809524       0.33333333       0.00000000 </v>
   <v>      -0.19047619       0.33333333       0.00000000 </v>
   <v>      -0.14285714       0.33333333       0.00000000 </v>
   <v>      -0.09523810       0.33333333       0.00000000 </v>
   <v>      -0.04761905       0.33333333       0.00000000 </v>
   <v>       0.00000000       0.38095238       0.00000000 </v>
   <v>       0.04761905       0.38095238       0.00000000 </v>
   <v>       0.09523810       0.38095238       0.00000000 </v>
   <v>       0.14285714       0.38095238       0.00000000 </v>
   <v>       0.19047619       0.38095238       0.00000000 </v>
   <v>       0.23809524       0.38095238       0.00000000 </v>
   <v>       0.28571429       0.38095238       0.00000000 </v>
   <v>       0.33333333       0.38095238       0.00000000 </v>
   <v>       0.38095238       0.38095238       0.00000000 </v>
   <v>       0.42857143       0.38095238       0.00000000 </v>
   <v>       0.47619048       0.38095238       0.00000000 </v>
   <v>      -0.47619048       0.38095238       0.00000000 </v>
   <v>      -0.42857143       0.38095238       0.00000000 </v>
   <v>      -0.38095238       0.38095238       0.00000000 </v>
   <v>      -0.33333333       0.38095238       0.00000000 </v>
   <v>      -0.28571429       0.38095238       0.00000000 </v>
   <v>      -0.23809524       0.38095238       0.00000000 </v>
   <v>      -0.19047619       0.38095238       0.00000000 </v>
   <v>      -0.14285714       0.38095238       0.00000000 </v>
   <v>      -0.09523810       0.38095238       0.00000000 </v>
   <v>      -0.04761905       0.38095238       0.00000000 </v>
   <v>       0.00000000       0.42857143       0.00000000 </v>
   <v>       0.04761905       0.42857143       0.00000000 </v>
   <v>       0.09523810       0.42857143       0.00000000 </v>
   <v>       0.14285714       0.42857143       0.00000000 </v>
   <v>       0.19047619       0.42857143       0.00000000 </v>
   <v>       0.23809524       0.42857143       0.00000000 </v>
   <v>       0.28571429       0.42857143       0.00000000 </v>
   <v>       0.33333333       0.42857143       0.00000000 </v>
   <v>       0.38095238       0.42857143       0.00000000 </v>
   <v>       0.42857143       0.42857143       0.00000000 </v>
   <v>       0.47619048       0.42857143       0.00000000 </v>
   <v>      -0.47619048       0.42857143       0.00000000 </v>
   <v>      -0.42857143       0.42857143       0.00000000 </v>
   <v>      -0.38095238       0.42857143       0.00000000 </v>
   <v>      -0.33333333       0.42857143       0.00000000 </v>
   <v>      -0.28571429       0.42857143       0.00000000 </v>
   <v>      -0.23809524       0.42857143       0.00000000 </v>
   <v>      -0.19047619       0.42857143       0.00000000 </v>
   <v>      -0.14285714       0.42857143       0.00000000 </v>
   <v>      -0.09523810       0.42857143       0.00000000 </v>
   <v>      -0.04761905       0.42857143       0.00000000 </v>
   <v>       0.00000000       0.47619048       0.00000000 </v>
   <v>       0.04761905       0.47619048       0.00000000 </v>
   <v>       0.09523810       0.47619048       0.00000000 </v>
   <v>       0.14285714       0.47619048       0.00000000 </v>
   <v>       0.19047619       0.47619048       0.00000000 </v>
   <v>       0.23809524       0.47619048       0.00000000 </v>
   <v>       0.28571429       0.47619048       0.00000000 </v>
   <v>       0.33333333       0.47619048       0.00000000 </v>
   <v>       0.38095238       0.47619048       0.00000000 </v>
   <v>       0.42857143       0.47619048       0.00000000 </v>
   <v>       0.47619048       0.47619048       0.00000000 </v>
   <v>      -0.47619048       0.47619048       0.00000000 </v>
   <v>      -0.42857143       0.47619048       0.00000000 </v>
   <v>      -0.38095238       0.47619048       0.00000000 </v>
   <v>      -0.33333333       0.47619048       0.00000000 </v>
   <v>      -0.28571429       0.47619048       0.00000000 </v>
   <v>      -0.23809524       0.47619048       0.00000000 </v>
   <v>      -0.19047619       0.47619048       0.00000000 </v>
   <v>      -0.14285714       0.47619048       0.00000000 </v>
   <v>      -0.09523810       0.47619048       0.00000000 </v>
   <v>      -0.04761905       0.47619048       0.00000000 </v>
  </varray>
  <varray name="weights" >
   <v>       0.00226757 </v>
   <v>       0.00453515 </v>
   <v>       0.00453515 </v>
   <v>       0.00453515 </v>
   <v>       0.00453515 </v>
   <v>       0.00453515 </v>
   <v>       0.00453515 </v>
   <v>       0.00453515 </v>
   <v>       0.00453515 </v>
   <v>       0.00453515 </v>
   <v>       0.00453515 </v>
   <v>       0.00453515 </v>
   <v>       0.00453515 </v>
   <v>       0.00453515 </v>
   <v>       0.00453515 </v>
   <v>       0.00453515 </v>
   <v>       0.00453515 </v>
   <v>       0.00453515 </v>
   <v>       0.00453515 </v>
   <v>       0.00453515 </v>
   <v>       0.00453515 </v>
   <v>       0.00453515 </v>
   <v>       0.00453515 </v>
   <v>       0.00453515 </v>
   <v>       0.00453515 </v>
   <v>       0.00453515 </v>
   <v>       0.00453515 </v>
   <v>       0.00453515 </v>
   <v>       0.00453515 </v>
   <v>       0.00453515 </v>
   <v>       0.00453515 </v>
   <v>       0.00453515 </v>
   <v>       0.00453515 </v>
   <v>       0.00453515 </v>
   <v>       0.00453515 </v>
   <v>       0.00453515 </v>
   <v>       0.00453515 </v>
   <v>       0.00453515 </v>
   <v>       0.00453515 </v>
   <v>       0.00453515 </v>
   <v>       0.00453515 </v>
   <v>       0.00453515 </v>
   <v>       0.00453515 </v>
   <v>       0.00453515 </v>
   <v>       0.00453515 </v>
   <v>       0.00453515 </v>
   <v>       0.00453515 </v>
   <v>       0.00453515 </v>
   <v>       0.00453515 </v>
   <v>       0.00453515 </v>
   <v>       0.00453515 </v>
   <v>       0.00453515 </v>
   <v>       0.00453515 </v>
   <v>       0.00453515 </v>
   <v>       0.00453515 </v>
   <v>       0.00453515 </v>
   <v>       0.00453515 </v>
   <v>       0.00453515 </v>
   <v>       0.00453515 </v>
   <v>       0.00453515 </v>
   <v>       0.00453515 </v>
   <v>       0.00453515 </v>
   <v>       0.00453515 </v>
   <v>       0.00453515 </v>
   <v>       0.00453515 </v>
   <v>       0.00453515 </v>
   <v>       0.00453515 </v>
   <v>       0.00453515 </v>
   <v>       0.00453515 </v>
   <v>       0.00453515 </v>
   <v>       0.00453515 </v>
   <v>       0.00453515 </v>
   <v>       0.00453515 </v>
   <v>       0.00453515 </v>
   <v>       0.00453515 </v>
   <v>       0.00453515 </v>
   <v>       0.00453515 </v>
   <v>       0.00453515 </v>
   <v>       0.00453515 </v>
   <v>       0.00453515 </v>
   <v>       0.00453515 </v>
   <v>       0.00453515 </v>
   <v>       0.00453515 </v>
   <v>       0.00453515 </v>
   <v>       0.00453515 </v>
   <v>       0.00453515 </v>
   <v>       0.00453515 </v>
   <v>       0.00453515 </v>
   <v>       0.00453515 </v>
   <v>       0.00453515 </v>
   <v>       0.00453515 </v>
   <v>       0.00453515 </v>
   <v>       0.00453515 </v>
   <v>       0.00453515 </v>
   <v>       0.00453515 </v>
   <v>       0.00453515 </v>
   <v>       0.00453515 </v>
   <v>       0.00453515 </v>
   <v>       0.00453515 </v>
   <v>       0.00453515 </v>
   <v>       0.00453515 </v>
   <v>       0.00453515 </v>
   <v>       0.00453515 </v>
   <v>       0.00453515 </v>
   <v>       0.00453515 </v>
   <v>       0.00453515 </v>
   <v>       0.00453515 </v>
   <v>       0.00453515 </v>
   <v>       0.00453515 </v>
   <v>       0.00453515 </v>
   <v>       0.00453515 </v>
   <v>       0.00453515 </v>
   <v>       0.00453515 </v>
   <v>       0.00453515 </v>
   <v>       0.00453515 </v>
   <v>       0.00453515 </v>
   <v>       0.00453515 </v>
   <v>       0.00453515 </v>
   <v>       0.00453515 </v>
   <v>       0.00453515 </v>
   <v>       0.00453515 </v>
   <v>       0.00453515 </v>
   <v>       0.00453515 </v>
   <v>       0.00453515 </v>
   <v>       0.00453515 </v>
   <v>       0.00453515 </v>
   <v>       0.00453515 </v>
   <v>       0.00453515 </v>
   <v>       0.00453515 </v>
   <v>       0.00453515 </v>
   <v>       0.00453515 </v>
   <v>       0.00453515 </v>
   <v>       0.00453515 </v>
   <v>       0.00453515 </v>
   <v>       0.00453515 </v>
   <v>       0.00453515 </v>
   <v>       0.00453515 </v>
   <v>       0.00453515 </v>
   <v>       0.00453515 </v>
   <v>       0.00453515 </v>
   <v>       0.00453515 </v>
   <v>       0.00453515 </v>
   <v>       0.00453515 </v>
   <v>       0.00453515 </v>
   <v>       0.00453515 </v>
   <v>       0.00453515 </v>
   <v>       0.00453515 </v>
   <v>       0.00453515 </v>
   <v>       0.00453515 </v>
   <v>       0.00453515 </v>
   <v>       0.00453515 </v>
   <v>       0.00453515 </v>
   <v>       0.00453515 </v>
   <v>       0.00453515 </v>
   <v>       0.00453515 </v>
   <v>       0.00453515 </v>
   <v>       0.00453515 </v>
   <v>       0.00453515 </v>
   <v>       0.00453515 </v>
   <v>       0.00453515 </v>
   <v>       0.00453515 </v>
   <v>       0.00453515 </v>
   <v>       0.00453515 </v>
   <v>       0.00453515 </v>
   <v>       0.00453515 </v>
   <v>       0.00453515 </v>
   <v>       0.00453515 </v>
   <v>       0.00453515 </v>
   <v>       0.00453515 </v>
   <v>       0.00453515 </v>
   <v>       0.00453515 </v>
   <v>       0.00453515 </v>
   <v>       0.00453515 </v>
   <v>       0.00453515 </v>
   <v>       0.00453515 </v>
   <v>       0.00453515 </v>
   <v>       0.00453515 </v>
   <v>       0.00453515 </v>
   <v>       0.00453515 </v>
   <v>       0.00453515 </v>
   <v>       0.00453515 </v>
   <v>       0.00453515 </v>
   <v>       0.00453515 </v>
   <v>       0.00453515 </v>
   <v>       0.00453515 </v>
   <v>       0.00453515 </v>
   <v>       0.00453515 </v>
   <v>       0.00453515 </v>
   <v>       0.00453515 </v>
   <v>       0.00453515 </v>
   <v>       0.00453515 </v>
   <v>       0.00453515 </v>
   <v>       0.00453515 </v>
   <v>       0.00453515 </v>
   <v>       0.00453515 </v>
   <v>       0.00453515 </v>
   <v>       0.00453515 </v>
   <v>       0.00453515 </v>
   <v>       0.00453515 </v>
   <v>       0.00453515 </v>
   <v>       0.00453515 </v>
   <v>       0.00453515 </v>
   <v>       0.00453515 </v>
   <v>       0.00453515 </v>
   <v>       0.00453515 </v>
   <v>       0.00453515 </v>
   <v>       0.00453515 </v>
   <v>       0.00453515 </v>
   <v>       0.00453515 </v>
   <v>       0.00453515 </v>
   <v>       0.00453515 </v>
   <v>       0.00453515 </v>
   <v>       0.00453515 </v>
   <v>       0.00453515 </v>
   <v>       0.00453515 </v>
   <v>       0.00453515 </v>
   <v>       0.00453515 </v>
   <v>       0.00453515 </v>
   <v>       0.00453515 </v>
   <v>       0.00453515 </v>
   <v>       0.00453515 </v>
  </varray>
 </kpoints>
 <parameters>
  <separator name="general" >
   <i type="string" name="SYSTEM">C:graphene</i>
   <i type="logical" name="LCOMPAT"> F  </i>
  </separator>
  <separator name="electronic" >
   <i type="string" name="PREC">accura</i>
   <i name="ENMAX">    800.00000000</i>
   <i name="ENAUG">    644.87300000</i>
   <i name="EDIFF">      0.00000001</i>
   <i type="int" name="IALGO">    38</i>
   <i type="int" name="IWAVPR">    11</i>
   <i type="int" name="NBANDS">     8</i>
   <i name="NELECT">      8.00000000</i>
   <i type="int" name="TURBO">     0</i>
   <i type="int" name="IRESTART">     0</i>
   <i type="int" name="NREBOOT">     0</i>
   <i type="int" name="NMIN">     0</i>
   <i name="EREF">      0.00000000</i>
   <separator name="electronic smearing" >
    <i type="int" name="ISMEAR">     0</i>
    <i name="SIGMA">      0.01000000</i>
    <i name="KSPACING">      0.50000000</i>
    <i type="logical" name="KGAMMA"> T  </i>
   </separator>
   <separator name="electronic projectors" >
    <i type="logical" name="LREAL"> F  </i>
    <v name="ROPT">      0.00000000</v>
    <i type="int" name="LMAXPAW">  -100</i>
    <i type="int" name="LMAXMIX">     2</i>
    <i type="logical" name="NLSPLINE"> F  </i>
   </separator>
   <separator name="electronic startup" >
    <i type="int" name="ISTART">     0</i>
    <i type="int" name="ICHARG">     2</i>
    <i type="int" name="INIWAV">     1</i>
   </separator>
   <separator name="electronic spin" >
    <i type="int" name="ISPIN">     1</i>
    <i type="logical" name="LNONCOLLINEAR"> F  </i>
    <v name="MAGMOM">      1.00000000      1.00000000</v>
    <i name="NUPDOWN">     -1.00000000</i>
    <i type="logical" name="LSORBIT"> F  </i>
    <v name="SAXIS">      0.00000000      0.00000000      1.00000000</v>
    <i type="logical" name="LSPIRAL"> F  </i>
    <v name="QSPIRAL">      0.00000000      0.00000000      0.00000000</v>
    <i type="logical" name="LZEROZ"> F  </i>
   </separator>
   <separator name="electronic exchange-correlation" >
    <i type="logical" name="LASPH"> F  </i>
    <i type="logical" name="LMETAGGA"> F  </i>
   </separator>
   <separator name="electronic convergence" >
    <i type="int" name="NELM">    60</i>
    <i type="int" name="NELMDL">    -5</i>
    <i type="int" name="NELMIN">     5</i>
    <i name="ENINI">    800.00000000</i>
    <separator name="electronic convergence detail" >
     <i type="logical" name="LDIAG"> T  </i>
     <i type="logical" name="LSUBROT"> F  </i>
     <i name="WEIMIN">      0.00100000</i>
     <i name="EBREAK">      0.00000000</i>
     <i name="DEPER">      0.30000000</i>
     <i type="int" name="NRMM">     4</i>
     <i name="TIME">      0.40000000</i>
    </separator>
   </separator>
   <separator name="electronic mixer" >
    <i name="AMIX">      0.40000000</i>
    <i name="BMIX">      1.00000000</i>
    <i name="AMIN">      0.01000000</i>
    <i name="AMIX_MAG">      1.60000000</i>
    <i name="BMIX_MAG">      1.00000000</i>
    <separator name="electronic mixer details" >
     <i type="int" name="IMIX">     4</i>
     <i type="logical" name="MIXFIRST"> F  </i>
     <i type="int" name="MAXMIX">   -45</i>
     <i name="WC">    100.00000000</i>
     <i type="int" name="INIMIX">     1</i>
     <i type="int" name="MIXPRE">     1</i>
     <i type="int" name="MREMOVE">     5</i>
    </separator>
   </separator>
   <separator name="electronic dipolcorrection" >
    <i type="logical" name="LDIPOL"> F  </i>
    <i type="logical" name="LMONO"> F  </i>
    <i type="int" name="IDIPOL">     0</i>
    <i name="EPSILON">      1.00000000</i>
    <v name="DIPOL">   -100.00000000   -100.00000000   -100.00000000</v>
    <i name="EFIELD">      0.00000000</i>
   </separator>
  </separator>
  <separator name="grids" >
   <i type="int" name="NGX">    24</i>
   <i type="int" name="NGY">    24</i>
   <i type="int" name="NGZ">   192</i>
   <i type="int" name="NGXF">    48</i>
   <i type="int" name="NGYF">    48</i>
   <i type="int" name="NGZF">   384</i>
   <i type="logical" name="ADDGRID"> T  </i>
  </separator>
  <separator name="ionic" >
   <i type="int" name="NSW">    80</i>
   <i type="int" name="IBRION">     2</i>
   <i type="int" name="MDALGO">     0</i>
   <i type="int" name="ISIF">     2</i>
   <i name="PSTRESS">      0.00000000</i>
   <i name="EDIFFG">      0.00000010</i>
   <i type="int" name="NFREE">     1</i>
   <i name="POTIM">      0.50000000</i>
   <i name="SMASS">     -3.00000000</i>
   <i name="SCALEE">      1.00000000</i>
  </separator>
  <separator name="ionic md" >
   <i name="TEBEG">      0.00010000</i>
   <i name="TEEND">      0.00010000</i>
   <i type="int" name="NBLOCK">     1</i>
   <i type="int" name="KBLOCK">    80</i>
   <i type="int" name="NPACO">   256</i>
   <i name="APACO">     16.00000000</i>
  </separator>
  <separator name="symmetry" >
   <i type="int" name="ISYM">     2</i>
   <i name="SYMPREC">      0.00010000</i>
  </separator>
  <separator name="dos" >
   <i type="int" name="LORBIT">     0</i>
   <v name="RWIGS">     -1.00000000</v>
   <i type="int" name="NEDOS">   301</i>
   <i name="EMIN">     10.00000000</i>
   <i name="EMAX">    -10.00000000</i>
   <i name="EFERMI">      0.00000000</i>
  </separator>
  <separator name="writing" >
   <i type="int" name="NWRITE">     2</i>
   <i type="logical" name="LWAVE"> F  </i>
   <i type="logical" name="LDOWNSAMPLE"> F  </i>
   <i type="logical" name="LCHARG"> T  </i>
   <i type="logical" name="LPARD"> F  </i>
   <i type="logical" name="LVTOT"> F  </i>
   <i type="logical" name="LVHAR"> F  </i>
   <i type="logical" name="LELF"> F  </i>
   <i type="logical" name="LOPTICS"> F  </i>
   <v name="STM">      0.00000000      0.00000000      0.00000000      0.00000000      0.00000000      0.00000000      0.00000000</v>
  </separator>
  <separator name="performance" >
   <i type="int" name="NPAR">     4</i>
   <i type="int" name="NSIM">     4</i>
   <i type="int" name="NBLK">    -1</i>
   <i type="logical" name="LPLANE"> T  </i>
   <i type="logical" name="LSCALAPACK"> T  </i>
   <i type="logical" name="LSCAAWARE"> F  </i>
   <i type="logical" name="LSCALU"> F  </i>
   <i type="logical" name="LASYNC"> F  </i>
   <i type="logical" name="LORBITALREAL"> F  </i>
  </separator>
  <separator name="miscellaneous" >
   <i type="int" name="IDIOT">     3</i>
   <i type="int" name="ISPECIAL">     0</i>
   <i type="logical" name="LMUSIC"> F  </i>
   <v name="POMASS">     12.01100000</v>
   <v name="DARWINR">      0.00000000</v>
   <v name="DARWINV">      1.00000000</v>
   <i type="logical" name="LCORR"> T  </i>
  </separator>
  <i type="logical" name="GGA_COMPAT"> T  </i>
  <i type="logical" name="LBERRY"> F  </i>
  <i type="int" name="ICORELEVEL">     0</i>
  <i type="logical" name="LDAU"> F  </i>
  <i type="int" name="I_CONSTRAINED_M">     0</i>
  <separator name="electronic exchange-correlation" >
   <i type="string" name="GGA">--</i>
   <i type="int" name="VOSKOWN">     0</i>
   <i type="logical" name="LHFCALC"> F  </i>
   <i type="string" name="PRECFOCK"></i>
   <i type="logical" name="LSYMGRAD"> F  </i>
   <i type="logical" name="LHFONE"> F  </i>
   <i type="logical" name="LRHFCALC"> F  </i>
   <i type="logical" name="LTHOMAS"> F  </i>
   <i type="logical" name="LMODELHF"> F  </i>
   <i name="ENCUT4O">     -1.00000000</i>
   <i type="int" name="EXXOEP">     0</i>
   <i type="int" name="FOURORBIT">     0</i>
   <i name="AEXX">      0.00000000</i>
   <i name="HFALPHA">      0.00000000</i>
   <i name="MCALPHA">      0.00000000</i>
   <i name="ALDAX">      1.00000000</i>
   <i name="AGGAX">      1.00000000</i>
   <i name="ALDAC">      1.00000000</i>
   <i name="AGGAC">      1.00000000</i>
   <i type="int" name="NKREDX">     1</i>
   <i type="int" name="NKREDY">     1</i>
   <i type="int" name="NKREDZ">     1</i>
   <i type="logical" name="SHIFTRED"> F  </i>
   <i type="logical" name="ODDONLY"> F  </i>
   <i type="logical" name="EVENONLY"> F  </i>
   <i type="int" name="LMAXFOCK">     0</i>
   <i type="int" name="NMAXFOCKAE">     0</i>
   <i type="logical" name="LFOCKAEDFT"> F  </i>
   <i name="HFSCREEN">      0.00000000</i>
   <i name="HFSCREENC">      0.00000000</i>
   <i type="int" name="NBANDSGWLOW">     0</i>
  </separator>
  <separator name="vdW DFT" >
   <i type="logical" name="LUSE_VDW"> F  </i>
   <i name="Zab_VDW">     -0.84910000</i>
   <i name="PARAM1">      0.12340000</i>
   <i name="PARAM2">      1.00000000</i>
   <i name="PARAM3">      0.00000000</i>
  </separator>
  <separator name="model GW" >
   <i type="int" name="MODEL_GW">     0</i>
   <i name="MODEL_EPS0">     31.43256336</i>
   <i name="MODEL_ALPHA">      1.00000000</i>
  </separator>
  <separator name="linear response parameters" >
   <i type="logical" name="LEPSILON"> F  </i>
   <i type="logical" name="LRPA"> F  </i>
   <i type="logical" name="LNABLA"> F  </i>
   <i type="logical" name="LVEL"> F  </i>
   <i type="int" name="KINTER">     0</i>
   <i name="CSHIFT">      0.10000000</i>
   <i name="OMEGAMAX">     -1.00000000</i>
   <i name="DEG_THRESHOLD">      0.00200000</i>
   <i name="RTIME">     -0.10000000</i>
   <i name="WPLASMAI">      0.00000000</i>
   <v name="DFIELD">      0.00000000      0.00000000      0.00000000</v>
   <v name="WPLASMA">      0.00000000      0.00000000      0.00000000      0.00000000      0.00000000      0.00000000      0.00000000      0.00000000      0.00000000</v>
  </separator>
  <separator name="orbital magnetization" >
   <i type="logical" name="NUCIND"> F  </i>
   <v name="MAGPOS">      0.00000000      0.00000000      0.00000000</v>
   <i type="logical" name="LNICSALL"> T  </i>
   <i type="logical" name="ORBITALMAG"> F  </i>
   <i type="logical" name="LMAGBLOCH"> F  </i>
   <i type="logical" name="LCHIMAG"> F  </i>
   <i type="logical" name="LGAUGE"> T  </i>
   <i type="int" name="MAGATOM">     0</i>
   <v name="MAGDIPOL">      0.00000000      0.00000000      0.00000000</v>
   <v name="AVECCONST">      0.00000000      0.00000000      0.00000000</v>
  </separator>
  <separator name="response functions" >
   <i type="logical" name="LADDER"> F  </i>
   <i type="logical" name="LRPAFORCE"> F  </i>
   <i type="logical" name="LFXC"> F  </i>
   <i type="logical" name="LHARTREE"> T  </i>
   <i type="int" name="IBSE">     0</i>
   <v type="int" name="KPOINT">    -1     0     0     0</v>
   <i type="logical" name="LTCTE"> F  </i>
   <i type="logical" name="LTETE"> F  </i>
   <i type="logical" name="LTRIPLET"> F  </i>
   <i type="logical" name="LFXCEPS"> F  </i>
   <i type="logical" name="LFXHEG"> F  </i>
   <i type="int" name="NATURALO">     2</i>
   <i type="logical" name="L2ORDER"> F  </i>
   <i type="logical" name="LMP2LT"> F  </i>
   <i type="logical" name="LUSEW"> F  </i>
   <i name="ENCUTGW">     -2.00000000</i>
   <i name="ENCUTGWSOFT">     -2.00000000</i>
   <i name="ENCUTLF">     -1.00000000</i>
   <i type="int" name="LMAXMP2">    -1</i>
   <i name="SCISSOR">      0.00000000</i>
   <i type="int" name="NOMEGA">     0</i>
   <i type="int" name="NOMEGAR">     0</i>
   <i type="int" name="NBANDSGW">    -1</i>
   <i type="int" name="NBANDSO">    -1</i>
   <i type="int" name="NBANDSV">    -1</i>
   <i type="int" name="NELM">     1</i>
   <i type="int" name="NELMHF">     1</i>
   <i type="int" name="DIM">     3</i>
   <i type="int" name="ANTIRES">     0</i>
   <i name="OMEGAMAX">    -30.00000000</i>
   <i name="OMEGAMIN">    -30.00000000</i>
   <i name="OMEGATL">   -200.00000000</i>
   <i type="int" name="OMEGAGRID">   140</i>
   <i name="CSHIFT">     -0.10000000</i>
   <i type="logical" name="SELFENERGY"> F  </i>
   <i type="logical" name="LSPECTRAL"> F  </i>
   <i type="logical" name="LSPECTRALGW"> F  </i>
   <i type="logical" name="LSINGLES"> F  </i>
   <i type="logical" name="LFERMIGW"> F  </i>
   <i type="logical" name="ODDONLYGW"> F  </i>
   <i type="logical" name="EVENONLYGW"> F  </i>
   <i type="int" name="NKREDLFX">     1</i>
   <i type="int" name="NKREDLFY">     1</i>
   <i type="int" name="NKREDLFZ">     1</i>
   <i type="int" name="MAXMEM">  2800</i>
   <i type="int" name="TELESCOPE">     0</i>
   <i type="int" name="TAUPAR">     1</i>
   <i type="int" name="OMEGAPAR">    -1</i>
   <i name="LAMBDA">      1.00000000</i>
  </separator>
  <separator name="External order field" >
   <i name="OFIELD_KAPPA">      0.00000000</i>
   <v name="OFIELD_K">      0.00000000      0.00000000      0.00000000</v>
   <i name="OFIELD_Q6_NEAR">      0.00000000</i>
   <i name="OFIELD_Q6_FAR">      0.00000000</i>
   <i name="OFIELD_A">      0.00000000</i>
  </separator>
 </parameters>
 <atominfo>
  <atoms>       2 </atoms>
  <types>       1 </types>
  <array name="atoms" >
   <dimension dim="1">ion</dimension>
   <field type="string">element</field>
   <field type="int">atomtype</field>
   <set>
    <rc><c>C </c><c>   1</c></rc>
    <rc><c>C </c><c>   1</c></rc>
   </set>
  </array>
  <array name="atomtypes" >
   <dimension dim="1">type</dimension>
   <field type="int">atomspertype</field>
   <field type="string">element</field>
   <field>mass</field>
   <field>valence</field>
   <field type="string">pseudopotential</field>
   <set>
    <rc><c>   2</c><c>C </c><c>     12.01100000</c><c>      4.00000000</c><c>  PAW_PBE C 08Apr2002                   </c></rc>
   </set>
  </array>
 </atominfo>
 <structure name="initialpos" >
  <crystal>
   <varray name="basis" >
    <v>       2.13000000      -1.22975600       0.00000000 </v>
    <v>       2.13000000       1.22975600       0.00000000 </v>
    <v>       0.00000000       0.00000000      20.00000000 </v>
   </varray>
   <i name="volume">    104.77521120 </i>
   <varray name="rec_basis" >
    <v>       0.23474178      -0.40658472       0.00000000 </v>
    <v>       0.23474178       0.40658472       0.00000000 </v>
    <v>       0.00000000       0.00000000       0.05000000 </v>
   </varray>
  </crystal>
  <varray name="positions" >
   <v>       0.01000000       0.02000000       0.00000000 </v>
   <v>       0.33333300       0.33333300       0.00000000 </v>
  </varray>
 </structure>
 <calculation>
  <scstep>
   <time name="dav">    3.87    3.88</time>
   <time name="total">    3.99    4.02</time>
   <energy>
    <i name="alphaZ">      3.13611264 </i>
    <i name="ewald">   1303.43657780 </i>
    <i name="hartreedc">  -1515.29224648 </i>
    <i name="XCdc">     26.40098624 </i>
    <i name="pawpsdc">    217.04409276 </i>
    <i name="pawaedc">   -218.18290438 </i>
    <i name="eentropy">     -0.00009962 </i>
    <i name="bandstr">    -54.41624555 </i>
    <i name="atom">    294.30884690 </i>
    <i name="e_fr_energy">     56.43512032 </i>
    <i name="e_wo_entrp">     56.43521994 </i>
    <i name="e_0_energy">     56.43517013 </i>
   </energy>
  </scstep>
  <scstep>
   <time name="dav">    5.07    5.08</time>
   <time name="total">    5.07    5.08</time>
   <energy>
    <i name="e_fr_energy">    -14.87896231 </i>
    <i name="e_wo_entrp">    -14.87896231 </i>
    <i name="e_0_energy">    -14.87896231 </i>
   </energy>
  </scstep>
  <scstep>
   <time name="dav">    5.04    5.05</time>
   <time name="total">    5.04    5.05</time>
   <energy>
    <i name="e_fr_energy">    -19.63996333 </i>
    <i name="e_wo_entrp">    -19.63996333 </i>
    <i name="e_0_energy">    -19.63996333 </i>
   </energy>
  </scstep>
  <scstep>
   <time name="dav">    5.30    5.32</time>
   <time name="total">    5.30    5.32</time>
   <energy>
    <i name="e_fr_energy">    -19.67788605 </i>
    <i name="e_wo_entrp">    -19.67788605 </i>
    <i name="e_0_energy">    -19.67788605 </i>
   </energy>
  </scstep>
  <scstep>
   <time name="dav">    5.13    5.14</time>
   <time name="total">    5.46    5.47</time>
   <energy>
    <i name="e_fr_energy">    -19.67816922 </i>
    <i name="e_wo_entrp">    -19.67816922 </i>
    <i name="e_0_energy">    -19.67816922 </i>
   </energy>
  </scstep>
  <scstep>
   <time name="dav">    4.67    4.68</time>
   <time name="total">    5.10    5.11</time>
   <energy>
    <i name="e_fr_energy">    -18.72540439 </i>
    <i name="e_wo_entrp">    -18.72540439 </i>
    <i name="e_0_energy">    -18.72540439 </i>
   </energy>
  </scstep>
  <scstep>
   <time name="dav">    5.06    5.07</time>
   <time name="total">    5.49    5.51</time>
   <energy>
    <i name="e_fr_energy">    -18.35963855 </i>
    <i name="e_wo_entrp">    -18.35963855 </i>
    <i name="e_0_energy">    -18.35963855 </i>
   </energy>
  </scstep>
  <scstep>
   <time name="dav">    5.60    5.62</time>
   <time name="total">    6.04    6.06</time>
   <energy>
    <i name="e_fr_energy">    -18.35033501 </i>
    <i name="e_wo_entrp">    -18.35033501 </i>
    <i name="e_0_energy">    -18.35033501 </i>
   </energy>
  </scstep>
  <scstep>
   <time name="dav">    5.08    5.09</time>
   <time name="total">    5.51    5.52</time>
   <energy>
    <i name="e_fr_energy">    -18.34909815 </i>
    <i name="e_wo_entrp">    -18.34909815 </i>
    <i name="e_0_energy">    -18.34909815 </i>
   </energy>
  </scstep>
  <scstep>
   <time name="dav">    5.00    5.01</time>
   <time name="total">    5.42    5.43</time>
   <energy>
    <i name="e_fr_energy">    -18.34460938 </i>
    <i name="e_wo_entrp">    -18.34460938 </i>
    <i name="e_0_energy">    -18.34460938 </i>
   </energy>
  </scstep>
  <scstep>
   <time name="dav">    4.81    4.82</time>
   <time name="total">    5.23    5.24</time>
   <energy>
    <i name="e_fr_energy">    -18.34319089 </i>
    <i name="e_wo_entrp">    -18.34319089 </i>
    <i name="e_0_energy">    -18.34319089 </i>
   </energy>
  </scstep>
  <scstep>
   <time name="dav">    4.43    4.44</time>
   <time name="total">    4.85    4.87</time>
   <energy>
    <i name="e_fr_energy">    -18.34274031 </i>
    <i name="e_wo_entrp">    -18.34274031 </i>
    <i name="e_0_energy">    -18.34274031 </i>
   </energy>
  </scstep>
  <scstep>
   <time name="dav">    4.90    4.91</time>
   <time name="total">    5.32    5.33</time>
   <energy>
    <i name="e_fr_energy">    -18.34392642 </i>
    <i name="e_wo_entrp">    -18.34392642 </i>
    <i name="e_0_energy">    -18.34392642 </i>
   </energy>
  </scstep>
  <scstep>
   <time name="dav">    4.38    4.39</time>
   <time name="total">    4.80    4.81</time>
   <energy>
    <i name="e_fr_energy">    -18.34376489 </i>
    <i name="e_wo_entrp">    -18.34376489 </i>
    <i name="e_0_energy">    -18.34376489 </i>
   </energy>
  </scstep>
  <scstep>
   <time name="dav">    4.45    4.46</time>
   <time name="total">    4.86    4.87</time>
   <energy>
    <i name="e_fr_energy">    -18.34396587 </i>
    <i name="e_wo_entrp">    -18.34396587 </i>
    <i name="e_0_energy">    -18.34396587 </i>
   </energy>
  </scstep>
  <scstep>
   <time name="dav">    4.81    4.83</time>
   <time name="total">    5.23    5.25</time>
   <energy>
    <i name="e_fr_energy">    -18.34416130 </i>
    <i name="e_wo_entrp">    -18.34416130 </i>
    <i name="e_0_energy">    -18.34416130 </i>
   </energy>
  </scstep>
  <scstep>
   <time name="dav">    4.37    4.38</time>
   <time name="total">    4.79    4.80</time>
   <energy>
    <i name="e_fr_energy">    -18.34428008 </i>
    <i name="e_wo_entrp">    -18.34428008 </i>
    <i name="e_0_energy">    -18.34428008 </i>
   </energy>
  </scstep>
  <scstep>
   <time name="dav">    4.21    4.22</time>
   <time name="total">    4.63    4.64</time>
   <energy>
    <i name="e_fr_energy">    -18.34439548 </i>
    <i name="e_wo_entrp">    -18.34439548 </i>
    <i name="e_0_energy">    -18.34439548 </i>
   </energy>
  </scstep>
  <scstep>
   <time name="dav">    4.71    4.72</time>
   <time name="total">    5.13    5.14</time>
   <energy>
    <i name="e_fr_energy">    -18.34440234 </i>
    <i name="e_wo_entrp">    -18.34440234 </i>
    <i name="e_0_energy">    -18.34440234 </i>
   </energy>
  </scstep>
  <scstep>
   <time name="dav">    4.35    4.36</time>
   <time name="total">    4.77    4.79</time>
   <energy>
    <i name="e_fr_energy">    -18.34441099 </i>
    <i name="e_wo_entrp">    -18.34441099 </i>
    <i name="e_0_energy">    -18.34441099 </i>
   </energy>
  </scstep>
  <scstep>
   <time name="dav">    5.33    5.35</time>
   <time name="total">    5.75    5.77</time>
   <energy>
    <i name="e_fr_energy">    -18.34441126 </i>
    <i name="e_wo_entrp">    -18.34441126 </i>
    <i name="e_0_energy">    -18.34441126 </i>
   </energy>
  </scstep>
  <scstep>
   <time name="dav">    4.52    4.53</time>
   <time name="total">    4.95    4.96</time>
   <energy>
    <i name="e_fr_energy">    -18.34441160 </i>
    <i name="e_wo_entrp">    -18.34441160 </i>
    <i name="e_0_energy">    -18.34441160 </i>
   </energy>
  </scstep>
  <scstep>
   <time name="dav">    5.58    5.60</time>
   <time name="total">    6.01    6.03</time>
   <energy>
    <i name="e_fr_energy">    -18.34441161 </i>
    <i name="e_wo_entrp">    -18.34441161 </i>
    <i name="e_0_energy">    -18.34441161 </i>
   </energy>
  </scstep>
  <scstep>
   <time name="dav">    4.64    4.65</time>
   <time name="total">    5.07    5.09</time>
   <energy>
    <i name="e_fr_energy">    -18.34441162 </i>
    <i name="e_wo_entrp">    -18.34441162 </i>
    <i name="e_0_energy">    -18.34441162 </i>
   </energy>
  </scstep>
  <scstep>
   <time name="dav">    4.74    4.75</time>
   <time name="total">    4.84    4.85</time>
   <energy>
    <i name="alphaZ">      3.13611264 </i>
    <i name="ewald">   1303.43657780 </i>
    <i name="hartreedc">  -1550.35463586 </i>
    <i name="XCdc">     27.60779632 </i>
    <i name="pawpsdc">    854.04662494 </i>
    <i name="pawaedc">   -855.41153804 </i>
    <i name="eentropy">     -0.00000000 </i>
    <i name="bandstr">    -95.11419633 </i>
    <i name="atom">    294.30884690 </i>
    <i name="e_fr_energy">    -18.34441162 </i>
    <i name="e_wo_entrp">    -18.34441162 </i>
    <i name="e_0_energy">    -18.34441162 </i>
   </energy>
  </scstep>
  <structure>
   <crystal>
    <varray name="basis" >
     <v>       2.13000000      -1.22975600       0.00000000 </v>
     <v>       2.13000000       1.22975600       0.00000000 </v>
     <v>       0.00000000       0.00000000      20.00000000 </v>
    </varray>
    <i name="volume">    104.77521120 </i>
    <varray name="rec_basis" >
     <v>       0.23474178      -0.40658472       0.00000000 </v>
     <v>       0.23474178       0.40658472       0.00000000 </v>
     <v>       0.00000000       0.00000000       0.05000000 </v>
    </varray>
   </crystal>
   <varray name="positions" >
    <v>       0.01000000       0.02000000       0.00000000 </v>
    <v>       0.33333300       0.33333300       0.00000000 </v>
   </varray>
  </structure>
  <varray name="forces" >
   <v>      -3.78081259      -0.57419918      -0.00000000 </v>
   <v>       3.78081259       0.57419918       0.00000000 </v>
  </varray>
  <varray name="stress" >
   <v>      24.59322387      -2.14116594       0.00000000 </v>
   <v>      -2.14116593      -1.56448806       0.00000000 </v>
   <v>       0.00000000       0.00000000      -0.34475159 </v>
  </varray>
  <energy>
   <i name="e_fr_energy">    -18.34441162 </i>
   <i name="e_wo_entrp">    -18.34441162 </i>
   <i name="e_0_energy">     -0.00000000 </i>
  </energy>
  <time name="totalsc">  132.25  132.78</time>
 </calculation>
 <calculation>
  <scstep>
   <  <scstep>
   <time name="dav">    3.90    3.91</time>
   <time name="total">    4.35    4.37</time>
   <energy>
    <i name="alphaZ">      3.13611264 </i>
    <i name="ewald">   1308.83471481 </i>
    <i name="hartreedc">  -1550.89862746 </i>
    <i name="XCdc">     27.63699402 </i>
    <i name="pawpsdc">    854.04676653 </i>
    <i name="pawaedc">   -855.41167962 </i>
    <i name="eentropy">     -0.00002559 </i>
    <i name="bandstr">    -98.33261416 </i>
    <i name="atom">    294.30884690 </i>
    <i name="e_fr_energy">    -16.67951192 </i>
    <i name="e_wo_entrp">    -16.67948633 </i>
    <i name="e_0_energy">    -16.67949912 </i>
   </energy>
  </scstep>
  <scstep>
   <time name="dav">    5.26    5.27</time>
   <time name="total">    5.69    5.70</time>
   <energy>
    <i name="e_fr_energy">    -16.75019759 </i>
    <i name="e_wo_entrp">    -16.75017200 </i>
    <i name="e_0_energy">    -16.75018480 </i>
   </energy>
  </scstep>
  <scstep>
   <time name="dav">    4.28    4.29</time>
   <time name="total">    4.70    4.71</time>
   <energy>
    <i name="e_fr_energy">    -16.65402317 </i>
    <i name="e_wo_entrp">    -16.65399757 </i>
    <i name="e_0_energy">    -16.65401037 </i>
   </energy>
  </scstep>
  <scstep>
   <time name="dav">    5.40    5.41</time>
   <time name="total">    5.82    5.83</time>
   <energy>
    <i name="e_fr_energy">    -16.65242862 </i>
    <i name="e_wo_entrp">    -16.65240280 </i>
    <i name="e_0_energy">    -16.65241571 </i>
   </energy>
  </scstep>
  <scstep>
   <time name="dav">    4.54    4.55</time>
   <time name="total">    4.96    4.98</time>
   <energy>
    <i name="e_fr_energy">    -16.65220339 </i>
    <i name="e_wo_entrp">    -16.65217779 </i>
    <i name="e_0_energy">    -16.65219059 </i>
   </energy>
  </scstep>
  <scstep>
   <time name="dav">    4.97    4.98</time>
   <time name="total">    5.40    5.41</time>
   <energy>
    <i name="e_fr_energy">    -16.65221331 </i>
    <i name="e_wo_entrp">    -16.65218772 </i>
    <i name="e_0_energy">    -16.65220051 </i>
   </energy>
  </scstep>
  <scstep>
   <time name="dav">    4.54    4.55</time>
   <time name="total">    4.97    4.98</time>
   <energy>
    <i name="e_fr_energy">    -16.65221864 </i>
    <i name="e_wo_entrp">    -16.65219304 </i>
    <i name="e_0_energy">    -16.65220584 </i>
   </energy>
  </scstep>
  <scstep>
   <time name="dav">    4.31    4.32</time>
   <time name="total">    4.75    4.76</time>
   <energy>
    <i name="e_fr_energy">    -16.65222147 </i>
    <i name="e_wo_entrp">    -16.65219587 </i>
    <i name="e_0_energy">    -16.65220867 </i>
   </energy>
  </scstep>
  <scstep>
   <time name="dav">    4.14    4.15</time>
   <time name="total">    4.58    4.59</time>
   <energy>
    <i name="e_fr_energy">    -16.65222542 </i>
    <i name="e_wo_entrp">    -16.65219982 </i>
    <i name="e_0_energy">    -16.65221262 </i>
   </energy>
  </scstep>
  <scstep>
   <time name="dav">    4.51    4.52</time>
   <time name="total">    4.95    4.97</time>
   <energy>
    <i name="e_fr_energy">    -16.65222739 </i>
    <i name="e_wo_entrp">    -16.65220180 </i>
    <i name="e_0_energy">    -16.65221459 </i>
   </energy>
  </scstep>
  <scstep>
   <time name="dav">    4.28    4.29</time>
   <time name="total">    4.70    4.71</time>
   <energy>
    <i name="e_fr_energy">    -16.65222559 </i>
    <i name="e_wo_entrp">    -16.65219999 </i>
    <i name="e_0_energy">    -16.65221279 </i>
   </energy>
  </scstep>
  <scstep>
   <time name="dav">    5.21    5.22</time>
   <time name="total">    5.63    5.65</time>
   <energy>
    <i name="e_fr_energy">    -16.65222892 </i>
    <i name="e_wo_entrp">    -16.65220332 </i>
    <i name="e_0_energy">    -16.65221612 </i>
   </energy>
  </scstep>
  <scstep>
   <time name="dav">    4.64    4.65</time>
   <time name="total">    5.06    5.07</time>
   <energy>
    <i name="e_fr_energy">    -16.65223553 </i>
    <i name="e_wo_entrp">    -16.65220993 </i>
    <i name="e_0_energy">    -16.65222273 </i>
   </energy>
  </scstep>
  <scstep>
   <time name="dav">    4.47    4.48</time>
   <time name="total">    4.89    4.90</time>
   <energy>
    <i name="e_fr_energy">    -16.65223864 </i>
    <i name="e_wo_entrp">    -16.65221304 </i>
    <i name="e_0_energy">    -16.65222584 </i>
   </energy>
  </scstep>
  <scstep>
   <time name="dav">    4.50    4.51</time>
   <time name="total">    4.93    4.94</time>
   <energy>
    <i name="e_fr_energy">    -16.65223933 </i>
    <i name="e_wo_entrp">    -16.65221374 </i>
    <i name="e_0_energy">    -16.65222654 </i>
   </energy>
  </scstep>
  <scstep>
   <time name="dav">    4.24    4.25</time>
   <time name="total">    4.67    4.68</time>
   <energy>
    <i name="e_fr_energy">    -16.65223995 </i>
    <i name="e_wo_entrp">    -16.65221435 </i>
    <i name="e_0_energy">    -16.65222715 </i>
   </energy>
  </scstep>
  <scstep>
   <time name="dav">    4.72    4.73</time>
   <time name="total">    5.14    5.15</time>
   <energy>
    <i name="e_fr_energy">    -16.65224000 </i>
    <i name="e_wo_entrp">    -16.65221440 </i>
    <i name="e_0_energy">    -16.65222720 </i>
   </energy>
  </scstep>
  <scstep>
   <time name="dav">    4.35    4.36</time>
   <time name="total">    4.77    4.78</time>
   <energy>
    <i name="e_fr_energy">    -16.65224001 </i>
    <i name="e_wo_entrp">    -16.65221441 </i>
    <i name="e_0_energy">    -16.65222721 </i>
   </energy>
  </scstep>
  <scstep>
   <time name="dav">    4.10    4.11</time>
   <time name="total">    4.52    4.53</time>
   <energy>
    <i name="e_fr_energy">    -16.65224002 </i>
    <i name="e_wo_entrp">    -16.65221442 </i>
    <i name="e_0_energy">    -16.65222722 </i>
   </energy>
  </scstep>
  <scstep>
   <time name="dav">    4.75    4.76</time>
   <time name="total">    4.85    4.86</time>
   <energy>
    <i name="alphaZ">      3.13611264 </i>
    <i name="ewald">   1308.83471481 </i>
    <i name="hartreedc">  -1552.83607058 </i>
    <i name="XCdc">     27.76019821 </i>
    <i name="pawpsdc">    933.32930847 </i>
    <i name="pawaedc">   -934.73882518 </i>
    <i name="eentropy">     -0.00002560 </i>
    <i name="bandstr">    -96.44649970 </i>
    <i name="atom">    294.30884690 </i>
    <i name="e_fr_energy">    -16.65224002 </i>
    <i name="e_wo_entrp">    -16.65221443 </i>
    <i name="e_0_energy">    -16.65222723 </i>
   </energy>
  </scstep>
  <structure>
   <crystal>
    <varray name="basis" >
     <v>       2.13000000      -1.22975600       0.00000000 </v>
     <v>       2.13000000       1.22975600       0.00000000 </v>
     <v>       0.00000000       0.00000000      20.00000000 </v>
    </varray>
    <i name="volume">    104.77521120 </i>
    <varray name="rec_basis" >
     <v>       0.23474178      -0.40658472       0.00000000 </v>
     <v>       0.23474178       0.40658472       0.00000000 </v>
     <v>       0.00000000       0.00000000       0.05000000 </v>
    </varray>
   </crystal>
   <varray name="positions" >
    <v>      -0.02155330      -0.03407882      -0.00000000 </v>
    <v>       0.3.38741182       0.00000000 </v>
   </varray>
  </structure>
  <varray name="forces" >
   <v>       8.23127079       3.72520003       0.00000000 </v>
   <v>      -8.23127079      -3.72520003      -0.00000000 </v>
  </varray>
  <varray name="stress" >
   <v>      30.27326064      16.56796644       0.00000000 </v>
   <v>      16.56796644     124.35035073       0.00000000 </v>
   <v>       0.00000000       0.00000000      -0.37245578 </v>
  </varray>
  <energy>
   <i name="e_fr_energy">    -16.65224002 </i>
   <i name="e_wo_entrp">    -16.65222723 </i>
   <i name="e_0_energy">     -0.00002560 </i>
  </energy>
  <time name="totalsc">  103.09  103.43</time>
 </calculation>
 <calculation>
  <scstep>
   <  <scstep>
   <time name="dav">    3.90    3.91</time>
   <time name="total">    4.33    4.36</time>
   <energy>
    <i name="alphaZ">      3.13611264 </i>
    <i name="ewald">   1303.03554300 </i>
    <i name="hartreedc">  -1550.61271860 </i>
    <i name="XCdc">     27.61652806 </i>
    <i name="pawpsdc">    933.32935489 </i>
    <i name="pawaedc">   -934.73887156 </i>
    <i name="eentropy">     -0.00000000 </i>
    <i name="bandstr">    -94.65211372 </i>
    <i name="atom">    294.30884690 </i>
    <i name="e_fr_energy">    -18.57731838 </i>
    <i name="e_wo_entrp">    -18.57731838 </i>
    <i name="e_0_energy">    -18.57731838 </i>
   </energy>
  </scstep>
  <scstep>
   <time name="dav">    5.28    5.30</time>
   <time name="total">    5.71    5.73</time>
   <energy>
    <i name="e_fr_energy">    -18.52472156 </i>
    <i name="e_wo_entrp">    -18.52472156 </i>
    <i name="e_0_energy">    -18.52472156 </i>
   </energy>
  </scstep>
  <scstep>
   <time name="dav">    4.84    4.85</time>
   <time name="total">    5.26    5.27</time>
   <energy>
    <i name="e_fr_energy">    -18.46577377 </i>
    <i name="e_wo_entrp">    -18.46577377 </i>
    <i name="e_0_energy">    -18.46577377 </i>
   </energy>
  </scstep>
  <scstep>
   <time name="dav">    5.10    5.11</time>
   <time name="total">    5.51    5.53</time>
   <energy>
    <i name="e_fr_energy">    -18.46379810 </i>
    <i name="e_wo_entrp">    -18.46379809 </i>
    <i name="e_0_energy">    -18.46379810 </i>
   </energy>
  </scstep>
  <scstep>
   <time name="dav">    4.82    4.83</time>
   <time name="total">    5.24    5.25</time>
   <energy>
    <i name="e_fr_energy">    -18.46381176 </i>
    <i name="e_wo_entrp">    -18.46381176 </i>
    <i name="e_0_energy">    -18.46381176 </i>
   </energy>
  </scstep>
  <scstep>
   <time name="dav">    4.56    4.57</time>
   <time name="total">    4.96    4.98</time>
   <energy>
    <i name="e_fr_energy">    -18.46381350 </i>
    <i name="e_wo_entrp">    -18.46381350 </i>
    <i name="e_0_energy">    -18.46381350 </i>
   </energy>
  </scstep>
  <scstep>
   <time name="dav">    4.64    4.65</time>
   <time name="total">    5.05    5.06</time>
   <energy>
    <i name="e_fr_energy">    -18.46381480 </i>
    <i name="e_wo_entrp">    -18.46381480 </i>
    <i name="e_0_energy">    -18.46381480 </i>
   </energy>
  </scstep>
  <scstep>
   <time name="dav">    4.15    4.16</time>
   <time name="total">    4.57    4.58</time>
   <energy>
    <i name="e_fr_energy">    -18.46381855 </i>
    <i name="e_wo_entrp">    -18.46381855 </i>
    <i name="e_0_energy">    -18.46381855 </i>
   </energy>
  </scstep>
  <scstep>
   <time name="dav">    4.05    4.06</time>
   <time name="total">    4.46    4.47</time>
   <energy>
    <i name="e_fr_energy">    -18.46382124 </i>
    <i name="e_wo_entrp">    -18.46382124 </i>
    <i name="e_0_energy">    -18.46382124 </i>
   </energy>
  </scstep>
  <scstep>
   <time name="dav">    4.29    4.30</time>
   <time name="total">    4.72    4.73</time>
   <energy>
    <i name="e_fr_energy">    -18.46381916 </i>
    <i name="e_wo_entrp">    -18.46381916 </i>
    <i name="e_0_energy">    -18.46381916 </i>
   </energy>
  </scstep>
  <scstep>
   <time name="dav">    4.73    4.74</time>
   <time name="total">    5.16    5.17</time>
   <energy>
    <i name="e_fr_energy">    -18.46381666 </i>
    <i name="e_wo_entrp">    -18.46381666 </i>
    <i name="e_0_energy">    -18.46381666 </i>
   </energy>
  </scstep>
  <scstep>
   <time name="dav">    4.87    4.88</time>
   <time name="total">    5.29    5.30</time>
   <energy>
    <i name="e_fr_energy">    -18.46381551 </i>
    <i name="e_wo_entrp">    -18.46381551 </i>
    <i name="e_0_energy">    -18.46381551 </i>
   </energy>
  </scstep>
  <scstep>
   <time name="dav">    4.29    4.30</time>
   <time name="total">    4.71    4.72</time>
   <energy>
    <i name="e_fr_energy">    -18.46381577 </i>
    <i name="e_wo_entrp">    -18.46381577 </i>
    <i name="e_0_energy">    -18.46381577 </i>
   </energy>
  </scstep>
  <scstep>
   <time name="dav">    4.16    4.17</time>
   <time name="total">    4.58    4.60</time>
   <energy>
    <i name="e_fr_energy">    -18.46381729 </i>
    <i name="e_wo_entrp">    -18.46381729 </i>
    <i name="e_0_energy">    -18.46381729 </i>
   </energy>
  </scstep>
  <scstep>
   <time name="dav">    4.52    4.53</time>
   <time name="total">    4.96    4.97</time>
   <energy>
    <i name="e_fr_energy">    -18.46381815 </i>
    <i name="e_wo_entrp">    -18.46381815 </i>
    <i name="e_0_energy">    -18.46381815 </i>
   </energy>
  </scstep>
  <scstep>
   <time name="dav">    4.74    4.75</time>
   <time name="total">    5.17    5.18</time>
   <energy>
    <i name="e_fr_energy">    -18.46381863 </i>
    <i name="e_wo_entrp">    -18.46381863 </i>
    <i name="e_0_energy">    -18.46381863 </i>
   </energy>
  </scstep>
  <scstep>
   <time name="dav">    4.68    4.69</time>
   <time name="total">    5.12    5.13</time>
   <energy>
    <i name="e_fr_energy">    -18.46381874 </i>
    <i name="e_wo_entrp">    -18.46381874 </i>
    <i name="e_0_energy">    -18.46381874 </i>
   </energy>
  </scstep>
  <scstep>
   <time name="dav">    4.35    4.36</time>
   <time name="total">    4.77    4.79</time>
   <energy>
    <i name="e_fr_energy">    -18.46381880 </i>
    <i name="e_wo_entrp">    -18.46381880 </i>
    <i name="e_0_energy">    -18.46381880 </i>
   </energy>
  </scstep>
  <scstep>
   <time name="dav">    4.11    4.12</time>
   <time name="total">    4.53    4.55</time>
   <energy>
    <i name="e_fr_energy">    -18.46381881 </i>
    <i name="e_wo_entrp">    -18.46381881 </i>
    <i name="e_0_energy">    -18.46381881 </i>
   </energy>
  </scstep>
  <scstep>
   <time name="dav">    4.37    4.38</time>
   <time name="total">    4.47    4.48</time>
   <energy>
    <i name="alphaZ">      3.13611264 </i>
    <i name="ewald">   1303.03554300 </i>
    <i name="hartreedc">  -1550.05021092 </i>
    <i name="XCdc">     27.59295944 </i>
    <i name="pawpsdc">    847.87106600 </i>
    <i name="pawaedc">   -849.23241903 </i>
    <i name="eentropy">     -0.00000000 </i>
    <i name="bandstr">    -95.12571685 </i>
    <i name="atom">    294.30884690 </i>
    <i name="e_fr_energy">    -18.46381881 </i>
    <i name="e_wo_entrp">    -18.46381881 </i>
    <i name="e_0_energy">    -18.46381881 </i>
   </energy>
  </scstep>
  <structure>
   <crystal>
    <varray name="basis" >
     <v>       2.13000000      -1.22975600       0.00000000 </v>
     <v>       2.13000000       1.22975600       0.00000000 </v>
     <v>       0.00000000       0.00000000      20.00000000 </v>
    </varray>
    <i name="volume">    104.77521120 </i>
    <varray name="rec_basis" >
     <v>       0.23474178      -0.40658472       0.00000000 </v>
     <v>       0.23474178       0.40658472       0.00000000 </v>
     <v>       0.00000000       0.00000000       0.05000000 </v>
    </varray>
   </crystal>
   <varray name="positions" >
    <v>       0.00482174       0.01112505      -0.00000000 </v>
    <v>       0.33851126       0.34220795       0.00000000 </v>
   </varray>
  </structure>
  <varray name="forces" >
   <v>      -0.17864086      -0.14055617      -0.00000000 </v>
   <v>       0.17864086       0.14055617       0.00000000 </v>
  </varray>
  <varray name="stress" >
   <v>       6.49128318      -0.08730130       0.00000000 </v>
   <v>      -0.08730131       6.26058319       0.00000000 </v>
   <v>       0.00000000       0.00000000    /v>
  </varray>
  <energy>
   <i name="e_fr_energy">    -18.46381881 </i>
   <i name="e_wo_entrp">    -18.46381881 </i>
   <i name="e_0_energy">     -0.00000000 </i>
  </energy>
  <time name="totalsc">  102.36  102.72</time>
 </calculation>
 <calculation>
  <scstep>
   <time name="dav">    4.09    4.10</time>
   <time name="total">    4.53    4.55</time>
   <energy>
    <i name="alphaZ">      3.13611264 </i>
    <i name="ewald">   1303.03426984 </i>
    <i name="hartreedc">  -1550.04939307 </i>
    <i name="XCdc">     27.59290299 </i>
    <i name="pawpsdc">    847.87112887 </i>
    <i name="pawaedc">   -849.23248187 </i>
    <i name="eentropy">     -0.00000004 </i>
    <i name="bandstr">    -95.12563522 </i>
    <i name="atom">    294.30884690 </i>
    <i name="e_fr_energy">    -18.46424895 </i>
    <i name="e_wo_entrp">    -18.46424891 </i>
    <i name="e_0_energy">    -18.46424893 </i>
   </energy>
  </scstep>
  <scstep>
   <time name="dav">    4.73    4.74</time>
   <time name="total">    5.15    5.17</time>
   <energy>
    <i name="e_fr_energy">    -18.46416510 </i>
    <i name="e_wo_entrp">    -18.46416500 </i>
    <i name="e_0_energy">    -18.46416505 </i>
   </energy>
  </scstep>
  <scstep>
   <time name="dav">    4.87    4.88</time>
   <time name="total">    5.29    5.31</time>
   <energy>
    <i name="e_fr_energy">    -18.46411601 </i>
    <i name="e_wo_entrp">    -18.46411576 </i>
    <i name="e_0_energy">    -18.46411589 </i>
   </energy>
  </scstep>
  <scstep>
   <time name="dav">    4.72    4.73</time>
   <time name="total">    5.14    5.15</time>
   <energy>
    <i name="e_fr_energy">    -18.46411758 </i>
    <i name="e_wo_entrp">    -18.46411734 </i>
    <i name="e_0_energy">    -18.46411746 </i>
   </energy>
  </scstep>
  <scstep>
   <time name="dav">    4.67    4.68</time>
   <time name="total">    5.11    5.12</time>
   <energy>
    <i name="e_fr_energy">    -18.46411760 </i>
    <i name="e_wo_entrp">    -18.46411736 </i>
    <i name="e_0_energy">    -18.46411748 </i>
   </energy>
  </scstep>
  <scstep>
   <time name="dav">    4.21    4.22</time>
   <time name="total">    4.32    4.33</time>
   <energy>
    <i name="alphaZ">      3.13611264 </i>
    <i name="ewald">   1303.03426984 </i>
    <i name="hartreedc">  -1550.04920947 </i>
    <i name="XCdc">     27.59290796 </i>
    <i name="pawpsdc">    847.84331335 </i>
    <i name="pawaedc">   -849.20465405 </i>
    <i name="eentropy">     -0.00000023 </i>
    <i name="bandstr">    -95.12570452 </i>
    <i name="atom">    294.30884690 </i>
    <i name="e_fr_energy">    -18.46411759 </i>
    <i name="e_wo_entrp">    -18.46411736 </i>
    <i name="e_0_energy">    -18.46411748 </i>
   </energy>
  </scstep>
  <structure>
   <crystal>
    <varray name="basis" >
     <v>       2.13000000      -1.22975600       0.00000000 </v>
     <v>       2.13000000       1.22975600       0.00000000 </v>
     <v>       0.00000000       0.00000000      20.00000000 </v>
    </varray>
    <i name="volume">    104.77521120 </i>
    <varray name="rec_basis" >
     <v>       0.23474178      -0.40658472       0.00000000 </v>
     <v>       0.23474178       0.40658472       0.00000000 </v>
     <v>       0.00000000       0.00000000       0.05000000 </v>
    </varray>
   </crystal>
   <varray name="positions" >
    <v>       0.00423547       0.01012024      -0.00000000 </v>
    <v>       0.33909753       0.34321276       0.00000000 </v>
   </varray>
  </structure>
  <varray name="forces" >
   <v>       0.10584224      -0.08455891      -0.00000000 </v>
   <v>      -0.10584224       0.08455891       0.00000000 </v>
  </varray>
  <varray name="stress" >
   <v>       6.50951235       0.11540617       0.00000000 </v>
   <v>       0.11540619       6.21143130       0.00000000 </v>
   <v>       0.00000000       0.00000000      -0.34288633 </v>
  </varray>
  <energy>
   <i name="e_fr_energy">    -18.46411759 </i>
   <i name="e_wo_entrp">    -18.46411748 </i>
   <i name="e_0_energy">     -0.00000023 </i>
  </energy>
  <time name="totalsc">   33.65   33.82</time>
 </calculation>
 <calculation>
  <scstep>
   <time name="dav">    3.97    3.98</time>
   <time name="total">    4.40    4.43</time>
   <energy>
    <i name="alphaZ">      3.13611264 </i>
    <i name="ewald">   1303.03376301 </i>
    <i name="hartreedc">  -1550.04903932 </i>
    <i name="XCdc">     27.59289610 </i>
    <i name="pawpsdc">    847.84922997 </i>
    <i name="pawaedc">   -849.21057182 </i>
    <i name="eentropy">     -0.00000286 </i>
    <i name="bandstr">    -95.12546899 </i>
    <i name="atom">    294.30884690 </i>
    <i name="e_fr_energy">    -18.46423437 </i>
    <i name="e_wo_entrp">    -18.46423151 </i>
    <i name="e_0_energy">    -18.46423294 </i>
   </energy>
  </scstep>
  <scstep>
   <time name="dav">    4.83    4.85</time>
   <time name="total">    5.27    5.28</time>
   <energy>
    <i name="e_fr_energy">    -18.46422447 </i>
    <i name="e_wo_entrp">    -18.46422156 </i>
    <i name="e_0_energy">    -18.46422302 </i>
   </energy>
  </scstep>
  <scstep>
   <time name="dav">    4.72    4.73</time>
   <time name="total">    5.16    5.17</time>
   <energy>
    <i name="e_fr_energy">    -18.46421934 </i>
    <i name="e_wo_entrp">    -18.46421643 </i>
    <i name="e_0_energy">    -18.46421788 </i>
   </energy>
  </scstep>
  <scstep>
   <time name="dav">    5.08    5.09</time>
   <time name="total">    5.50    5.51</time>
   <energy>
    <i name="e_fr_energy">    -18.46421951 </i>
    <i name="e_wo_entrp">    -18.46421661 </i>
    <i name="e_0_energy">    -18.46421806 </i>
   </energy>
  </scstep>
  <scstep>
   <time name="dav">    4.72    4.73</time>
   <time name="total">    4.82    4.83</time>
   <energy>
    <i name="alphaZ">      3.13611264 </i>
    <i name="ewald">   1303.03376301 </i>
    <i name="hartreedc">  -1550.04884067 </i>
    <i name="XCdc">     27.59288860 </i>
    <i name="pawpsdc">    847.84572275 </i>
    <i name="pawaedc">   -849.20706047 </i>
    <i name="eentropy">     -0.00000290 </i>
    <i name="bandstr">    -95.12564937 </i>
    <i name="atom">    294.30884690 </i>
    <i name="e_fr_energy">    -18.46421952 </i>
    <i name="e_wo_entrp">    -18.46421662 </i>
    <i name="e_0_energy">    -18.46421807 </i>
   </energy>
  </scstep>
  <structure>
   <crystal>
    <varray name="basis" >
     <v>       2.13000000      -1.22975600       0.00000000 </v>
     <v>       2.13000000       1.22975600       0.00000000 </v>
     <v>       0.00000000       0.00000000      20.00000000 </v>
    </varray>
    <i name="volume">    104.77521120 </i>
    <varray name="rec_basis" >
     <v>       0.23474178      -0.40658472       0.00000000 </v>
     <v>       0.23474178       0.40658472       0.00000000 </v>
     <v>       0.00000000       0.00000000       0.05000000 </v>
    </varray>
   </crystal>
   <varray name="positions" >
    <v>       0.00442157       0.01043919      -0.00000000 </v>
    <v>       0.33891143       0.34289381       0.00000000 </v>
   </varray>
  </structure>
  <varray name="forces" >
   <v>       0.01934559      -0.08198673       0.00000000 </v>
   <v>      -0.01934559       0.08198673      -0.00000000 </v>
  </varray>
  <varray name="stress" >
   <v>       6.44317353       0.35426150       0.00000000 </v>
   <v>       0.35426154       6.26645962       0.00000000 </v>
   <v>       0.00000000       0.00000000      -0.34371423 </v>
  </varray>
  <energy>
   <i name="e_fr_energy">    -18.46421952 </i>
   <i name="e_wo_entrp">    -18.46421807 </i>
   <i name="e_0_energy">     -0.00000290 </i>
  </energy>
  <time name="totalsc">   29.20   29.35</time>
 </calculation>
 <calculation>
  <scstep>
   <time name="  <scstep>
   <time name="dav">    4.13    4.14</time>
   <time name="total">    4.56    4.59</time>
   <energy>
    <i name="alphaZ">      3.13611264 </i>
    <i name="ewald">   1303.03375895 </i>
    <i name="hartreedc">  -1550.04882696 </i>
    <i name="XCdc">     27.59288853 </i>
    <i name="pawpsdc">    847.84396361 </i>
    <i name="pawaedc">   -849.20530146 </i>
    <i name="eentropy">     -0.00000296 </i>
    <i name="bandstr">    -95.12565958 </i>
    <i name="atom">    294.30884690 </i>
    <i name="033 </i>
    <i name="e_wo_entrp">    -18.46421737 </i>
    <i name="e_0_energy">    -18.46421885 </i>
   </energy>
  </scstep>
  <scstep>
   <time name="dav">    4.52    4.53</time>
   <time name="total">    4.96    4.97</time>
   <energy>
    <i name="e_fr_energy">    -18.46422026 </i>
    <i name="e_wo_entrp">    -18.46421730 </i>
    <i name="e_0_energy">    -18.46421878 </i>
   </energy>
  </scstep>
  <scstep>
   <time name="dav">    4.65    4.66</time>
   <time name="total">    5.07    5.09</time>
   <energy>
    <i name="e_fr_energy">    -18.46422023 </i>
    <i name="e_wo_entrp">    -18.46421727 </i>
    <i name="e_0_energy">    -18.46421875 </i>
   </energy>
  </scstep>
  <scstep>
   <time name="dav">    4.39    4.40</time>
   <time name="total">    4.81    4.83</time>
   <energy>
    <i name="e_fr_energy">    -18.46422023 </i>
    <i name="e_wo_entrp">    -18.46421727 </i>
    <i name="e_0_energy">    -18.46421875 </i>
   </energy>
  </scstep>
  <scstep>
   <time name="dav">    4.34    4.35</time>
   <time name="total">    4.44    4.45</time>
   <energy>
    <i name="alphaZ">      3.13611264 </i>
    <i name="ewald">   1303.03375895 </i>
    <i name="hartreedc">  -1550.04879601 </i>
    <i name="XCdc">     27.59288818 </i>
    <i name="pawpsdc">    847.84447274 </i>
    <i name="pawaedc">   -849.20581049 </i>
    <i name="eentropy">     -0.00000296 </i>
    <i name="bandstr">    -95.12569017 </i>
    <i name="atom">    294.30884690 </i>
    <i name="e_fr_energy">    -18.46422023 </i>
    <i name="e_wo_entrp">    -18.46421727 </i>
    <i name="e_0_energy">    -18.46421875 </i>
   </energy>
  </scstep>
  <structure>
   <crystal>
    <varray name="basis" >
     <v>       2.13000000      -1.22975600       0.00000000 </v>
     <v>       2.13000000       1.22975600       0.00000000 </v>
     <v>       0.00000000       0.00000000      20.00000000 </v>
    </varray>
    <i name="volume">    104.77521120 </i>
    <varray name="rec_basis" >
     <v>       0.23474178      -0.40658472       0.00000000 </v>
     <v>       0.23474178       0.40658472       0.00000000 </v>
     <v>       0.00000000       0.00000000       0.05000000 </v>
    </varray>
   </crystal>
   <varray name="positions" >
    <v>       0.00443597       0.01046387      -0.00000000 </v>
    <v>       0.33889703       0.34286913       0.00000000 </v>
   </varray>
  </structure>
  <varray name="forces" >
   <v>       0.01401270      -0.08257743      -0.00000000 </v>
   <v>      -0.01401270       0.08257743       0.00000000 </v>
  </varray>
  <varray name="stress" >
   <v>       6.41509773       0.36164354       0.00000000 </v>
   <v>       0.36164352       6.29429480       0.00000000 </v>
   <v>       0.00000000       0.00000000      -0.34357023 </v>
  </varray>
  <energy>
   <i name="e_fr_energy">    -18.46422023 </i>
   <i name="e_wo_entrp">    -18.46421875 </i>
   <i name="e_0_energy">     -0.00000296 </i>
  </energy>
  <time name="totalsc">   27.88   28.02</time>
 </calculation>
 <calculation>
  <scstep>
   <time name="  <scstep>
   <time name="dav">    4.12    4.13</time>
   <time name="total">    4.55    4.58</time>
   <energy>
    <i name="alphaZ">      3.13611264 </i>
    <i name="ewald">   1303.03474024 </i>
    <i name="hartreedc">  -1550.04856818 </i>
    <i name="XCdc">     27.59286969 </i>
    <i name="pawpsdc">    847.84314175 </i>
    <i name="pawaedc">   -849.20447951 </i>
    <i name="eentropy">     -0.00000000 </i>
    <i name="bandstr">    -95.12682124 </i>
    <i name="atom">    294.30884690 </i>
    <i name="e_fr_energy">    -18.46415772 </i>
    <i name="e_wo_entrp">    -18.46415771 </i>
    <i name="e_0_energy">    -18.46415771 </i>
   </energy>
  </scstep>
  <scstep>
   <time name="dav">    4.80    4.81</time>
   <time name="total">    5.22    5.23</time>
   <energy>
    <i name="e_fr_energy">    -18.46406270 </i>
    <i name="e_wo_entrp">    -18.46406270 </i>
    <i name="e_0_energy">    -18.46406270 </i>
   </energy>
  </scstep>
  <scstep>
   <time name="dav">    4.72    4.73</time>
   <time name="total">    5.15    5.17</time>
   <energy">    -18.46400973 </i>
    <i name="e_wo_entrp">    -18.46400971 </i>
    <i name="e_0_energy">    -18.46400972 </i>
   </energy>
  </scstep>
  <scstep>
   <time name="dav">    4.77    4.79</time>
   <time name="total">    5.20    5.21</time>
   <energy>
    <i name="e_fr_energy">    -18.46401163 </i>
    <i name="e_wo_entrp">    -18.46401160 </i>
    <i name="e_0_energy">    -18.46401161 </i>
   </energy>
  </scstep>
  <scstep>
   <time name="dav">    4.45    4.46</time>
   <time name="total">    4.87    4.88</time>
   <energy>
    <i name="e_fr_energy">    -18.46401168 </i>
    <i name="e_wo_entrp">    -18.46401165 </i>
    <i name="e_0_energy">    -18.46401166 </i>
   </energy>
  </scstep>
  <scstep>
   <time name="dav">    5.07    5.08</time>
   <time name="total">    5.17    5.18</time>
   <energy>
    <i name="alphaZ">      3.13611264 </i>
    <i name="ewald">   1303.03474024 </i>
    <i name="hartreedc">  -1550.04946854 </i>
    <i name="XCdc">     27.59292602 </i>
    <i name="pawpsdc">    847.85602773 </i>
    <i name="pawaedc">   -849.21737290 </i>
    <i name="eentropy">     -0.00000002 </i>
    <i name="bandstr">    -95.12582374 </i>
    <i name="atom">    294.30884690 </i>
    <i name="e_fr_energy">    -18.46401168 </i>
    <i name="e_wo_entrp">    -18.46401166 </i>
    <i name="e_0_energy">    -18.46401167 </i>
   </energy>
  </scstep>
  <structure>
   <crystal>
    <varray name="basis" >
     <v>       2.13000000      -1.22975600       0.00000000 </v>
     <v>       2.13000000       1.22975600       0.00000000 </v>
     <v>       0.00000000       0.00000000      20.00000000 </v>
    </varray>
    <i name="volume">    104.77521120 </i>
    <varray name="rec_basis" >
     <v>       0.23474178      -0.40658472       0.00000000 </v>
     <v>       0.23474178       0.40658472       0.00000000 </v>
     <v>       0.00000000       0.00000000       0.05000000 </v>
    </varray>
   </crystal>
   <varray name="positions" >
    <v>       0.00589876       0.00920466      -0.00000000 </v>
    <v>       0.33743424       0.34412834       0.00000000 </v>
   </varray>
  </structure>
  <varray name="forces" >
   <v>      -0.01763882       0.17255047      -0.00000000 </v>
   <v>       0.01763882      -0.17255047       0.00000000 </v>
  </varray>
  <varray name="stress" >
   <v>       6.35817100      -0.05302623       0.00000000 </v>
   <v>      -0.05302624       6.37408342       0.00000000 </v>
   <v>       0.00000000       0.00000000      -0.34248321 </v>
  </varray>
  <energy>
   <i name="e_fr_energy">    -18.46401168 </i>
   <i name="e_wo_entrp">    -18.46401167 </i>
   <i name="e_0_energy">     -0.00000002 </i>
  </energy>
  <time name="totalsc">   34.16   34.34</time>
 </calculation>
 <calculation>
  <scstep>
   <time name="  <scstep>
   <time name="dav">    4.03    4.04</time>
   <time name="total">    4.46    4.49</time>
   <energy>
    <i name="alphaZ">      3.13611264 </i>
    <i name="ewald">   1303.03317236 </i>
    <i name="hartreedc">  -1550.04892145 </i>
    <i name="XCdc">     27.59288665 </i>
    <i name="pawpsdc">    847.85903588 </i>
    <i name="pawaedc">   -849.22038235 </i>
    <i name="eentropy">     -0.00004961 </i>
    <i name="bandstr">    -95.12504888 </i>
    <i name="atom">    294.30884690 </i>
    <i name="e_fr_energy">    -18.46434785 </i>
    <i name="e_wo_entrp">    -18.46429825 </i>
    <i name="e_0_energy">    -18.46432305 </i>
   </energy>
  </scstep>
  <scstep>
   <time name="dav">    4.68    4.69</time>
   <time name="total">    5.10    5.12</time>
   <energy>
    <i name="e_fr_energy">    -18.46431549 </i>
    <i name="e_wo_entrp">    -18.46426455 </i>
    <i name="e_0_energy">    -18.46429002 </i>
   </energy>
  </scstep>
  <scstep>
   <time name="dav">    4.79    4.80</time>
   <time name="total">    5.21    5.22</time>
   <energy>
    <i name="e_fr_energy">    -18.46429979 </i>
    <i name="e_wo_entrp">    -18.46424947 </i>
    <i name="e_0_energy">    -18.46427463 </i>
   </energy>
  </scstep>
  <scstep>
   <time name="dav">    5.25    5.26</time>
   <time name="total">    5.6y>
    <i name="e_fr_energy">    -18.46430030 </i>
    <i name="e_wo_entrp">    -18.46424996 </i>
    <i name="e_0_energy">    -18.46427513 </i>
   </energy>
  </scstep>
  <scstep>
   <time name="dav">    4.94    4.95</time>
   <time name="total">    5.04    5.05</time>
   <energy>
    <i name="alphaZ">      3.13611264 </i>
    <i name="ewald">   1303.03317236 </i>
    <i name="hartreedc">  -1550.04830505 </i>
    <i name="XCdc">     27.59286014 </i>
    <i name="pawpsdc">    847.83544053 </i>
    <i name="pawaedc">   -849.19677334 </i>
    <i name="eentropy">     -0.00005038 </i>
    <i name="bandstr">    -95.12560409 </i>
    <i name="atom">    294.30884690 </i>
    <i name="e_fr_energy">    -18.46430029 </i>
    <i name="e_wo_entrp">    -18.46424991 </i>
    <i name="e_0_energy">    -18.46427510 </i>
   </energy>
  </scstep>
  <structure>
   <crystal>
    <varray name="basis" >
     <v>       2.13000000      -1.22975600       0.00000000 </v>
     <v>       2.13000000       1.22975600       0.00000000 </v>
     <v>       0.00000000       0.00000000      20.00000000 </v>
    </varray>
    <i name="volume">    104.77521120 </i>
    <varray name="rec_basis" >
     <v>       0.23474178      -0.40658472       0.00000000 </v>
     <v>       0.23474178       0.40658472       0.00000000 </v>
     <v>       0.00000000       0.00000000       0.05000000 </v>
    </varray>
   </crystal>
   <varray name="positions" >
    <v>       0.00502689       0.00995519      -0.00000000 </v>
    <v>       0.33830611       0.34337781       0.00000000 </v>
   </varray>
  </structure>
  <varray name="forces" >
   <v>       0.00092539       0.00184147      -0.00000000 </v>
   <v>      -0.00092539      -0.00184147       0.00000000 </v>
  </varray>
  <varray name="stress" >
   <v>       6.38134260      -0.08786352       0.00000000 </v>
   <v>      -0.08786354       6.31622442       0.00000000 </v>
   <v>       0.00000000       0.00000000      -0.34405910 </v>
  </varray>
  <energy>
   <i name="e_fr_energy">    -18.46430029 </i>
   <i name="e_wo_entrp">    -18.46427510 </i>
   <i name="e_0_energy">     -0.00005038 </i>
  </energy>
[...]
       <r>  -15.2706    1.0000 </r>
       <r>   -9.2801    1.0000 </r>
       <r>   -5.3768    1.0000 </r>
       <r>   -0.6456    0.0000 </r>
       <r>    4.9990    0.0000 </r>
       <r>    7.1322    0.0000 </r>
       <r>    7.9925    0.0000 </r>
      </set>
      <set comment="kpoint 211">
       <r>  -17.2366    1.0000 </r>
       <r>  -15.7696    1.0000 </r>
       <r>   -9.1411    1.0000 </r>
       <r>   -5.1872    1.0000 </r>
       <r>   -0.9340    0.0000 </r>
       <r>    4.7364    0.0000 </r>
       <r>    7.7690    0.0000 </r>
       <r>    8.6434    0.0000 </r>
      </set>
      <set comment="kpoint 212">
       <r>  -16.9885    1.0000 </r>
       <r>  -15.9688    1.0000 </r>
       <r>   -9.3339    1.0000 </r>
       <r>   -5.0507    1.0000 </r>
       <r>   -1.0541    0.0000 </r>
       <r>    4.9728    0.0000 </r>
       <r>    8.4643    0.0000 </r>
       <r>    8.6202    0.0000 </r>
      </set>
      <set comment="kpoint 213">
       <r>  -17.0959    1.0000 </r>
       <r>  -15.6366    1.0000 </r>
       <r>   -9.8195    1.0000 </r>
       <r>   -4.9928    1.0000 </r>
       <r>   -0.9875    0.0000 </r>
       <r>    5.6663    0.0000 </r>
       <r>    7.9716    0.0000 </r>
       <r>    8.7581    0.0000 </r>
      </set>
      <set comment="kpoint 214">
       <r>  -17.3198    1.0000 </r>
       <r>  -15.0234    1.0000 </r>
       <r>  -10.5035    1.0000 </r>
       <r>   -5.0008    1.0000 </r>
       <r>   -0.7819    0.0000 </r>
       <r>    6.7095    0.0000 </r>
       <r>    7.5511    0.0000 </r>
       <r>    8.2517    0.0000 </r>
      </set>
      <set comment="kpoint 215">
       <r>  -17.4964    1.0000 </r>
       <r>  -14.3277    1.0000 </r>
       <r>  -11.2680    1.0000 </r>
       <r>   -5.0365    1.0000 </r>
       <r>   -0.5387    0.0000 </r>
       <r>    7.2404    0.0000 </r>
       <r>    7.8658    0.0000 </r>
       <r>    8.0105    0.0000 </r>
      </set>
      <set comment="kpoint 216">
       <r>  -17.5893    1.0000 </r>
       <r>  -13.7228    1.0000 </r>
       <r>  -11.9172    1.0000 </r>
       <r>   -5.0641    1.0000 </r>
       <r>   -0.3756    0.0000 </r>
       <r>    7.1038    0.0000 </r>
       <r>    7.6467    0.0000 </r>
       <r>    8.5149    0.0000 </r>
      </set>
      <set comment="kpoint 217">
       <r>  -17.5893    1.0000 </r>
       <r>  -13.7227    1.0000 </r>
       <r>  -11.9172    1.0000 </r>
       <r>   -5.0641    1.0000 </r>
       <r>   -0.3756    0.0000 </r>
       <r>    7.1038    0.0000 </r>
       <r>    7.6467    0.0000 </r>
       <r>    8.5149    0.0000 </r>
      </set>
      <set comment="kpoint 218">
       <r>  -17.4964    1.0000 </r>
       <r>  -14.3276    1.0000 </r>
       <r>  -11.2681    1.0000 </r>
       <r>   -5.0366    1.0000 </r>
       <r>   -0.5387    0.0000 </r>
       <r>    7.2404    0.0000 </r>
       <r>    7.8658    0.0000 </r>
       <r>    8.0104    0.0000 </r>
      </set>
      <set comment="kpoint 219">
       <r>  -17.3198    1.0000 </r>
       <r>  -15.0234    1.0000 </r>
       <r>  -10.5036    1.0000 </r>
       <r>   -5.0009    1.0000 </r>
       <r>   -0.7818    0.0000 </r>
       <r>    6.7095    0.0000 </r>
       <r>    7.5511    0.0000 </r>
       <r>    8.2517    0.0000 </r>
      </set>
      <set comment="kpoint 220">
       <r>  -17.0959    1.0000 </r>
       <r>  -15.6365    1.0000 </r>
       <r>   -9.8196    1.0000 </r>
       <r>   -4.9929    1.0000 </r>
       <r>   -0.9873    0.0000 </r>
       <r>    5.6663    0.0000 </r>
       <r>    7.9716    0.0000 </r>
       <r>    8.7581    0.0000 </r>
      </set>
      <set comment="kpoint 221">
       <r>  -16.9885    1.0000 </r>
       <r>  -15.9686    1.0000 </r>
       <r>   -9.3340    1.0000 </r>
       <r>   -5.0508    1.0000 </r>
       <r>   -1.0539    0.0000 </r>
       <r>    4.9728    0.0000 </r>
       <r>    8.4643    0.0000 </r>
       <r>    8.6202    0.0000 </r>
      </set>
     </set>
    </set>
   </array>
  </eigenvalues>
  <separator name="orbital magnetization" >
   <v name="MAGDIPOLOUT">      0.00000000      0.00000000      0.00000000</v>
  </separator>
  <dos>
   <i name="efermi">     -2.72501324 </i>
   <total>
    <array>
     <dimension dim="1">gridpoints</dimension>
     <dimension dim="2">spin</dimension>
     <field>energy</field>
     <field>total</field>
     <field>integrated</field>
     <set>
      <set comment="spin 1">
       <r>   -23.9250     0.0000     0.0000 </r>
       <r>   -23.8058     0.0000     0.0000 </r>
       <r>   -23.6865     0.0000     0.0000 </r>
       <r>   -23.5673     0.0000     0.0000 </r>
       <r>   -23.4481     0.0000     0.0000 </r>
       <r>   -23.3288     0.0000     0.0000 </r>
       <r>   -23.2096     0.0000     0.0000 </r>
       <r>   -23.0904     0.0000     0.0000 </r>
       <r>   -22.9711     0.0000     0.0000 </r>
       <r>   -22.8519     0.0000     0.0000 </r>
       <r>   -22.7327     0.0000     0.0000 </r>
       <r>   -22.6135     0.0000     0.0000 </r>
       <r>   -22.4942     0.0000     0.0000 </r>
       <r>   -22.3750     0.0000     0.0000 </r>
       <r>   -22.2558     0.0538     0.0064 </r>
       <r>   -22.1365     0.1291     0.0471 </r>
       <r>   -22.0173     0.2282     0.0862 </r>
       <r>   -21.8981     0.4563     0.1406 </r>
       <r>   -21.7788     0.2282     0.1678 </r>
       <r>   -21.6596     0.0606     0.1750 </r>
       <r>   -21.5404     0.4564     0.2494 </r>
       <r>   -21.4212     0.2278     0.2766 </r>
       <r>   -21.3019     0.0010     0.2768 </r>
       <r>   -21.1827     0.0682     0.3392 </r>
       <r>   -21.0635     0.0000     0.3855 </r>
       <r>   -20.9442     0.2273     0.4126 </r>
       <r>   -20.8250     0.2290     0.4400 </r>
       <r>   -20.7058     0.0000     0.4943 </r>
       <r>   -20.5866     0.4564     0.5488 </r>
       <r>   -20.4673     0.0000     0.5488 </r>
       <r>   -20.3481     0.2310     0.5763 </r>
       <r>   -20.2289     0.1375     0.6468 </r>
       <r>   -20.1096     0.0000     0.6848 </r>
       <r>   -19.9904     0.4564     0.7392 </r>
       <r>   -19.8712     0.0000     0.7392 </r>
       <r>   -19.7519     0.1655     0.7590 </r>
       <r>   -19.6327     0.6847     0.8481 </r>
       <r>   -19.5135     0.4564     0.9025 </r>
       <r>   -19.3943     0.0000     0.9025 </r>
       <r>   -19.2750     0.4469     0.9558 </r>
       <r>   -19.1558     0.0000     0.9569 </r>
       <r>   -19.0366     0.4564     1.0113 </r>
       <r>   -18.9173     0.6782     1.0922 </r>
       <r>   -18.7981     0.0017     1.0932 </r>
       <r>   -18.6789     0.0000     1.1474 </r>
       <r>   -18.5596     0.0000     1.1474 </r>
       <r>   -18.4404     0.4564     1.2018 </r>
       <r>   -18.3212     0.5945     1.2727 </r>
       <r>   -18.2020     0.0002     1.2835 </r>
       <r>   -18.0827     0.0971     1.3494 </r>
       <r>   -17.9635     0.0000     1.3651 </r>
       <r>   -17.8443     0.0000     1.4195 </r>
       <r>   -17.7250     0.0000     1.4195 </r>
       <r>   -17.6058     0.2740     1.4522 </r>
       <r>   -17.4866     0.4191     1.5783 </r>
       <r>   -17.3674     0.0000     1.5828 </r>
       <r>   -17.2481     0.4683     1.6386 </r>
       <r>   -17.1289     0.0000     1.6644 </r>
       <r>   -17.0097     0.0003     1.7189 </r>
       <r>   -16.8904     0.0000     1.7460 </r>
       <r>   -16.7712     0.2307     1.7735 </r>
       <r>   -16.6520     0.6845     1.9093 </r>
       <r>   -16.5327     0.0000     1.9093 </r>
       <r>   -16.4135     0.0000     1.9093 </r>
       <r>   -16.2943     0.0000     1.9093 </r>
       <r>   -16.1751     0.0055     1.9100 </r>
       <r>   -16.0558     0.0000     1.9365 </r>
       <r>   -15.9366     0.6847     2.0181 </r>
       <r>   -15.8174     0.0000     2.0181 </r>
       <r>   -15.6981     0.3922     2.0649 </r>
       <r>   -15.5789     0.4564     2.1270 </r>
       <r>   -15.4597     0.0000     2.1270 </r>
       <r>   -15.3404     0.0543     2.1335 </r>
       <r>   -15.2212     1.1411     2.2812 </r>
       <r>   -15.1020     0.0000     2.2812 </r>
       <r>   -14.9828     0.4564     2.3356 </r>
       <r>   -14.8635     0.4564     2.3900 </r>
       <r>   -14.7443     0.2279     2.4172 </r>
       <r>   -14.6251     0.7705     2.5091 </r>
       <r>   -14.5058     0.0000     2.5261 </r>
       <r>   -14.3866     0.0000     2.5261 </r>
       <r>   -14.2674     0.4576     2.5806 </r>
       <r>   -14.1482     0.4543     2.6619 </r>
       <r>   -14.0289     0.0000     2.6621 </r>
       <r>   -13.9097     0.4564     2.7166 </r>
       <r>   -13.7905     0.0000     2.7166 </r>
       <r>   -13.6712     0.4564     2.7710 </r>
       <r>   -13.5520     0.2282     2.7982 </r>
       <r>   -13.4328     0.4564     2.8526 </r>
       <r>   -13.3135     0.0749     2.8615 </r>
       <r>   -13.1943     0.0000     2.9161 </r>
       <r>   -13.0751     0.0000     2.9161 </r>
       <r>   -12.9559     0.9052     3.0240 </r>
       <r>   -12.8366     0.2307     3.0525 </r>
       <r>   -12.7174     0.0000     3.1066 </r>
       <r>   -12.5982     0.2282     3.1338 </r>
       <r>   -12.4789     0.0000     3.1338 </r>
       <r>   -12.3597     0.2195     3.1600 </r>
       <r>   -12.2405     1.1266     3.2953 </r>
       <r>   -12.1212     0.0000     3.3515 </r>
       <r>   -12.0020     0.0000     3.3515 </r>
       <r>   -11.8828     0.4564     3.4059 </r>
       <r>   -11.7636     0.0000     3.4059 </r>
       <r>   -11.6443     0.4564     3.5147 </r>
       <r>   -11.5251     0.0000     3.5147 </r>
       <r>   -11.4059     0.0690     3.5230 </r>
       <r>   -11.2866     0.2302     3.6238 </r>
       <r>   -11.1674     0.0000     3.6780 </r>
       <r>   -11.0482     0.6847     3.7596 </r>
       <r>   -10.9290     0.4564     3.8141 </r>
       <r>   -10.8097     0.0000     3.8141 </r>
       <r>   -10.6905     0.0000     3.8141 </r>
       <r>   -10.5713     0.4516     3.8679 </r>
       <r>   -10.4520     0.9124     4.0589 </r>
       <r>   -10.3328     0.2747     4.0917 </r>
       <r>   -10.2136     0.0063     4.1459 </r>
       <r>   -10.0943     0.2282     4.1995 </r>
       <r>    -9.9751     0.4564     4.2540 </r>
       <r>    -9.8559     0.6979     4.3916 </r>
       <r>    -9.7367     0.2283     4.4989 </r>
       <r>    -9.6174     0.7257     4.6398 </r>
       <r>    -9.4982     0.5622     4.7292 </r>
       <r>    -9.3790     0.0512     4.7771 </r>
       <r>    -9.2597     0.6956     4.8811 </r>
       <r>    -9.1405     1.0370     5.0579 </r>
       <r>    -9.0213     1.1340     5.2599 </r>
       <r>    -8.9020     0.0000     5.2608 </r>
       <r>    -8.7828     1.3660     5.4236 </r>
       <r>    -8.6636     0.2281     5.5057 </r>
       <r>    -8.5444     0.0000     5.5873 </r>
       <r>    -8.4251     0.9152     5.7236 </r>
       <r>    -8.3059     0.0000     5.7506 </r>
       <r>    -8.1867     0.4564     5.8050 </r>
       <r>    -8.0674     1.4376     5.9764 </r>
       <r>    -7.9482     0.4257     6.0734 </r>
       <r>    -7.8290     0.2282     6.1043 </r>
       <r>    -7.7098     0.4508     6.1581 </r>
       <r>    -7.5905     0.2282     6.2404 </r>
       <r>    -7.4713     0.2282     6.3220 </r>
       <r>    -7.3521     0.8887     6.4280 </r>
       <r>    -7.2328     0.0000     6.4308 </r>
       <r>    -7.1136     0.4964     6.5444 </r>
       <r>    -6.9944     0.6847     6.6485 </r>
       <r>    -6.8751     0.4564     6.7029 </r>
       <r>    -6.7559     0.0000     6.7029 </r>
       <r>    -6.6367     0.6203     6.7769 </r>
       <r>    -6.5175     1.2557     6.9343 </r>
       <r>    -6.3982     0.0017     6.9481 </r>
       <r>    -6.2790     0.0000     7.0295 </r>
       <r>    -6.1598     0.2282     7.0567 </r>
       <r>    -6.0405     0.6847     7.1383 </r>
       <r>    -5.9213     0.2282     7.1655 </r>
       <r>    -5.8021     0.6847     7.2744 </r>
       <r>    -5.6828     0.7607     7.3651 </r>
       <r>    -5.5636     0.4327     7.4167 </r>
       <r>    -5.4444     0.0000     7.4195 </r>
       <r>    -5.3252     0.4564     7.4739 </r>
       <r>    -5.2059     0.0010     7.4740 </r>
       <r>    -5.0867     0.0003     7.5012 </r>
       <r>    -4.9675     1.3693     7.7460 </r>
       <r>    -4.8482     0.0000     7.7460 </r>
       <r>    -4.7290     0.0000     7.7460 </r>
       <r>    -4.6098     0.2282     7.7732 </r>
       <r>    -4.4905     0.0000     7.7732 </r>
       <r>    -4.3713     0.4564     7.8277 </r>
       <r>    -4.2521     0.4682     7.8835 </r>
       <r>    -4.1329     0.0000     7.9093 </r>
       <r>    -4.0136     0.0000     7.9093 </r>
       <r>    -3.8944     0.0026     7.9096 </r>
       <r>    -3.7752     0.0000     7.9365 </r>
       <r>    -3.6559     0.0000     7.9365 </r>
       <r>    -3.5367     0.0000     7.9365 </r>
       <r>    -3.4175     0.0000     7.9909 </r>
       <r>    -3.2983     0.0000     7.9909 </r>
       <r>    -3.1790     0.0000     7.9909 </r>
       <r>    -3.0598     0.0000     7.9909 </r>
       <r>    -2.9406     0.0000     7.9909 </r>
       <r>    -2.8213     0.0000     7.9909 </r>
       <r>    -2.7021     0.1521     8.0091 </r>
       <r>    -2.5829     0.0000     8.0091 </r>
       <r>    -2.4636     0.0000     8.0091 </r>
       <r>    -2.3444     0.0000     8.0091 </r>
       <r>    -2.2252     0.0000     8.0091 </r>
       <r>    -2.1060     0.0000     8.0091 </r>
       <r>    -1.9867     0.0023     8.0093 </r>
       <r>    -1.8675     0.0000     8.0635 </r>
       <r>    -1.7483     0.0000     8.0635 </r>
       <r>    -1.6290     0.2282     8.0907 </r>
       <r>    -1.5098     0.0000     8.0907 </r>
       <r>    -1.3906     0.0000     8.0907 </r>
       <r>    -1.2713     0.0125     8.0922 </r>
       <r>    -1.1521     0.4564     8.2540 </r>
       <r>    -1.0329     0.2279     8.2811 </r>
       <r>    -0.9137     0.6842     8.3628 </r>
       <r>    -0.7944     0.0168     8.3648 </r>
       <r>    -0.6752     0.0000     8.4172 </r>
       <r>    -0.5560     0.0033     8.4720 </r>
       <r>    -0.4367     0.0000     8.5261 </r>
       <r>    -0.3175     0.4564     8.5805 </r>
       <r>    -0.1983     0.5181     8.6423 </r>
       <r>    -0.0791     0.0000     8.6621 </r>
       <r>     0.0402     0.0000     8.6621 </r>
       <r>     0.1594     0.3777     8.7072 </r>
       <r>     0.2786     0.0000     8.7166 </r>
       <r>     0.3979     0.4564     8.7710 </r>
       <r>     0.5171     0.4633     8.8262 </r>
       <r>     0.6363     0.4564     8.8844 </r>
       <r>     0.7556     0.2201     8.9106 </r>
       <r>     0.8748     0.6847     8.9932 </r>
       <r>     0.9940     0.2282     9.0204 </r>
       <r>     1.1132     0.4564     9.0748 </r>
       <r>     1.2325     0.2282     9.1020 </r>
       <r>     1.3517     0.4945     9.1610 </r>
       <r>     1.4709     0.6137     9.2342 </r>
       <r>     1.5902     1.1411     9.4059 </r>
       <r>     1.7094     0.2608     9.4642 </r>
       <r>     1.8286     0.2358     9.4930 </r>
       <r>     1.9479     0.6845     9.6281 </r>
       <r>     2.0671     0.8840     9.7335 </r>
       <r>     2.1863     0.0000     9.7914 </r>
       <r>     2.3055     0.4547     9.9544 </r>
       <r>     2.4248     0.4564    10.0091 </r>
       <r>     2.5440     0.9130    10.1179 </r>
       <r>     2.6632     0.5246    10.2349 </r>
       <r>     2.7825     0.5860    10.3828 </r>
       <r>     2.9017     1.3987    10.5885 </r>
       <r>     3.0209     0.0000    10.6122 </r>
       <r>     3.1401     0.9258    10.7226 </r>
       <r>     3.2594     0.4722    10.8318 </r>
       <r>     3.3786     1.1505    11.0487 </r>
       <r>     3.4978     0.2165    11.1279 </r>
       <r>     3.6171     1.1411    11.2925 </r>
       <r>     3.7363     0.6762    11.4276 </r>
       <r>     3.8555     0.6847    11.5102 </r>
       <r>     3.9748     0.0000    11.5102 </r>
       <r>     4.0940     1.7165    11.7693 </r>
       <r>     4.2132     0.9907    11.9276 </r>
       <r>     4.3324     0.4558    12.0271 </r>
       <r>     4.4517     0.4511    12.0810 </r>
       <r>     4.5709     0.6098    12.2088 </r>
       <r>     4.6901     0.9129    12.3810 </r>
       <r>     4.8094     0.4562    12.4353 </r>
       <r>     4.9286     0.9398    12.5746 </r>
       <r>     5.0478     0.6886    12.7624 </r>
       <r>     5.1671     0.8324    12.9428 </r>
       <r>     5.2863     0.6977    13.0356 </r>
       <r>     5.4055     0.9129    13.1701 </r>
       <r>     5.5247     0.0138    13.1717 </r>
       <r>     5.6440     0.4568    13.2790 </r>
       <r>     5.7632     0.5059    13.3937 </r>
       <r>     5.8824     0.9126    13.5510 </r>
       <r>     6.0017     0.6847    13.6327 </r>
       <r>     6.1209     0.6847    13.7143 </r>
       <r>     6.2401     0.1776    13.7355 </r>
       <r>     6.3593     0.0000    13.8776 </r>
       <r>     6.4786     0.6847    13.9592 </r>
       <r>     6.5978     0.0000    13.9592 </r>
       <r>     6.7170     1.6263    14.1531 </r>
       <r>     6.8363     0.9075    14.2851 </r>
       <r>     6.9555     0.0000    14.2857 </r>
       <r>     7.0747     0.4396    14.3381 </r>
       <r>     7.1940     0.4564    14.4490 </r>
       <r>     7.3132     0.7295    14.5360 </r>
       <r>     7.4324     0.4565    14.6122 </r>
       <r>     7.5516     0.2431    14.6957 </r>
       <r>     7.6709     0.4563    14.7755 </r>
       <r>     7.7901     0.2279    14.8027 </r>
       <r>     7.9093     0.5006    14.8624 </r>
       <r>     8.0286     1.7907    15.1341 </r>
       <r>     8.1478     0.0000    15.1655 </r>
       <r>     8.2670     0.9794    15.2823 </r>
       <r>     8.3863     0.4564    15.3832 </r>
       <r>     8.5055     0.2701    15.4154 </r>
       <r>     8.6247     1.0406    15.5889 </r>
       <r>     8.7439     0.0105    15.6294 </r>
       <r>     8.8632     0.2282    15.7097 </r>
       <r>     8.9824     0.0000    15.7098 </r>
       <r>     9.1016     0.0761    15.7370 </r>
       <r>     9.2209     0.2282    15.7642 </r>
       <r>     9.3401     0.4564    15.8186 </r>
       <r>     9.4593     0.2526    15.8487 </r>
       <r>     9.5785     0.2282    15.9002 </r>
       <r>     9.6978     0.0000    15.9002 </r>
       <r>     9.8170     0.2282    15.9274 </r>
       <r>     9.9362     0.0000    15.9274 </r>
       <r>    10.0555     0.0000    15.9274 </r>
       <r>    10.1747     0.0000    15.9274 </r>
       <r>    10.2939     0.1521    16.0000 </r>
       <r>    10.4132     0.0000    16.0000 </r>
       <r>    10.5324     0.0000    16.0000 </r>
       <r>    10.6516     0.0000    16.0000 </r>
       <r>    10.7708     0.0000    16.0000 </r>
       <r>    10.8901     0.0000    16.0000 </r>
       <r>    11.0093     0.0000    16.0000 </r>
       <r>    11.1285     0.0000    16.0000 </r>
       <r>    11.2478     0.0000    16.0000 </r>
       <r>    11.3670     0.0000    16.0000 </r>
       <r>    11.4862     0.0000    16.0000 </r>
       <r>    11.6055     0.0000    16.0000 </r>
       <r>    11.7247     0.0000    16.0000 </r>
       <r>    11.8439     0.0000    16.0000 </r>
      </set>
     </set>
    </array>
   </total>
  </dos>
 </calculation>
 <structure name="finalpos" >
  <crystal>
   <varray name="basis" >
    <v>       2.13000000      -1.22975600       0.00000000 </v>
    <v>       2.13000000       1.22975600       0.00000000 </v>
    <v>       0.00000000       0.00000000      20.00000000 </v>
   </varray>
   <i name="volume">    104.77521120 </i>
   <varray name="rec_basis" >
    <v>       0.23474178      -0.40658472       0.00000000 </v>
    <v>       0.23474178       0.40658472       0.00000000 </v>
    <v>       0.00000000       0.00000000       0.05000000 </v>
   </varray>
  </crystal>
  <varray name="positions" >
   <v>       0.00500175       0.01000088      -0.00000000 </v>
   <v>       0.33833125       0.34333212       0.00000000 </v>
  </varray>
 </structure>
</modeling>
