       N       E                     dE             d eps       ncg     rms          rms(c)
DAV:   1     0.141503358162E+04    0.14150E+04   -0.68446E+04 45084   0.167E+03
DAV:   2     0.196923452982E+02   -0.13953E+04   -0.13486E+04 74448   0.255E+02
DAV:   3    -0.195067754298E+03   -0.21476E+03   -0.21313E+03 53472   0.105E+02
DAV:   4    -0.203869873936E+03   -0.88021E+01   -0.87515E+01 60372   0.242E+01
DAV:   5    -0.204168482212E+03   -0.29861E+00   -0.29812E+00 69600   0.380E+00    0.161E+01
DAV:   6    -0.196819905573E+03    0.73486E+01   -0.41407E+01 65670   0.148E+01    0.606E+00
DAV:   7    -0.195220868306E+03    0.15990E+01   -0.82575E+00 62994   0.781E+00    0.383E+00
DAV:   8    -0.194746851520E+03    0.47402E+00   -0.15687E+00 53856   0.328E+00    0.799E-01
DAV:   9    -0.194730875659E+03    0.15976E-01   -0.26219E-01 65844   0.129E+00    0.480E-01
DAV:  10    -0.194702994568E+03    0.27881E-01   -0.96221E-02 64656   0.753E-01    0.251E-01
DAV:  11    -0.194697109503E+03    0.58851E-02   -0.79131E-03 64392   0.281E-01    0.197E-01
DAV:  12    -0.194692626405E+03    0.44831E-02   -0.86626E-03 66420   0.228E-01    0.955E-02
DAV:  13    -0.194681918596E+03    0.10708E-01   -0.11620E-02 55692   0.203E-01    0.784E-02
DAV:  14    -0.194680296789E+03    0.16218E-02   -0.13679E-03 62580   0.101E-01    0.641E-02
DAV:  15    -0.194674989936E+03    0.53069E-02   -0.32845E-03 54924   0.111E-01    0.621E-02
DAV:  16    -0.194675200316E+03   -0.21038E-03   -0.55555E-04 57648   0.635E-02    0.485E-02
DAV:  17    -0.194682161836E+03   -0.69615E-02   -0.22253E-03 57576   0.772E-02    0.451E-02
DAV:  18    -0.194687334183E+03   -0.51723E-02   -0.10449E-03 58296   0.693E-02    0.285E-02
DAV:  19    -0.194689167336E+03   -0.18332E-02   -0.24296E-04 61152   0.359E-02    0.175E-02
DAV:  20    -0.194690553927E+03   -0.13866E-02   -0.16097E-04 58320   0.270E-02    0.901E-03
DAV:  21    -0.194690994459E+03   -0.44053E-03   -0.27678E-05 58788   0.126E-02    0.529E-03
DAV:  22    -0.194691126721E+03   -0.13226E-03   -0.62219E-06 60708   0.567E-03    0.322E-03
DAV:  23    -0.194691202044E+03   -0.75323E-04   -0.33417E-06 56712   0.390E-03    0.161E-03
DAV:  24    -0.194691230693E+03   -0.28649E-04   -0.16935E-06 58464   0.254E-03    0.613E-04
DAV:  25    -0.194691234770E+03   -0.40773E-05   -0.14332E-07 58968   0.929E-04    0.414E-04
DAV:  26    -0.194691236891E+03   -0.21208E-05   -0.34413E-08 56904   0.466E-04    0.199E-04
DAV:  27    -0.194691238367E+03   -0.14760E-05   -0.27518E-08 56088   0.291E-04    0.679E-05
DAV:  28    -0.194691238916E+03   -0.54900E-06   -0.52350E-09 49260   0.134E-04    0.394E-05
DAV:  29    -0.194691239185E+03   -0.26944E-06    0.26821E-10 46320   0.869E-05    0.187E-05
DAV:  30    -0.194691239221E+03   -0.35334E-07    0.61409E-09 40128   0.348E-05    0.123E-05
DAV:  31    -0.194691239236E+03   -0.15452E-07    0.62917E-09 37032   0.197E-05    0.768E-06
DAV:  32    -0.194691239242E+03   -0.57753E-08    0.64092E-09 38880   0.123E-05
   1 F= -.19469124E+03 E0= -.19469124E+03  d E =-.842421E-16
