<?xml version="1.0" encoding="ISO-8859-1"?>
<modeling>
 <generator>
  <i name="program" type="string">vasp </i>
  <i name="version" type="string">5.4.4.18Apr17-6-g9f103f2a35  </i>
  <i name="subversion" type="string">(build May 31 2018 21:15:54) complex            parallel </i>
  <i name="platform" type="string">c7_intel_O1 </i>
  <i name="date" type="string">2020 08 12 </i>
  <i name="time" type="string">18:22:57 </i>
 </generator>
 <incar>
  <i type="string" name="SYSTEM"> W-1, se-2</i>
  <i type="int" name="ISTART">     0</i>
  <i type="string" name="PREC">accurate</i>
  <i type="string" name="ALGO"> N</i>
  <i type="logical" name="ADDGRID"> T  </i>
  <i name="AMIN">      0.01000000</i>
  <i type="int" name="ICHARG">     2</i>
  <i type="int" name="NELMIN">     5</i>
  <i type="int" name="IBRION">    -1</i>
  <i name="EDIFF">      0.00000001</i>
  <i name="EDIFFG">     -0.00000001</i>
  <i type="int" name="NSW">     0</i>
  <i name="SYMPREC">      0.00010000</i>
  <i name="ENCUT">    800.00000000</i>
  <i type="logical" name="LREAL"> F  </i>
  <i type="int" name="ISMEAR">     0</i>
  <i name="SIGMA">      0.01000000</i>
  <i type="logical" name="LWAVE"> F  </i>
  <i type="logical" name="LCHARG"> F  </i>
  <v type="int" name="KPOINT_BSE">    -1     0     0     0</v>
 </incar>
 <structure name="primitive_cell" >
  <crystal>
   <varray name="basis" >
    <v>       9.84600000       0.00000000       0.00000000 </v>
    <v>       4.92300000       8.52144000       0.00000000 </v>
    <v>       0.00000000       0.00000000      20.00000000 </v>
   </varray>
   <i name="volume">   1678.04196480 </i>
   <varray name="rec_basis" >
    <v>       0.10156409      -0.05867553       0.00000000 </v>
    <v>       0.00000000       0.11735106       0.00000000 </v>
    <v>       0.00000000       0.00000000       0.05000000 </v>
   </varray>
  </crystal>
  <varray name="positions" >
   <v>       0.33330000       0.00006700       0.00000000 </v>
   <v>       0.44442600      -0.22218500      -0.08454100 </v>
   <v>       0.44442600      -0.22218500       0.08454100 </v>
   <v>       0.44442600       0.11114900      -0.08454100 </v>
   <v>       0.44442600       0.11114900       0.08454100 </v>
   <v>       0.11109200       0.11114900       0.08454100 </v>
   <v>       0.11109200       0.11216500      -0.08454100 </v>
   <v>       0.33330000       0.33340000       0.00000000 </v>
   <v>      -0.00003300       0.33340000       0.00000000 </v>
   <v>      -0.33336700      -0.33326700       0.00000000 </v>
   <v>       0.33330000      -0.33326700       0.00000000 </v>
   <v>      -0.33336700       0.00006700       0.00000000 </v>
   <v>      -0.00003300       0.00006700       0.00000000 </v>
   <v>       0.11109200       0.44448200      -0.08454100 </v>
   <v>       0.11109200       0.44448200       0.08454100 </v>
   <v>      -0.22224100      -0.22218500      -0.08454100 </v>
   <v>      -0.22224100      -0.22218500       0.08454100 </v>
   <v>       0.11109200      -0.22218500      -0.08454100 </v>
   <v>       0.11109200      -0.22218500       0.08454100 </v>
   <v>       0.44442600       0.44448200      -0.08454100 </v>
   <v>      -0.22224100       0.44448200      -0.08454100 </v>
   <v>       0.44442600       0.44448200       0.08454100 </v>
   <v>      -0.22224100       0.44448200       0.08454100 </v>
   <v>      -0.22224100       0.11114900      -0.08454100 </v>
   <v>      -0.22224100       0.11114900       0.08454100 </v>
   <v>      -0.00003300      -0.33326700       0.00000000 </v>
   <v>      -0.33336700       0.33340000       0.00000000 </v>
  </varray>
 </structure>
 <varray name="primitive_index" >
  <v type="int" >        1 </v>
  <v type="int" >       17 </v>
  <v type="int" >       26 </v>
  <v type="int" >       11 </v>
  <v type="int" >       20 </v>
  <v type="int" >       19 </v>
  <v type="int" >       10 </v>
  <v type="int" >        4 </v>
  <v type="int" >        6 </v>
  <v type="int" >        8 </v>
  <v type="int" >        7 </v>
  <v type="int" >        2 </v>
  <v type="int" >        3 </v>
  <v type="int" >       13 </v>
  <v type="int" >       22 </v>
  <v type="int" >       18 </v>
  <v type="int" >       27 </v>
  <v type="int" >       16 </v>
  <v type="int" >       25 </v>
  <v type="int" >       14 </v>
  <v type="int" >       15 </v>
  <v type="int" >       23 </v>
  <v type="int" >       24 </v>
  <v type="int" >       12 </v>
  <v type="int" >       21 </v>
  <v type="int" >        9 </v>
  <v type="int" >        5 </v>
 </varray>
 <kpoints>
  <generation param="Gamma">
   <v type="int" name="divisions">      21       21        1 </v>
   <v name="usershift">      0.00000000       0.00000000       0.00000000 </v>
   <v name="genvec1">      0.04761905      -0.00000000       0.00000000 </v>
   <v name="genvec2">      0.00000000       0.04761905       0.00000000 </v>
   <v name="genvec3">      0.00000000       0.00000000       1.00000000 </v>
   <v name="shift">      0.00000000       0.00000000       0.00000000 </v>
  </generation>
  <varray name="kpointlist" >
   <v>       0.00000000       0.00000000       0.00000000 </v>
   <v>       0.04761905       0.00000000       0.00000000 </v>
   <v>       0.09523810       0.00000000       0.00000000 </v>
   <v>       0.14285714       0.00000000       0.00000000 </v>
   <v>       0.19047619       0.00000000       0.00000000 </v>
   <v>       0.23809524       0.00000000       0.00000000 </v>
   <v>       0.28571429       0.00000000       0.00000000 </v>
   <v>       0.33333333       0.00000000       0.00000000 </v>
   <v>       0.38095238       0.00000000       0.00000000 </v>
   <v>       0.42857143       0.00000000       0.00000000 </v>
   <v>       0.47619048       0.00000000       0.00000000 </v>
   <v>       0.00000000       0.04761905       0.00000000 </v>
   <v>       0.04761905       0.04761905       0.00000000 </v>
   <v>       0.09523810       0.04761905       0.00000000 </v>
   <v>       0.14285714       0.04761905       0.00000000 </v>
   <v>       0.19047619       0.04761905       0.00000000 </v>
   <v>       0.23809524       0.04761905       0.00000000 </v>
   <v>       0.28571429       0.04761905       0.00000000 </v>
   <v>       0.33333333       0.04761905       0.00000000 </v>
   <v>       0.38095238       0.04761905       0.00000000 </v>
   <v>       0.42857143       0.04761905       0.00000000 </v>
   <v>       0.47619048       0.04761905       0.00000000 </v>
   <v>      -0.47619048       0.04761905       0.00000000 </v>
   <v>      -0.42857143       0.04761905       0.00000000 </v>
   <v>      -0.38095238       0.04761905       0.00000000 </v>
   <v>      -0.33333333       0.04761905       0.00000000 </v>
   <v>      -0.28571429       0.04761905       0.00000000 </v>
   <v>      -0.23809524       0.04761905       0.00000000 </v>
   <v>      -0.19047619       0.04761905       0.00000000 </v>
   <v>      -0.14285714       0.04761905       0.00000000 </v>
   <v>      -0.09523810       0.04761905       0.00000000 </v>
   <v>      -0.04761905       0.04761905       0.00000000 </v>
   <v>       0.00000000       0.09523810       0.00000000 </v>
   <v>       0.04761905       0.09523810       0.00000000 </v>
   <v>       0.09523810       0.09523810       0.00000000 </v>
   <v>       0.14285714       0.09523810       0.00000000 </v>
   <v>       0.19047619       0.09523810       0.00000000 </v>
   <v>       0.23809524       0.09523810       0.00000000 </v>
   <v>       0.28571429       0.09523810       0.00000000 </v>
   <v>       0.33333333       0.09523810       0.00000000 </v>
   <v>       0.38095238       0.09523810       0.00000000 </v>
   <v>       0.42857143       0.09523810       0.00000000 </v>
   <v>       0.47619048       0.09523810       0.00000000 </v>
   <v>      -0.47619048       0.09523810       0.00000000 </v>
   <v>      -0.42857143       0.09523810       0.00000000 </v>
   <v>      -0.38095238       0.09523810       0.00000000 </v>
   <v>      -0.33333333       0.09523810       0.00000000 </v>
   <v>      -0.28571429       0.09523810       0.00000000 </v>
   <v>      -0.23809524       0.09523810       0.00000000 </v>
   <v>      -0.19047619       0.09523810       0.00000000 </v>
   <v>      -0.14285714       0.09523810       0.00000000 </v>
   <v>      -0.09523810       0.09523810       0.00000000 </v>
   <v>      -0.04761905       0.09523810       0.00000000 </v>
   <v>       0.00000000       0.14285714       0.00000000 </v>
   <v>       0.04761905       0.14285714       0.00000000 </v>
   <v>       0.09523810       0.14285714       0.00000000 </v>
   <v>       0.14285714       0.14285714       0.00000000 </v>
   <v>       0.19047619       0.14285714       0.00000000 </v>
   <v>       0.23809524       0.14285714       0.00000000 </v>
   <v>       0.28571429       0.14285714       0.00000000 </v>
   <v>       0.33333333       0.14285714       0.00000000 </v>
   <v>       0.38095238       0.14285714       0.00000000 </v>
   <v>       0.42857143       0.14285714       0.00000000 </v>
   <v>       0.47619048       0.14285714       0.00000000 </v>
   <v>      -0.47619048       0.14285714       0.00000000 </v>
   <v>      -0.42857143       0.14285714       0.00000000 </v>
   <v>      -0.38095238       0.14285714       0.00000000 </v>
   <v>      -0.33333333       0.14285714       0.00000000 </v>
   <v>      -0.28571429       0.14285714       0.00000000 </v>
   <v>      -0.23809524       0.14285714       0.00000000 </v>
   <v>      -0.19047619       0.14285714       0.00000000 </v>
   <v>      -0.14285714       0.14285714       0.00000000 </v>
   <v>      -0.09523810       0.14285714       0.00000000 </v>
   <v>      -0.04761905       0.14285714       0.00000000 </v>
   <v>       0.00000000       0.19047619       0.00000000 </v>
   <v>       0.04761905       0.19047619       0.00000000 </v>
   <v>       0.09523810       0.19047619       0.00000000 </v>
   <v>       0.14285714       0.19047619       0.00000000 </v>
   <v>       0.19047619       0.19047619       0.00000000 </v>
   <v>       0.23809524       0.19047619       0.00000000 </v>
   <v>       0.28571429       0.19047619       0.00000000 </v>
   <v>       0.33333333       0.19047619       0.00000000 </v>
   <v>       0.38095238       0.19047619       0.00000000 </v>
   <v>       0.42857143       0.19047619       0.00000000 </v>
   <v>       0.47619048       0.19047619       0.00000000 </v>
   <v>      -0.47619048       0.19047619       0.00000000 </v>
   <v>      -0.42857143       0.19047619       0.00000000 </v>
   <v>      -0.38095238       0.19047619       0.00000000 </v>
   <v>      -0.33333333       0.19047619       0.00000000 </v>
   <v>      -0.28571429       0.19047619       0.00000000 </v>
   <v>      -0.23809524       0.19047619       0.00000000 </v>
   <v>      -0.19047619       0.19047619       0.00000000 </v>
   <v>      -0.14285714       0.19047619       0.00000000 </v>
   <v>      -0.09523810       0.19047619       0.00000000 </v>
   <v>      -0.04761905       0.19047619       0.00000000 </v>
   <v>       0.00000000       0.23809524       0.00000000 </v>
   <v>       0.04761905       0.23809524       0.00000000 </v>
   <v>       0.09523810       0.23809524       0.00000000 </v>
   <v>       0.14285714       0.23809524       0.00000000 </v>
   <v>       0.19047619       0.23809524       0.00000000 </v>
   <v>       0.23809524       0.23809524       0.00000000 </v>
   <v>       0.28571429       0.23809524       0.00000000 </v>
   <v>       0.33333333       0.23809524       0.00000000 </v>
   <v>       0.38095238       0.23809524       0.00000000 </v>
   <v>       0.42857143       0.23809524       0.00000000 </v>
   <v>       0.47619048       0.23809524       0.00000000 </v>
   <v>      -0.47619048       0.23809524       0.00000000 </v>
   <v>      -0.42857143       0.23809524       0.00000000 </v>
   <v>      -0.38095238       0.23809524       0.00000000 </v>
   <v>      -0.33333333       0.23809524       0.00000000 </v>
   <v>      -0.28571429       0.23809524       0.00000000 </v>
   <v>      -0.23809524       0.23809524       0.00000000 </v>
   <v>      -0.19047619       0.23809524       0.00000000 </v>
   <v>      -0.14285714       0.23809524       0.00000000 </v>
   <v>      -0.09523810       0.23809524       0.00000000 </v>
   <v>      -0.04761905       0.23809524       0.00000000 </v>
   <v>       0.00000000       0.28571429       0.00000000 </v>
   <v>       0.04761905       0.28571429       0.00000000 </v>
   <v>       0.09523810       0.28571429       0.00000000 </v>
   <v>       0.14285714       0.28571429       0.00000000 </v>
   <v>       0.19047619       0.28571429       0.00000000 </v>
   <v>       0.23809524       0.28571429       0.00000000 </v>
   <v>       0.28571429       0.28571429       0.00000000 </v>
   <v>       0.33333333       0.28571429       0.00000000 </v>
   <v>       0.38095238       0.28571429       0.00000000 </v>
   <v>       0.42857143       0.28571429       0.00000000 </v>
   <v>       0.47619048       0.28571429       0.00000000 </v>
   <v>      -0.47619048       0.28571429       0.00000000 </v>
   <v>      -0.42857143       0.28571429       0.00000000 </v>
   <v>      -0.38095238       0.28571429       0.00000000 </v>
   <v>      -0.33333333       0.28571429       0.00000000 </v>
   <v>      -0.28571429       0.28571429       0.00000000 </v>
   <v>      -0.23809524       0.28571429       0.00000000 </v>
   <v>      -0.19047619       0.28571429       0.00000000 </v>
   <v>      -0.14285714       0.28571429       0.00000000 </v>
   <v>      -0.09523810       0.28571429       0.00000000 </v>
   <v>      -0.04761905       0.28571429       0.00000000 </v>
   <v>       0.00000000       0.33333333       0.00000000 </v>
   <v>       0.04761905       0.33333333       0.00000000 </v>
   <v>       0.09523810       0.33333333       0.00000000 </v>
   <v>       0.14285714       0.33333333       0.00000000 </v>
   <v>       0.19047619       0.33333333       0.00000000 </v>
   <v>       0.23809524       0.33333333       0.00000000 </v>
   <v>       0.28571429       0.33333333       0.00000000 </v>
   <v>       0.33333333       0.33333333       0.00000000 </v>
   <v>       0.38095238       0.33333333       0.00000000 </v>
   <v>       0.42857143       0.33333333       0.00000000 </v>
   <v>       0.47619048       0.33333333       0.00000000 </v>
   <v>      -0.47619048       0.33333333       0.00000000 </v>
   <v>      -0.42857143       0.33333333       0.00000000 </v>
   <v>      -0.38095238       0.33333333       0.00000000 </v>
   <v>      -0.33333333       0.33333333       0.00000000 </v>
   <v>      -0.28571429       0.33333333       0.00000000 </v>
   <v>      -0.23809524       0.33333333       0.00000000 </v>
   <v>      -0.19047619       0.33333333       0.00000000 </v>
   <v>      -0.14285714       0.33333333       0.00000000 </v>
   <v>      -0.09523810       0.33333333       0.00000000 </v>
   <v>      -0.04761905       0.33333333       0.00000000 </v>
   <v>       0.00000000       0.38095238       0.00000000 </v>
   <v>       0.04761905       0.38095238       0.00000000 </v>
   <v>       0.09523810       0.38095238       0.00000000 </v>
   <v>       0.14285714       0.38095238       0.00000000 </v>
   <v>       0.19047619       0.38095238       0.00000000 </v>
   <v>       0.23809524       0.38095238       0.00000000 </v>
   <v>       0.28571429       0.38095238       0.00000000 </v>
   <v>       0.33333333       0.38095238       0.00000000 </v>
   <v>       0.38095238       0.38095238       0.00000000 </v>
   <v>       0.42857143       0.38095238       0.00000000 </v>
   <v>       0.47619048       0.38095238       0.00000000 </v>
   <v>      -0.47619048       0.38095238       0.00000000 </v>
   <v>      -0.42857143       0.38095238       0.00000000 </v>
   <v>      -0.38095238       0.38095238       0.00000000 </v>
   <v>      -0.33333333       0.38095238       0.00000000 </v>
   <v>      -0.28571429       0.38095238       0.00000000 </v>
   <v>      -0.23809524       0.38095238       0.00000000 </v>
   <v>      -0.19047619       0.38095238       0.00000000 </v>
   <v>      -0.14285714       0.38095238       0.00000000 </v>
   <v>      -0.09523810       0.38095238       0.00000000 </v>
   <v>      -0.04761905       0.38095238       0.00000000 </v>
   <v>       0.00000000       0.42857143       0.00000000 </v>
   <v>       0.04761905       0.42857143       0.00000000 </v>
   <v>       0.09523810       0.42857143       0.00000000 </v>
   <v>       0.14285714       0.42857143       0.00000000 </v>
   <v>       0.19047619       0.42857143       0.00000000 </v>
   <v>       0.23809524       0.42857143       0.00000000 </v>
   <v>       0.28571429       0.42857143       0.00000000 </v>
   <v>       0.33333333       0.42857143       0.00000000 </v>
   <v>       0.38095238       0.42857143       0.00000000 </v>
   <v>       0.42857143       0.42857143       0.00000000 </v>
   <v>       0.47619048       0.42857143       0.00000000 </v>
   <v>      -0.47619048       0.42857143       0.00000000 </v>
   <v>      -0.42857143       0.42857143       0.00000000 </v>
   <v>      -0.38095238       0.42857143       0.00000000 </v>
   <v>      -0.33333333       0.42857143       0.00000000 </v>
   <v>      -0.28571429       0.42857143       0.00000000 </v>
   <v>      -0.23809524       0.42857143       0.00000000 </v>
   <v>      -0.19047619       0.42857143       0.00000000 </v>
   <v>      -0.14285714       0.42857143       0.00000000 </v>
   <v>      -0.09523810       0.42857143       0.00000000 </v>
   <v>      -0.04761905       0.42857143       0.00000000 </v>
   <v>       0.00000000       0.47619048       0.00000000 </v>
   <v>       0.04761905       0.47619048       0.00000000 </v>
   <v>       0.09523810       0.47619048       0.00000000 </v>
   <v>       0.14285714       0.47619048       0.00000000 </v>
   <v>       0.19047619       0.47619048       0.00000000 </v>
   <v>       0.23809524       0.47619048       0.00000000 </v>
   <v>       0.28571429       0.47619048       0.00000000 </v>
   <v>       0.33333333       0.47619048       0.00000000 </v>
   <v>       0.38095238       0.47619048       0.00000000 </v>
   <v>       0.42857143       0.47619048       0.00000000 </v>
   <v>       0.47619048       0.47619048       0.00000000 </v>
   <v>      -0.47619048       0.47619048       0.00000000 </v>
   <v>      -0.42857143       0.47619048       0.00000000 </v>
   <v>      -0.38095238       0.47619048       0.00000000 </v>
   <v>      -0.33333333       0.47619048       0.00000000 </v>
   <v>      -0.28571429       0.47619048       0.00000000 </v>
   <v>      -0.23809524       0.47619048       0.00000000 </v>
   <v>      -0.19047619       0.47619048       0.00000000 </v>
   <v>      -0.14285714       0.47619048       0.00000000 </v>
   <v>      -0.09523810       0.47619048       0.00000000 </v>
   <v>      -0.04761905       0.47619048       0.00000000 </v>
  </varray>
  <varray name="weights" >
   <v>       0.00226757 </v>
   <v>       0.00453515 </v>
   <v>       0.00453515 </v>
   <v>       0.00453515 </v>
   <v>       0.00453515 </v>
   <v>       0.00453515 </v>
   <v>       0.00453515 </v>
   <v>       0.00453515 </v>
   <v>       0.00453515 </v>
   <v>       0.00453515 </v>
   <v>       0.00453515 </v>
   <v>       0.00453515 </v>
   <v>       0.00453515 </v>
   <v>       0.00453515 </v>
   <v>       0.00453515 </v>
   <v>       0.00453515 </v>
   <v>       0.00453515 </v>
   <v>       0.00453515 </v>
   <v>       0.00453515 </v>
   <v>       0.00453515 </v>
   <v>       0.00453515 </v>
   <v>       0.00453515 </v>
   <v>       0.00453515 </v>
   <v>       0.00453515 </v>
   <v>       0.00453515 </v>
   <v>       0.00453515 </v>
   <v>       0.00453515 </v>
   <v>       0.00453515 </v>
   <v>       0.00453515 </v>
   <v>       0.00453515 </v>
   <v>       0.00453515 </v>
   <v>       0.00453515 </v>
   <v>       0.00453515 </v>
   <v>       0.00453515 </v>
   <v>       0.00453515 </v>
   <v>       0.00453515 </v>
   <v>       0.00453515 </v>
   <v>       0.00453515 </v>
   <v>       0.00453515 </v>
   <v>       0.00453515 </v>
   <v>       0.00453515 </v>
   <v>       0.00453515 </v>
   <v>       0.00453515 </v>
   <v>       0.00453515 </v>
   <v>       0.00453515 </v>
   <v>       0.00453515 </v>
   <v>       0.00453515 </v>
   <v>       0.00453515 </v>
   <v>       0.00453515 </v>
   <v>       0.00453515 </v>
   <v>       0.00453515 </v>
   <v>       0.00453515 </v>
   <v>       0.00453515 </v>
   <v>       0.00453515 </v>
   <v>       0.00453515 </v>
   <v>       0.00453515 </v>
   <v>       0.00453515 </v>
   <v>       0.00453515 </v>
   <v>       0.00453515 </v>
   <v>       0.00453515 </v>
   <v>       0.00453515 </v>
   <v>       0.00453515 </v>
   <v>       0.00453515 </v>
   <v>       0.00453515 </v>
   <v>       0.00453515 </v>
   <v>       0.00453515 </v>
   <v>       0.00453515 </v>
   <v>       0.00453515 </v>
   <v>       0.00453515 </v>
   <v>       0.00453515 </v>
   <v>       0.00453515 </v>
   <v>       0.00453515 </v>
   <v>       0.00453515 </v>
   <v>       0.00453515 </v>
   <v>       0.00453515 </v>
   <v>       0.00453515 </v>
   <v>       0.00453515 </v>
   <v>       0.00453515 </v>
   <v>       0.00453515 </v>
   <v>       0.00453515 </v>
   <v>       0.00453515 </v>
   <v>       0.00453515 </v>
   <v>       0.00453515 </v>
   <v>       0.00453515 </v>
   <v>       0.00453515 </v>
   <v>       0.00453515 </v>
   <v>       0.00453515 </v>
   <v>       0.00453515 </v>
   <v>       0.00453515 </v>
   <v>       0.00453515 </v>
   <v>       0.00453515 </v>
   <v>       0.00453515 </v>
   <v>       0.00453515 </v>
   <v>       0.00453515 </v>
   <v>       0.00453515 </v>
   <v>       0.00453515 </v>
   <v>       0.00453515 </v>
   <v>       0.00453515 </v>
   <v>       0.00453515 </v>
   <v>       0.00453515 </v>
   <v>       0.00453515 </v>
   <v>       0.00453515 </v>
   <v>       0.00453515 </v>
   <v>       0.00453515 </v>
   <v>       0.00453515 </v>
   <v>       0.00453515 </v>
   <v>       0.00453515 </v>
   <v>       0.00453515 </v>
   <v>       0.00453515 </v>
   <v>       0.00453515 </v>
   <v>       0.00453515 </v>
   <v>       0.00453515 </v>
   <v>       0.00453515 </v>
   <v>       0.00453515 </v>
   <v>       0.00453515 </v>
   <v>       0.00453515 </v>
   <v>       0.00453515 </v>
   <v>       0.00453515 </v>
   <v>       0.00453515 </v>
   <v>       0.00453515 </v>
   <v>       0.00453515 </v>
   <v>       0.00453515 </v>
   <v>       0.00453515 </v>
   <v>       0.00453515 </v>
   <v>       0.00453515 </v>
   <v>       0.00453515 </v>
   <v>       0.00453515 </v>
   <v>       0.00453515 </v>
   <v>       0.00453515 </v>
   <v>       0.00453515 </v>
   <v>       0.00453515 </v>
   <v>       0.00453515 </v>
   <v>       0.00453515 </v>
   <v>       0.00453515 </v>
   <v>       0.00453515 </v>
   <v>       0.00453515 </v>
   <v>       0.00453515 </v>
   <v>       0.00453515 </v>
   <v>       0.00453515 </v>
   <v>       0.00453515 </v>
   <v>       0.00453515 </v>
   <v>       0.00453515 </v>
   <v>       0.00453515 </v>
   <v>       0.00453515 </v>
   <v>       0.00453515 </v>
   <v>       0.00453515 </v>
   <v>       0.00453515 </v>
   <v>       0.00453515 </v>
   <v>       0.00453515 </v>
   <v>       0.00453515 </v>
   <v>       0.00453515 </v>
   <v>       0.00453515 </v>
   <v>       0.00453515 </v>
   <v>       0.00453515 </v>
   <v>       0.00453515 </v>
   <v>       0.00453515 </v>
   <v>       0.00453515 </v>
   <v>       0.00453515 </v>
   <v>       0.00453515 </v>
   <v>       0.00453515 </v>
   <v>       0.00453515 </v>
   <v>       0.00453515 </v>
   <v>       0.00453515 </v>
   <v>       0.00453515 </v>
   <v>       0.00453515 </v>
   <v>       0.00453515 </v>
   <v>       0.00453515 </v>
   <v>       0.00453515 </v>
   <v>       0.00453515 </v>
   <v>       0.00453515 </v>
   <v>       0.00453515 </v>
   <v>       0.00453515 </v>
   <v>       0.00453515 </v>
   <v>       0.00453515 </v>
   <v>       0.00453515 </v>
   <v>       0.00453515 </v>
   <v>       0.00453515 </v>
   <v>       0.00453515 </v>
   <v>       0.00453515 </v>
   <v>       0.00453515 </v>
   <v>       0.00453515 </v>
   <v>       0.00453515 </v>
   <v>       0.00453515 </v>
   <v>       0.00453515 </v>
   <v>       0.00453515 </v>
   <v>       0.00453515 </v>
   <v>       0.00453515 </v>
   <v>       0.00453515 </v>
   <v>       0.00453515 </v>
   <v>       0.00453515 </v>
   <v>       0.00453515 </v>
   <v>       0.00453515 </v>
   <v>       0.00453515 </v>
   <v>       0.00453515 </v>
   <v>       0.00453515 </v>
   <v>       0.00453515 </v>
   <v>       0.00453515 </v>
   <v>       0.00453515 </v>
   <v>       0.00453515 </v>
   <v>       0.00453515 </v>
   <v>       0.00453515 </v>
   <v>       0.00453515 </v>
   <v>       0.00453515 </v>
   <v>       0.00453515 </v>
   <v>       0.00453515 </v>
   <v>       0.00453515 </v>
   <v>       0.00453515 </v>
   <v>       0.00453515 </v>
   <v>       0.00453515 </v>
   <v>       0.00453515 </v>
   <v>       0.00453515 </v>
   <v>       0.00453515 </v>
   <v>       0.00453515 </v>
   <v>       0.00453515 </v>
   <v>       0.00453515 </v>
   <v>       0.00453515 </v>
   <v>       0.00453515 </v>
   <v>       0.00453515 </v>
   <v>       0.00453515 </v>
   <v>       0.00453515 </v>
   <v>       0.00453515 </v>
  </varray>
 </kpoints>
 <parameters>
  <separator name="general" >
   <i type="string" name="SYSTEM">W-1, se-2</i>
   <i type="logical" name="LCOMPAT"> F  </i>
  </separator>
  <separator name="electronic" >
   <i type="string" name="PREC">accura</i>
   <i name="ENMAX">    800.00000000</i>
   <i name="ENAUG">    446.84200000</i>
   <i name="EDIFF">      0.00000001</i>
   <i type="int" name="IALGO">    38</i>
   <i type="int" name="IWAVPR">    10</i>
   <i type="int" name="NBANDS">   102</i>
   <i name="NELECT">    162.00000000</i>
   <i type="int" name="TURBO">     0</i>
   <i type="int" name="IRESTART">     0</i>
   <i type="int" name="NREBOOT">     0</i>
   <i type="int" name="NMIN">     0</i>
   <i name="EREF">      0.00000000</i>
   <separator name="electronic smearing" >
    <i type="int" name="ISMEAR">     0</i>
    <i name="SIGMA">      0.01000000</i>
    <i name="KSPACING">      0.50000000</i>
    <i type="logical" name="KGAMMA"> T  </i>
   </separator>
   <separator name="electronic projectors" >
    <i type="logical" name="LREAL"> F  </i>
    <v name="ROPT">      0.00000000      0.00000000</v>
    <i type="int" name="LMAXPAW">  -100</i>
    <i type="int" name="LMAXMIX">     2</i>
    <i type="logical" name="NLSPLINE"> F  </i>
   </separator>
   <separator name="electronic startup" >
    <i type="int" name="ISTART">     0</i>
    <i type="int" name="ICHARG">     2</i>
    <i type="int" name="INIWAV">     1</i>
   </separator>
   <separator name="electronic spin" >
    <i type="int" name="ISPIN">     1</i>
    <i type="logical" name="LNONCOLLINEAR"> F  </i>
    <v name="MAGMOM">      1.00000000      1.00000000      1.00000000      1.00000000      1.00000000      1.00000000      1.00000000      1.00000000      1.00000000      1.00000000      1.00000000      1.00000000      1.00000000      1.00000000      1.00000000      1.00000000      1.00000000      1.00000000      1.00000000      1.00000000
      1.00000000      1.00000000      1.00000000      1.00000000      1.00000000      1.00000000      1.00000000</v>
    <i name="NUPDOWN">     -1.00000000</i>
    <i type="logical" name="LSORBIT"> F  </i>
    <v name="SAXIS">      0.00000000      0.00000000      1.00000000</v>
    <i type="logical" name="LSPIRAL"> F  </i>
    <v name="QSPIRAL">      0.00000000      0.00000000      0.00000000</v>
    <i type="logical" name="LZEROZ"> F  </i>
   </separator>
   <separator name="electronic exchange-correlation" >
    <i type="logical" name="LASPH"> F  </i>
    <i type="logical" name="LMETAGGA"> F  </i>
   </separator>
   <separator name="electronic convergence" >
    <i type="int" name="NELM">    60</i>
    <i type="int" name="NELMDL">    -5</i>
    <i type="int" name="NELMIN">     5</i>
    <i name="ENINI">    800.00000000</i>
    <separator name="electronic convergence detail" >
     <i type="logical" name="LDIAG"> T  </i>
     <i type="logical" name="LSUBROT"> F  </i>
     <i name="WEIMIN">      0.00000000</i>
     <i name="EBREAK">      0.00000000</i>
     <i name="DEPER">      0.30000000</i>
     <i type="int" name="NRMM">     4</i>
     <i name="TIME">      0.40000000</i>
    </separator>
   </separator>
   <separator name="electronic mixer" >
    <i name="AMIX">      0.40000000</i>
    <i name="BMIX">      1.00000000</i>
    <i name="AMIN">      0.01000000</i>
    <i name="AMIX_MAG">      1.60000000</i>
    <i name="BMIX_MAG">      1.00000000</i>
    <separator name="electronic mixer details" >
     <i type="int" name="IMIX">     4</i>
     <i type="logical" name="MIXFIRST"> F  </i>
     <i type="int" name="MAXMIX">   -45</i>
     <i name="WC">    100.00000000</i>
     <i type="int" name="INIMIX">     1</i>
     <i type="int" name="MIXPRE">     1</i>
     <i type="int" name="MREMOVE">     5</i>
    </separator>
   </separator>
   <separator name="electronic dipolcorrection" >
    <i type="logical" name="LDIPOL"> F  </i>
    <i type="logical" name="LMONO"> F  </i>
    <i type="int" name="IDIPOL">     0</i>
    <i name="EPSILON">      1.00000000</i>
    <v name="DIPOL">   -100.00000000   -100.00000000   -100.00000000</v>
    <i name="EFIELD">      0.00000000</i>
   </separator>
  </separator>
  <separator name="grids" >
   <i type="int" name="NGX">    96</i>
   <i type="int" name="NGY">    96</i>
   <i type="int" name="NGZ">   192</i>
   <i type="int" name="NGXF">   192</i>
   <i type="int" name="NGYF">   192</i>
   <i type="int" name="NGZF">   384</i>
   <i type="logical" name="ADDGRID"> T  </i>
  </separator>
  <separator name="ionic" >
   <i type="int" name="NSW">     0</i>
   <i type="int" name="IBRION">    -1</i>
   <i type="int" name="MDALGO">     0</i>
   <i type="int" name="ISIF">     2</i>
   <i name="PSTRESS">      0.00000000</i>
   <i name="EDIFFG">     -0.00000001</i>
   <i type="int" name="NFREE">     0</i>
   <i name="POTIM">      0.50000000</i>
   <i name="SMASS">     -3.00000000</i>
   <i name="SCALEE">      1.00000000</i>
  </separator>
  <separator name="ionic md" >
   <i name="TEBEG">      0.00010000</i>
   <i name="TEEND">      0.00010000</i>
   <i type="int" name="NBLOCK">     1</i>
   <i type="int" name="KBLOCK">     1</i>
   <i type="int" name="NPACO">   256</i>
   <i name="APACO">     16.00000000</i>
  </separator>
  <separator name="symmetry" >
   <i type="int" name="ISYM">     2</i>
   <i name="SYMPREC">      0.00010000</i>
  </separator>
  <separator name="dos" >
   <i type="int" name="LORBIT">     0</i>
   <v name="RWIGS">     -1.00000000     -1.00000000</v>
   <i type="int" name="NEDOS">   301</i>
   <i name="EMIN">     10.00000000</i>
   <i name="EMAX">    -10.00000000</i>
   <i name="EFERMI">      0.00000000</i>
  </separator>
  <separator name="writing" >
   <i type="int" name="NWRITE">     2</i>
   <i type="logical" name="LWAVE"> F  </i>
   <i type="logical" name="LDOWNSAMPLE"> F  </i>
   <i type="logical" name="LCHARG"> F  </i>
   <i type="logical" name="LPARD"> F  </i>
   <i type="logical" name="LVTOT"> F  </i>
   <i type="logical" name="LVHAR"> F  </i>
   <i type="logical" name="LELF"> F  </i>
   <i type="logical" name="LOPTICS"> F  </i>
   <v name="STM">      0.00000000      0.00000000      0.00000000      0.00000000      0.00000000      0.00000000      0.00000000</v>
  </separator>
  <separator name="performance" >
   <i type="int" name="NPAR">     6</i>
   <i type="int" name="NSIM">     4</i>
   <i type="int" name="NBLK">    -1</i>
   <i type="logical" name="LPLANE"> T  </i>
   <i type="logical" name="LSCALAPACK"> T  </i>
   <i type="logical" name="LSCAAWARE"> F  </i>
   <i type="logical" name="LSCALU"> F  </i>
   <i type="logical" name="LASYNC"> F  </i>
   <i type="logical" name="LORBITALREAL"> F  </i>
  </separator>
  <separator name="miscellaneous" >
   <i type="int" name="IDIOT">     3</i>
   <i type="int" name="ISPECIAL">     0</i>
   <i type="logical" name="LMUSIC"> F  </i>
   <v name="POMASS">    183.85000000     78.96000000</v>
   <v name="DARWINR">      0.00000000      0.00000000</v>
   <v name="DARWINV">      1.00000000      1.00000000</v>
   <i type="logical" name="LCORR"> T  </i>
  </separator>
  <i type="logical" name="GGA_COMPAT"> T  </i>
  <i type="logical" name="LBERRY"> F  </i>
  <i type="int" name="ICORELEVEL">     0</i>
  <i type="logical" name="LDAU"> F  </i>
  <i type="int" name="I_CONSTRAINED_M">     0</i>
  <separator name="electronic exchange-correlation" >
   <i type="string" name="GGA">--</i>
   <i type="int" name="VOSKOWN">     0</i>
   <i type="logical" name="LHFCALC"> F  </i>
   <i type="string" name="PRECFOCK"></i>
   <i type="logical" name="LSYMGRAD"> F  </i>
   <i type="logical" name="LHFONE"> F  </i>
   <i type="logical" name="LRHFCALC"> F  </i>
   <i type="logical" name="LTHOMAS"> F  </i>
   <i type="logical" name="LMODELHF"> F  </i>
   <i name="ENCUT4O">     -1.00000000</i>
   <i type="int" name="EXXOEP">     0</i>
   <i type="int" name="FOURORBIT">     0</i>
   <i name="AEXX">      0.00000000</i>
   <i name="HFALPHA">      0.00000000</i>
   <i name="MCALPHA">      0.00000000</i>
   <i name="ALDAX">      1.00000000</i>
   <i name="AGGAX">      1.00000000</i>
   <i name="ALDAC">      1.00000000</i>
   <i name="AGGAC">      1.00000000</i>
   <i type="int" name="NKREDX">     1</i>
   <i type="int" name="NKREDY">     1</i>
   <i type="int" name="NKREDZ">     1</i>
   <i type="logical" name="SHIFTRED"> F  </i>
   <i type="logical" name="ODDONLY"> F  </i>
   <i type="logical" name="EVENONLY"> F  </i>
   <i type="int" name="LMAXFOCK">     0</i>
   <i type="int" name="NMAXFOCKAE">     0</i>
   <i type="logical" name="LFOCKAEDFT"> F  </i>
   <i name="HFSCREEN">      0.00000000</i>
   <i name="HFSCREENC">      0.00000000</i>
   <i type="int" name="NBANDSGWLOW">     0</i>
  </separator>
  <separator name="vdW DFT" >
   <i type="logical" name="LUSE_VDW"> F  </i>
   <i name="Zab_VDW">     -0.84910000</i>
   <i name="PARAM1">      0.12340000</i>
   <i name="PARAM2">      1.00000000</i>
   <i name="PARAM3">      0.00000000</i>
  </separator>
  <separator name="model GW" >
   <i type="int" name="MODEL_GW">     0</i>
   <i name="MODEL_EPS0">     37.28982144</i>
   <i name="MODEL_ALPHA">      1.00000000</i>
  </separator>
  <separator name="linear response parameters" >
   <i type="logical" name="LEPSILON"> F  </i>
   <i type="logical" name="LRPA"> F  </i>
   <i type="logical" name="LNABLA"> F  </i>
   <i type="logical" name="LVEL"> F  </i>
   <i type="int" name="KINTER">     0</i>
   <i name="CSHIFT">      0.10000000</i>
   <i name="OMEGAMAX">     -1.00000000</i>
   <i name="DEG_THRESHOLD">      0.00200000</i>
   <i name="RTIME">     -0.10000000</i>
   <i name="WPLASMAI">      0.00000000</i>
   <v name="DFIELD">      0.00000000      0.00000000      0.00000000</v>
   <v name="WPLASMA">      0.00000000      0.00000000      0.00000000      0.00000000      0.00000000      0.00000000      0.00000000      0.00000000      0.00000000</v>
  </separator>
  <separator name="orbital magnetization" >
   <i type="logical" name="NUCIND"> F  </i>
   <v name="MAGPOS">      0.00000000      0.00000000      0.00000000</v>
   <i type="logical" name="LNICSALL"> T  </i>
   <i type="logical" name="ORBITALMAG"> F  </i>
   <i type="logical" name="LMAGBLOCH"> F  </i>
   <i type="logical" name="LCHIMAG"> F  </i>
   <i type="logical" name="LGAUGE"> T  </i>
   <i type="int" name="MAGATOM">     0</i>
   <v name="MAGDIPOL">      0.00000000      0.00000000      0.00000000</v>
   <v name="AVECCONST">      0.00000000      0.00000000      0.00000000</v>
  </separator>
  <separator name="response functions" >
   <i type="logical" name="LADDER"> F  </i>
   <i type="logical" name="LRPAFORCE"> F  </i>
   <i type="logical" name="LFXC"> F  </i>
   <i type="logical" name="LHARTREE"> T  </i>
   <i type="int" name="IBSE">     0</i>
   <v type="int" name="KPOINT">    -1     0     0     0</v>
   <i type="logical" name="LTCTE"> F  </i>
   <i type="logical" name="LTETE"> F  </i>
   <i type="logical" name="LTRIPLET"> F  </i>
   <i type="logical" name="LFXCEPS"> F  </i>
   <i type="logical" name="LFXHEG"> F  </i>
   <i type="int" name="NATURALO">     2</i>
   <i type="logical" name="L2ORDER"> F  </i>
   <i type="logical" name="LMP2LT"> F  </i>
   <i type="logical" name="LUSEW"> F  </i>
   <i name="ENCUTGW">     -2.00000000</i>
   <i name="ENCUTGWSOFT">     -2.00000000</i>
   <i name="ENCUTLF">     -1.00000000</i>
   <i type="int" name="LMAXMP2">    -1</i>
   <i name="SCISSOR">      0.00000000</i>
   <i type="int" name="NOMEGA">     0</i>
   <i type="int" name="NOMEGAR">     0</i>
   <i type="int" name="NBANDSGW">    -1</i>
   <i type="int" name="NBANDSO">    -1</i>
   <i type="int" name="NBANDSV">    -1</i>
   <i type="int" name="NELM">     1</i>
   <i type="int" name="NELMHF">     1</i>
   <i type="int" name="DIM">     3</i>
   <i type="int" name="ANTIRES">     0</i>
   <i name="OMEGAMAX">    -30.00000000</i>
   <i name="OMEGAMIN">    -30.00000000</i>
   <i name="OMEGATL">   -200.00000000</i>
   <i type="int" name="OMEGAGRID">   140</i>
   <i name="CSHIFT">     -0.10000000</i>
   <i type="logical" name="SELFENERGY"> F  </i>
   <i type="logical" name="LSPECTRAL"> F  </i>
   <i type="logical" name="LSPECTRALGW"> F  </i>
   <i type="logical" name="LSINGLES"> F  </i>
   <i type="logical" name="LFERMIGW"> F  </i>
   <i type="logical" name="ODDONLYGW"> F  </i>
   <i type="logical" name="EVENONLYGW"> F  </i>
   <i type="int" name="NKREDLFX">     1</i>
   <i type="int" name="NKREDLFY">     1</i>
   <i type="int" name="NKREDLFZ">     1</i>
   <i type="int" name="MAXMEM">  2800</i>
   <i type="int" name="TELESCOPE">     0</i>
   <i type="int" name="TAUPAR">     1</i>
   <i type="int" name="OMEGAPAR">    -1</i>
   <i name="LAMBDA">      1.00000000</i>
  </separator>
  <separator name="External order field" >
   <i name="OFIELD_KAPPA">      0.00000000</i>
   <v name="OFIELD_K">      0.00000000      0.00000000      0.00000000</v>
   <i name="OFIELD_Q6_NEAR">      0.00000000</i>
   <i name="OFIELD_Q6_FAR">      0.00000000</i>
   <i name="OFIELD_A">      0.00000000</i>
  </separator>
 </parameters>
 <atominfo>
  <atoms>      27 </atoms>
  <types>       2 </types>
  <array name="atoms" >
   <dimension dim="1">ion</dimension>
   <field type="string">element</field>
   <field type="int">atomtype</field>
   <set>
    <rc><c>W </c><c>   1</c></rc>
    <rc><c>W </c><c>   1</c></rc>
    <rc><c>W </c><c>   1</c></rc>
    <rc><c>W </c><c>   1</c></rc>
    <rc><c>W </c><c>   1</c></rc>
    <rc><c>W </c><c>   1</c></rc>
    <rc><c>W </c><c>   1</c></rc>
    <rc><c>W </c><c>   1</c></rc>
    <rc><c>W </c><c>   1</c></rc>
    <rc><c>Se</c><c>   2</c></rc>
    <rc><c>Se</c><c>   2</c></rc>
    <rc><c>Se</c><c>   2</c></rc>
    <rc><c>Se</c><c>   2</c></rc>
    <rc><c>Se</c><c>   2</c></rc>
    <rc><c>Se</c><c>   2</c></rc>
    <rc><c>Se</c><c>   2</c></rc>
    <rc><c>Se</c><c>   2</c></rc>
    <rc><c>Se</c><c>   2</c></rc>
    <rc><c>Se</c><c>   2</c></rc>
    <rc><c>Se</c><c>   2</c></rc>
    <rc><c>Se</c><c>   2</c></rc>
    <rc><c>Se</c><c>   2</c></rc>
    <rc><c>Se</c><c>   2</c></rc>
    <rc><c>Se</c><c>   2</c></rc>
    <rc><c>Se</c><c>   2</c></rc>
    <rc><c>Se</c><c>   2</c></rc>
    <rc><c>Se</c><c>   2</c></rc>
   </set>
  </array>
  <array name="atomtypes" >
   <dimension dim="1">type</dimension>
   <field type="int">atomspertype</field>
   <field type="string">element</field>
   <field>mass</field>
   <field>valence</field>
   <field type="string">pseudopotential</field>
   <set>
    <rc><c>   9</c><c>W </c><c>    183.85000000</c><c>      6.00000000</c><c> PAW_PBE W 08Apr2002                    </c></rc>
    <rc><c>  18</c><c>Se</c><c>     78.96000000</c><c>      6.00000000</c><c> PAW_PBE Se 06Sep2000                   </c></rc>
   </set>
  </array>
 </atominfo>
 <structure name="initialpos" >
  <crystal>
   <varray name="basis" >
    <v>       9.84600000       0.00000000       0.00000000 </v>
    <v>       4.92300000       8.52144000       0.00000000 </v>
    <v>       0.00000000       0.00000000      20.00000000 </v>
   </varray>
   <i name="volume">   1678.04196480 </i>
   <varray name="rec_basis" >
    <v>       0.10156409      -0.05867553       0.00000000 </v>
    <v>       0.00000000       0.11735106       0.00000000 </v>
    <v>       0.00000000       0.00000000       0.05000000 </v>
   </varray>
  </crystal>
  <varray name="positions" >
   <v>       0.33330000       0.00006700       0.00000000 </v>
   <v>       0.66663300       0.00006700       0.00000000 </v>
   <v>       0.99996700       0.00006700       0.00000000 </v>
   <v>       0.33330000       0.33340000       0.00000000 </v>
   <v>       0.66663300       0.33340000       0.00000000 </v>
   <v>       0.99996700       0.33340000       0.00000000 </v>
   <v>       0.33330000       0.66673300       0.00000000 </v>
   <v>       0.66663300       0.66673300       0.00000000 </v>
   <v>       0.99996700       0.66673300       0.00000000 </v>
   <v>       0.11109200       0.11216500       0.91545900 </v>
   <v>       0.44442600       0.11114900       0.91545900 </v>
   <v>       0.77775900       0.11114900       0.91545900 </v>
   <v>       0.11109200       0.44448200       0.91545900 </v>
   <v>       0.44442600       0.44448200       0.91545900 </v>
   <v>       0.77775900       0.44448200       0.91545900 </v>
   <v>       0.11109200       0.77781500       0.91545900 </v>
   <v>       0.44442600       0.77781500       0.91545900 </v>
   <v>       0.77775900       0.77781500       0.91545900 </v>
   <v>       0.11109200       0.11114900       0.08454100 </v>
   <v>       0.44442600       0.11114900       0.08454100 </v>
   <v>       0.77775900       0.11114900       0.08454100 </v>
   <v>       0.11109200       0.44448200       0.08454100 </v>
   <v>       0.44442600       0.44448200       0.08454100 </v>
   <v>       0.77775900       0.44448200       0.08454100 </v>
   <v>       0.11109200       0.77781500       0.08454100 </v>
   <v>       0.44442600       0.77781500       0.08454100 </v>
   <v>       0.77775900       0.77781500       0.08454100 </v>
  </varray>
 </structure>
 <calculation>
  <scstep>
   <time name="dav">  254.81  255.43</time>
   <time name="total">  255.21  255.84</time>
   <energy>
    <i name="alphaZ">    206.49012646 </i>
    <i name="ewald">  19424.42298394 </i>
    <i name="hartreedc"> -25374.66905316 </i>
    <i name="XCdc">   -439.16810668 </i>
    <i name="pawpsdc">   3546.74135395 </i>
    <i name="pawaedc">  -2766.52518036 </i>
    <i name="eentropy">     -0.00056408 </i>
    <i name="bandstr">    350.89920262 </i>
    <i name="atom">   6466.84281893 </i>
    <i name="e_fr_energy">   1415.03358162 </i>
    <i name="e_wo_entrp">   1415.03414569 </i>
    <i name="e_0_energy">   1415.03386365 </i>
   </energy>
  </scstep>
  <scstep>
   <time name="dav">  373.97  374.90</time>
   <time name="total">  373.97  374.90</time>
   <energy>
    <i name="e_fr_energy">     19.69234530 </i>
    <i name="e_wo_entrp">     19.69234530 </i>
    <i name="e_0_energy">     19.69234530 </i>
   </energy>
  </scstep>
  <scstep>
   <time name="dav">  289.09  289.81</time>
   <time name="total">  289.09  289.81</time>
   <energy>
    <i name="e_fr_energy">   -195.06775430 </i>
    <i name="e_wo_entrp">   -195.06775430 </i>
    <i name="e_0_energy">   -195.06775430 </i>
   </energy>
  </scstep>
  <scstep>
   <time name="dav">  318.43  319.22</time>
   <time name="total">  318.43  319.23</time>
   <energy>
    <i name="e_fr_energy">   -203.86987394 </i>
    <i name="e_wo_entrp">   -203.86987394 </i>
    <i name="e_0_energy">   -203.86987394 </i>
   </energy>
  </scstep>
  <scstep>
   <time name="dav">  355.55  356.43</time>
   <time name="total">  367.35  368.26</time>
   <energy>
    <i name="e_fr_energy">   -204.16848221 </i>
    <i name="e_wo_entrp">   -204.16848221 </i>
    <i name="e_0_energy">   -204.16848221 </i>
   </energy>
  </scstep>
  <scstep>
   <time name="dav">  338.73  339.55</time>
   <time name="total">  350.88  351.75</time>
   <energy>
    <i name="e_fr_energy">   -196.81990557 </i>
    <i name="e_wo_entrp">   -196.81990557 </i>
    <i name="e_0_energy">   -196.81990557 </i>
   </energy>
  </scstep>
  <scstep>
   <time name="dav">  327.74  328.54</time>
   <time name="total">  339.89  340.74</time>
   <energy>
    <i name="e_fr_energy">   -195.22086831 </i>
    <i name="e_wo_entrp">   -195.22086831 </i>
    <i name="e_0_energy">   -195.22086831 </i>
   </energy>
  </scstep>
  <scstep>
   <time name="dav">  290.51  291.21</time>
   <time name="total">  302.65  303.40</time>
   <energy>
    <i name="e_fr_energy">   -194.74685152 </i>
    <i name="e_wo_entrp">   -194.74685152 </i>
    <i name="e_0_energy">   -194.74685152 </i>
   </energy>
  </scstep>
  <scstep>
   <time name="dav">  340.85  341.68</time>
   <time name="total">  353.00  353.87</time>
   <energy>
    <i name="e_fr_energy">   -194.73087566 </i>
    <i name="e_wo_entrp">   -194.73087566 </i>
    <i name="e_0_energy">   -194.73087566 </i>
   </energy>
  </scstep>
  <scstep>
   <time name="dav">  335.04  335.85</time>
   <time name="total">  347.17  348.03</time>
   <energy>
    <i name="e_fr_energy">   -194.70299457 </i>
    <i name="e_wo_entrp">   -194.70299457 </i>
    <i name="e_0_energy">   -194.70299457 </i>
   </energy>
  </scstep>
  <scstep>
   <time name="dav">  334.84  335.65</time>
   <time name="total">  346.88  347.74</time>
   <energy>
    <i name="e_fr_energy">   -194.69710950 </i>
    <i name="e_wo_entrp">   -194.69710950 </i>
    <i name="e_0_energy">   -194.69710950 </i>
   </energy>
  </scstep>
  <scstep>
   <time name="dav">  342.73  343.55</time>
   <time name="total">  354.80  355.68</time>
   <energy>
    <i name="e_fr_energy">   -194.69262640 </i>
    <i name="e_wo_entrp">   -194.69262640 </i>
    <i name="e_0_energy">   -194.69262640 </i>
   </energy>
  </scstep>
  <scstep>
   <time name="dav">  297.99  298.71</time>
   <time name="total">  310.04  310.81</time>
   <energy>
    <i name="e_fr_energy">   -194.68191860 </i>
    <i name="e_wo_entrp">   -194.68191860 </i>
    <i name="e_0_energy">   -194.68191860 </i>
   </energy>
  </scstep>
  <scstep>
   <time name="dav">  327.01  327.80</time>
   <time name="total">  339.06  339.90</time>
   <energy>
    <i name="e_fr_energy">   -194.68029679 </i>
    <i name="e_wo_entrp">   -194.68029679 </i>
    <i name="e_0_energy">   -194.68029679 </i>
   </energy>
  </scstep>
  <scstep>
   <time name="dav">  296.22  296.94</time>
   <time name="total">  308.26  309.03</time>
   <energy>
    <i name="e_fr_energy">   -194.67498994 </i>
    <i name="e_wo_entrp">   -194.67498994 </i>
    <i name="e_0_energy">   -194.67498994 </i>
   </energy>
  </scstep>
  <scstep>
   <time name="dav">  306.15  306.89</time>
   <time name="total">  318.18  318.97</time>
   <energy>
    <i name="e_fr_energy">   -194.67520032 </i>
    <i name="e_wo_entrp">   -194.67520032 </i>
    <i name="e_0_energy">   -194.67520032 </i>
   </energy>
  </scstep>
  <scstep>
   <time name="dav">  306.74  307.48</time>
   <time name="total">  318.75  319.54</time>
   <energy>
    <i name="e_fr_energy">   -194.68216184 </i>
    <i name="e_wo_entrp">   -194.68216184 </i>
    <i name="e_0_energy">   -194.68216184 </i>
   </energy>
  </scstep>
  <scstep>
   <time name="dav">  309.25  309.99</time>
   <time name="total">  321.27  322.07</time>
   <energy>
    <i name="e_fr_energy">   -194.68733418 </i>
    <i name="e_wo_entrp">   -194.68733418 </i>
    <i name="e_0_energy">   -194.68733418 </i>
   </energy>
  </scstep>
  <scstep>
   <time name="dav">  320.45  321.22</time>
   <time name="total">  332.39  333.22</time>
   <energy>
    <i name="e_fr_energy">   -194.68916734 </i>
    <i name="e_wo_entrp">   -194.68916734 </i>
    <i name="e_0_energy">   -194.68916734 </i>
   </energy>
  </scstep>
  <scstep>
   <time name="dav">  309.68  310.43</time>
   <time name="total">  321.83  322.63</time>
   <energy>
    <i name="e_fr_energy">   -194.69055393 </i>
    <i name="e_wo_entrp">   -194.69055393 </i>
    <i name="e_0_energy">   -194.69055393 </i>
   </energy>
  </scstep>
  <scstep>
   <time name="dav">  310.81  311.56</time>
   <time name="total">  322.97  323.77</time>
   <energy>
    <i name="e_fr_energy">   -194.69099446 </i>
    <i name="e_wo_entrp">   -194.69099446 </i>
    <i name="e_0_energy">   -194.69099446 </i>
   </energy>
  </scstep>
  <scstep>
   <time name="dav">  318.64  319.41</time>
   <time name="total">  330.78  331.60</time>
   <energy>
    <i name="e_fr_energy">   -194.69112672 </i>
    <i name="e_wo_entrp">   -194.69112672 </i>
    <i name="e_0_energy">   -194.69112672 </i>
   </energy>
  </scstep>
  <scstep>
   <time name="dav">  302.11  302.84</time>
   <time name="total">  314.26  315.04</time>
   <energy>
    <i name="e_fr_energy">   -194.69120204 </i>
    <i name="e_wo_entrp">   -194.69120204 </i>
    <i name="e_0_energy">   -194.69120204 </i>
   </energy>
  </scstep>
  <scstep>
   <time name="dav">  309.16  309.91</time>
   <time name="total">  321.30  322.10</time>
   <energy>
    <i name="e_fr_energy">   -194.69123069 </i>
    <i name="e_wo_entrp">   -194.69123069 </i>
    <i name="e_0_energy">   -194.69123069 </i>
   </energy>
  </scstep>
  <scstep>
   <time name="dav">  310.95  311.71</time>
   <time name="total">  323.12  323.92</time>
   <energy>
    <i name="e_fr_energy">   -194.69123477 </i>
    <i name="e_wo_entrp">   -194.69123477 </i>
    <i name="e_0_energy">   -194.69123477 </i>
   </energy>
  </scstep>
  <scstep>
   <time name="dav">  305.39  306.13</time>
   <time name="total">  317.41  318.20</time>
   <energy>
    <i name="e_fr_energy">   -194.69123689 </i>
    <i name="e_wo_entrp">   -194.69123689 </i>
    <i name="e_0_energy">   -194.69123689 </i>
   </energy>
  </scstep>
  <scstep>
   <time name="dav">  299.90  300.62</time>
   <time name="total">  311.91  312.69</time>
   <energy>
    <i name="e_fr_energy">   -194.69123837 </i>
    <i name="e_wo_entrp">   -194.69123837 </i>
    <i name="e_0_energy">   -194.69123837 </i>
   </energy>
  </scstep>
  <scstep>
   <time name="dav">  272.65  273.31</time>
   <time name="total">  284.70  285.41</time>
   <energy>
    <i name="e_fr_energy">   -194.69123892 </i>
    <i name="e_wo_entrp">   -194.69123892 </i>
    <i name="e_0_energy">   -194.69123892 </i>
   </energy>
  </scstep>
  <scstep>
   <time name="dav">  260.42  261.05</time>
   <time name="total">  272.45  273.13</time>
   <energy>
    <i name="e_fr_energy">   -194.69123919 </i>
    <i name="e_wo_entrp">   -194.69123919 </i>
    <i name="e_0_energy">   -194.69123919 </i>
   </energy>
  </scstep>
  <scstep>
   <time name="dav">  235.96  236.53</time>
   <time name="total">  247.99  248.61</time>
   <energy>
    <i name="e_fr_energy">   -194.69123922 </i>
    <i name="e_wo_entrp">   -194.69123922 </i>
    <i name="e_0_energy">   -194.69123922 </i>
   </energy>
  </scstep>
  <scstep>
   <time name="dav">  222.86  223.39</time>
   <time name="total">  234.91  235.50</time>
   <energy>
    <i name="e_fr_energy">   -194.69123924 </i>
    <i name="e_wo_entrp">   -194.69123924 </i>
    <i name="e_0_energy">   -194.69123924 </i>
   </energy>
  </scstep>
  <scstep>
   <time name="dav">  230.53  231.09</time>
   <time name="total">  230.90  231.48</time>
   <energy>
    <i name="alphaZ">    206.49012646 </i>
    <i name="ewald">  19424.42298394 </i>
    <i name="hartreedc"> -25485.55485981 </i>
    <i name="XCdc">   -429.53055575 </i>
    <i name="pawpsdc">   4194.73588867 </i>
    <i name="pawaedc">  -3428.71276158 </i>
    <i name="eentropy">     -0.00000000 </i>
    <i name="bandstr">  -1143.38488010 </i>
    <i name="atom">   6466.84281893 </i>
    <i name="e_fr_energy">   -194.69123924 </i>
    <i name="e_wo_entrp">   -194.69123924 </i>
    <i name="e_0_energy">   -194.69123924 </i>
   </energy>
  </scstep>
  <structure>
   <crystal>
    <varray name="basis" >
     <v>       9.84600000       0.00000000       0.00000000 </v>
     <v>       4.92300000       8.52144000       0.00000000 </v>
     <v>       0.00000000       0.00000000      20.00000000 </v>
    </varray>
    <i name="volume">   1678.04196480 </i>
    <varray name="rec_basis" >
     <v>       0.10156409      -0.05867553       0.00000000 </v>
     <v>       0.00000000       0.11735106       0.00000000 </v>
     <v>       0.00000000       0.00000000       0.05000000 </v>
    </varray>
   </crystal>
   <varray name="positions" >
    <v>       0.33330000       0.00006700       0.00000000 </v>
    <v>       0.66663300       0.00006700       0.00000000 </v>
    <v>       0.99996700       0.00006700       0.00000000 </v>
    <v>       0.33330000       0.33340000       0.00000000 </v>
    <v>       0.66663300       0.33340000       0.00000000 </v>
    <v>       0.99996700       0.33340000       0.00000000 </v>
    <v>       0.33330000       0.66673300       0.00000000 </v>
    <v>       0.66663300       0.66673300       0.00000000 </v>
    <v>       0.99996700       0.66673300       0.00000000 </v>
    <v>       0.11109200       0.11216500       0.91545900 </v>
    <v>       0.44442600       0.11114900       0.91545900 </v>
    <v>       0.77775900       0.11114900       0.91545900 </v>
    <v>       0.11109200       0.44448200       0.91545900 </v>
    <v>       0.44442600       0.44448200       0.91545900 </v>
    <v>       0.77775900       0.44448200       0.91545900 </v>
    <v>       0.11109200       0.77781500       0.91545900 </v>
    <v>       0.44442600       0.77781500       0.91545900 </v>
    <v>       0.77775900       0.77781500       0.91545900 </v>
    <v>       0.11109200       0.11114900       0.08454100 </v>
    <v>       0.44442600       0.11114900       0.08454100 </v>
    <v>       0.77775900       0.11114900       0.08454100 </v>
    <v>       0.11109200       0.44448200       0.08454100 </v>
    <v>       0.44442600       0.44448200       0.08454100 </v>
    <v>       0.77775900       0.44448200       0.08454100 </v>
    <v>       0.11109200       0.77781500       0.08454100 </v>
    <v>       0.44442600       0.77781500       0.08454100 </v>
    <v>       0.77775900       0.77781500       0.08454100 </v>
   </varray>
  </structure>
  <varray name="forces" >
   <v>       0.00550758       0.00960786      -0.00003061 </v>
   <v>       0.00059364       0.00042064       0.00044642 </v>
   <v>       0.03395509       0.02600049      -0.02965143 </v>
   <v>       0.00313458      -0.00051501       0.00106021 </v>
   <v>      -0.00192878      -0.00350126      -0.00000236 </v>
   <v>       0.00546026       0.04355136       0.03078116 </v>
   <v>      -0.00199798       0.00242425      -0.00105360 </v>
   <v>       0.00030690       0.00071318      -0.00043314 </v>
   <v>       0.00040335       0.00090618       0.00001079 </v>
   <v>      -0.05561573      -0.09777672      -0.00110193 </v>
   <v>       0.00473384      -0.00079900       0.00066664 </v>
   <v>       0.00417721      -0.00045782      -0.00052415 </v>
   <v>       0.00433515       0.00808482       0.00125408 </v>
   <v>      -0.00017352      -0.00019149       0.00001636 </v>
   <v>      -0.00252007       0.00342356       0.00062465 </v>
   <v>       0.00481477       0.00759876      -0.00116998 </v>
   <v>      -0.00311717       0.00382570      -0.00060228 </v>
   <v>      -0.00011771      -0.00016111       0.00008395 </v>
   <v>      -0.00121244      -0.00221174      -0.00005040 </v>
   <v>      -0.00025547      -0.00109227      -0.00048906 </v>
   <v>       0.00136236      -0.00200403      -0.00211061 </v>
   <v>       0.00143526       0.00057223       0.00158731 </v>
   <v>       0.00007966       0.00023635      -0.00001071 </v>
   <v>      -0.00246226       0.00019333       0.00202331 </v>
   <v>      -0.00014172       0.00153773      -0.00165239 </v>
   <v>      -0.00088777      -0.00065542       0.00040714 </v>
   <v>       0.00013096       0.00026945      -0.00007936 </v>
  </varray>
  <varray name="stress" >
   <v>       7.89273400      -0.01668293       0.06705126 </v>
   <v>      -0.01668292       8.29081702       0.11833067 </v>
   <v>       0.06705127       0.11833068      -0.00612284 </v>
  </varray>
  <energy>
   <i name="e_fr_energy">   -194.69123924 </i>
   <i name="e_wo_entrp">   -194.69123924 </i>
   <i name="e_0_energy">     -0.00000000 </i>
  </energy>
  <time name="totalsc">10400.2010426.12</time>
  <eigenvalues>
   <array>
    <dimension dim="1">band</dimension>
    <dimension dim="2">kpoint</dimension>
    <dimension dim="3">spin</dimension>
    <field>eigene</field>
    <field>occ</field>
    <set>
     <set comment="spin 1">
      <set comment="kpoint 1">
       <r>  -16.5476    1.0000 </r>
       <r>  -15.3662    1.0000 </r>
       <r>  -15.1796    1.0000 </r>
       <r>  -15.1766    1.0000 </r>
       <r>  -15.1761    1.0000 </r>
       <r>  -15.1757    1.0000 </r>
       <r>  -15.1747    1.0000 </r>
       <r>  -15.1717    1.0000 </r>
       <r>  -14.6280    1.0000 </r>
       <r>  -14.6259    1.0000 </r>
       <r>  -14.6255    1.0000 </r>
       <r>  -14.6249    1.0000 </r>
       <r>  -14.6242    1.0000 </r>
       <r>  -14.6220    1.0000 </r>
       <r>  -14.2400    1.0000 </r>
       <r>  -14.2400    1.0000 </r>
       <r>  -14.1200    1.0000 </r>
       <r>  -14.1200    1.0000 </r>
       <r>   -8.0046    1.0000 </r>
       <r>   -7.2255    1.0000 </r>
       <r>   -7.2242    1.0000 </r>
       <r>   -7.2242    1.0000 </r>
       <r>   -7.2236    1.0000 </r>
       <r>   -7.2230    1.0000 </r>
       <r>   -7.2219    1.0000 </r>
       <r>   -7.1675    1.0000 </r>
       <r>   -7.1642    1.0000 </r>
       <r>   -7.0499    1.0000 </r>
       <r>   -7.0442    1.0000 </r>
       <r>   -6.2075    1.0000 </r>
       <r>   -6.2054    1.0000 </r>
       <r>   -6.2050    1.0000 </r>
       <r>   -6.2045    1.0000 </r>
       <r>   -6.2030    1.0000 </r>
       <r>   -6.2016    1.0000 </r>
       <r>   -6.1658    1.0000 </r>
       <r>   -6.1609    1.0000 </r>
       <r>   -6.1589    1.0000 </r>
       <r>   -6.1582    1.0000 </r>
       <r>   -6.1573    1.0000 </r>
       <r>   -6.1569    1.0000 </r>
       <r>   -6.1547    1.0000 </r>
       <r>   -6.1537    1.0000 </r>
       <r>   -5.5015    1.0000 </r>
       <r>   -5.5015    1.0000 </r>
       <r>   -5.1257    1.0000 </r>
       <r>   -5.1202    1.0000 </r>
       <r>   -4.3743    1.0000 </r>
       <r>   -4.3717    1.0000 </r>
       <r>   -4.3698    1.0000 </r>
       <r>   -4.3667    1.0000 </r>
       <r>   -4.3657    1.0000 </r>
       <r>   -4.3651    1.0000 </r>
       <r>   -4.1768    1.0000 </r>
       <r>   -4.1768    1.0000 </r>
       <r>   -4.0503    1.0000 </r>
       <r>   -4.0465    1.0000 </r>
       <r>   -4.0384    1.0000 </r>
       <r>   -3.7920    1.0000 </r>
       <r>   -3.7914    1.0000 </r>
       <r>   -3.7907    1.0000 </r>
       <r>   -3.7902    1.0000 </r>
       <r>   -3.7894    1.0000 </r>
       <r>   -3.7888    1.0000 </r>
       <r>   -3.0437    1.0000 </r>
       <r>   -3.0427    1.0000 </r>
       <r>   -3.0424    1.0000 </r>
       <r>   -3.0415    1.0000 </r>
       <r>   -3.0408    1.0000 </r>
       <r>   -3.0402    1.0000 </r>
       <r>   -2.9144    1.0000 </r>
       <r>   -2.9121    1.0000 </r>
       <r>   -2.9055    1.0000 </r>
       <r>   -2.9045    1.0000 </r>
       <r>   -2.8997    1.0000 </r>
       <r>   -2.8993    1.0000 </r>
       <r>   -2.8991    1.0000 </r>
       <r>   -2.8984    1.0000 </r>
       <r>   -2.2360    1.0000 </r>
       <r>   -1.7750    1.0000 </r>
       <r>   -1.7746    1.0000 </r>
       <r>   -0.0867    0.0000 </r>
       <r>   -0.0863    0.0000 </r>
       <r>    0.3225    0.0000 </r>
       <r>    0.3243    0.0000 </r>
       <r>    0.3246    0.0000 </r>
       <r>    0.3248    0.0000 </r>
       <r>    0.3252    0.0000 </r>
       <r>    0.3272    0.0000 </r>
       <r>    0.5359    0.0000 </r>
       <r>    0.5374    0.0000 </r>
       <r>    0.5384    0.0000 </r>
       <r>    0.5396    0.0000 </r>
       <r>    0.5405    0.0000 </r>
       <r>    0.5408    0.0000 </r>
       <r>    0.9491    0.0000 </r>
       <r>    0.9524    0.0000 </r>
       <r>    1.2262    0.0000 </r>
       <r>    1.2349    0.0000 </r>
       <r>    1.3723    0.0000 </r>
       <r>    1.3945    0.0000 </r>
       <r>    1.4521    0.0000 </r>
      </set>
      <set comment="kpoint 2">
       <r>  -16.5438    1.0000 </r>
       <r>  -15.3641    1.0000 </r>
       <r>  -15.2756    1.0000 </r>
       <r>  -15.2246    1.0000 </r>
       <r>  -15.2210    1.0000 </r>
       <r>  -15.1265    1.0000 </r>
       <r>  -15.1229    1.0000 </r>
       <r>  -15.0794    1.0000 </r>
       <r>  -14.6772    1.0000 </r>
       <r>  -14.6505    1.0000 </r>
       <r>  -14.6479    1.0000 </r>
       <r>  -14.5998    1.0000 </r>
       <r>  -14.5973    1.0000 </r>
       <r>  -14.5759    1.0000 </r>
       <r>  -14.2436    1.0000 </r>
       <r>  -14.2432    1.0000 </r>
       <r>  -14.1220    1.0000 </r>
       <r>  -14.1218    1.0000 </r>
       <r>   -7.9996    1.0000 </r>
       <r>   -7.3575    1.0000 </r>
       <r>   -7.2879    1.0000 </r>
       <r>   -7.2864    1.0000 </r>
       <r>   -7.1635    1.0000 </r>
       <r>   -7.1603    1.0000 </r>
       <r>   -7.1580    1.0000 </r>
       <r>   -7.1565    1.0000 </r>
       <r>   -7.1006    1.0000 </r>
       <r>   -7.0679    1.0000 </r>
       <r>   -7.0623    1.0000 </r>
       <r>   -6.2862    1.0000 </r>
       <r>   -6.2458    1.0000 </r>
       <r>   -6.2268    1.0000 </r>
       <r>   -6.2238    1.0000 </r>
       <r>   -6.2222    1.0000 </r>
       <r>   -6.2210    1.0000 </r>
       <r>   -6.1810    1.0000 </r>
       <r>   -6.1780    1.0000 </r>
       <r>   -6.1576    1.0000 </r>
       <r>   -6.1407    1.0000 </r>
       <r>   -6.1352    1.0000 </r>
       <r>   -6.0902    1.0000 </r>
       <r>   -6.0888    1.0000 </r>
       <r>   -6.0226    1.0000 </r>
       <r>   -5.4991    1.0000 </r>
       <r>   -5.4989    1.0000 </r>
       <r>   -5.1276    1.0000 </r>
       <r>   -5.1222    1.0000 </r>
       <r>   -4.4270    1.0000 </r>
       <r>   -4.4212    1.0000 </r>
       <r>   -4.4158    1.0000 </r>
       <r>   -4.3606    1.0000 </r>
       <r>   -4.3562    1.0000 </r>
       <r>   -4.3014    1.0000 </r>
       <r>   -4.1713    1.0000 </r>
       <r>   -4.1711    1.0000 </r>
       <r>   -4.0586    1.0000 </r>
       <r>   -4.0572    1.0000 </r>
       <r>   -4.0363    1.0000 </r>
       <r>   -3.8314    1.0000 </r>
       <r>   -3.7986    1.0000 </r>
       <r>   -3.7970    1.0000 </r>
       <r>   -3.7529    1.0000 </r>
       <r>   -3.7517    1.0000 </r>
       <r>   -3.7449    1.0000 </r>
       <r>   -3.0944    1.0000 </r>
       <r>   -3.0909    1.0000 </r>
       <r>   -3.0870    1.0000 </r>
       <r>   -3.0835    1.0000 </r>
       <r>   -3.0528    1.0000 </r>
       <r>   -3.0165    1.0000 </r>
       <r>   -2.9605    1.0000 </r>
       <r>   -2.9185    1.0000 </r>
       <r>   -2.9126    1.0000 </r>
       <r>   -2.8867    1.0000 </r>
       <r>   -2.8830    1.0000 </r>
       <r>   -2.8434    1.0000 </r>
       <r>   -2.8419    1.0000 </r>
       <r>   -2.8353    1.0000 </r>
       <r>   -2.2365    1.0000 </r>
       <r>   -1.7852    1.0000 </r>
       <r>   -1.7847    1.0000 </r>
       <r>   -0.0740    0.0000 </r>
       <r>   -0.0734    0.0000 </r>
       <r>    0.2618    0.0000 </r>
       <r>    0.2771    0.0000 </r>
       <r>    0.2794    0.0000 </r>
       <r>    0.3402    0.0000 </r>
       <r>    0.3415    0.0000 </r>
       <r>    0.3935    0.0000 </r>
       <r>    0.5429    0.0000 </r>
       <r>    0.5435    0.0000 </r>
       <r>    0.5493    0.0000 </r>
       <r>    0.5522    0.0000 </r>
       <r>    0.5546    0.0000 </r>
       <r>    0.5563    0.0000 </r>
       <r>    0.9542    0.0000 </r>
       <r>    0.9574    0.0000 </r>
       <r>    1.2169    0.0000 </r>
       <r>    1.2392    0.0000 </r>
       <r>    1.3476    0.0000 </r>
       <r>    1.3704    0.0000 </r>
       <r>    1.3949    0.0000 </r>
      </set>
      <set comment="kpoint 3">
       <r>  -16.5325    1.0000 </r>
       <r>  -15.3759    1.0000 </r>
       <r>  -15.3578    1.0000 </r>
       <r>  -15.2683    1.0000 </r>
       <r>  -15.2647    1.0000 </r>
       <r>  -15.0729    1.0000 </r>
       <r>  -15.0693    1.0000 </r>
       <r>  -14.9862    1.0000 </r>
       <r>  -14.7297    1.0000 </r>
       <r>  -14.6730    1.0000 </r>
       <r>  -14.6704    1.0000 </r>
       <r>  -14.5719    1.0000 </r>
       <r>  -14.5694    1.0000 </r>
       <r>  -14.5285    1.0000 </r>
       <r>  -14.2538    1.0000 </r>
       <r>  -14.2531    1.0000 </r>
       <r>  -14.1279    1.0000 </r>
       <r>  -14.1275    1.0000 </r>
       <r>   -7.9847    1.0000 </r>
       <r>   -7.4914    1.0000 </r>
       <r>   -7.3478    1.0000 </r>
       <r>   -7.3464    1.0000 </r>
       <r>   -7.1510    1.0000 </r>
       <r>   -7.1478    1.0000 </r>
       <r>   -7.1159    1.0000 </r>
       <r>   -7.1104    1.0000 </r>
       <r>   -7.0913    1.0000 </r>
       <r>   -7.0897    1.0000 </r>
       <r>   -7.0026    1.0000 </r>
       <r>   -6.4073    1.0000 </r>
       <r>   -6.2850    1.0000 </r>
       <r>   -6.2838    1.0000 </r>
       <r>   -6.2636    1.0000 </r>
       <r>   -6.2440    1.0000 </r>
       <r>   -6.2409    1.0000 </r>
       <r>   -6.1533    1.0000 </r>
       <r>   -6.1503    1.0000 </r>
       <r>   -6.1118    1.0000 </r>
       <r>   -6.0756    1.0000 </r>
       <r>   -6.0702    1.0000 </r>
       <r>   -6.0203    1.0000 </r>
       <r>   -6.0188    1.0000 </r>
       <r>   -5.8837    1.0000 </r>
       <r>   -5.4902    1.0000 </r>
       <r>   -5.4897    1.0000 </r>
       <r>   -5.1331    1.0000 </r>
       <r>   -5.1277    1.0000 </r>
       <r>   -4.4958    1.0000 </r>
       <r>   -4.4903    1.0000 </r>
       <r>   -4.4813    1.0000 </r>
       <r>   -4.3858    1.0000 </r>
       <r>   -4.3821    1.0000 </r>
       <r>   -4.2315    1.0000 </r>
       <r>   -4.1550    1.0000 </r>
       <r>   -4.1547    1.0000 </r>
       <r>   -4.0929    1.0000 </r>
       <r>   -4.0833    1.0000 </r>
       <r>   -4.0254    1.0000 </r>
       <r>   -3.8664    1.0000 </r>
       <r>   -3.7866    1.0000 </r>
       <r>   -3.7850    1.0000 </r>
       <r>   -3.6932    1.0000 </r>
       <r>   -3.6853    1.0000 </r>
       <r>   -3.6842    1.0000 </r>
       <r>   -3.1824    1.0000 </r>
       <r>   -3.1791    1.0000 </r>
       <r>   -3.1781    1.0000 </r>
       <r>   -3.1743    1.0000 </r>
       <r>   -3.0475    1.0000 </r>
       <r>   -3.0266    1.0000 </r>
       <r>   -2.9752    1.0000 </r>
       <r>   -2.9391    1.0000 </r>
       <r>   -2.9089    1.0000 </r>
       <r>   -2.8318    1.0000 </r>
       <r>   -2.8287    1.0000 </r>
       <r>   -2.7933    1.0000 </r>
       <r>   -2.7588    1.0000 </r>
       <r>   -2.7527    1.0000 </r>
       <r>   -2.2381    1.0000 </r>
       <r>   -1.8143    1.0000 </r>
       <r>   -1.8137    1.0000 </r>
       <r>   -0.0375    0.0000 </r>
       <r>   -0.0366    0.0000 </r>
       <r>    0.2066    0.0000 </r>
       <r>    0.2154    0.0000 </r>
       <r>    0.2176    0.0000 </r>
       <r>    0.3285    0.0000 </r>
       <r>    0.3295    0.0000 </r>
       <r>    0.4673    0.0000 </r>
       <r>    0.5538    0.0000 </r>
       <r>    0.5542    0.0000 </r>
       <r>    0.5746    0.0000 </r>
       <r>    0.5775    0.0000 </r>
       <r>    0.6007    0.0000 </r>
       <r>    0.6019    0.0000 </r>
       <r>    0.9692    0.0000 </r>
       <r>    0.9724    0.0000 </r>
       <r>    1.1835    0.0000 </r>
       <r>    1.2604    0.0000 </r>
       <r>    1.2820    0.0000 </r>
       <r>    1.2901    0.0000 </r>
       <r>    1.3426    0.0000 </r>
      </set>
      <set comment="kpoint 4">
       <r>  -16.5137    1.0000 </r>
       <r>  -15.4763    1.0000 </r>
       <r>  -15.3474    1.0000 </r>
       <r>  -15.3079    1.0000 </r>
       <r>  -15.3043    1.0000 </r>
       <r>  -15.0167    1.0000 </r>
       <r>  -15.0132    1.0000 </r>
       <r>  -14.8979    1.0000 </r>
       <r>  -14.7827    1.0000 </r>
       <r>  -14.6933    1.0000 </r>
       <r>  -14.6907    1.0000 </r>
       <r>  -14.5426    1.0000 </r>
       <r>  -14.5402    1.0000 </r>
       <r>  -14.4841    1.0000 </r>
       <r>  -14.2706    1.0000 </r>
       <r>  -14.2696    1.0000 </r>
       <r>  -14.1375    1.0000 </r>
       <r>  -14.1370    1.0000 </r>
       <r>   -7.9599    1.0000 </r>
       <r>   -7.6202    1.0000 </r>
       <r>   -7.4027    1.0000 </r>
       <r>   -7.4013    1.0000 </r>
       <r>   -7.1809    1.0000 </r>
       <r>   -7.1756    1.0000 </r>
       <r>   -7.1305    1.0000 </r>
       <r>   -7.1274    1.0000 </r>
       <r>   -7.0256    1.0000 </r>
       <r>   -7.0240    1.0000 </r>
       <r>   -6.9508    1.0000 </r>
       <r>   -6.5194    1.0000 </r>
       <r>   -6.3458    1.0000 </r>
       <r>   -6.3447    1.0000 </r>
       <r>   -6.2573    1.0000 </r>
       <r>   -6.2543    1.0000 </r>
       <r>   -6.2377    1.0000 </r>
       <r>   -6.1227    1.0000 </r>
       <r>   -6.1198    1.0000 </r>
       <r>   -6.0717    1.0000 </r>
       <r>   -5.9882    1.0000 </r>
       <r>   -5.9833    1.0000 </r>
       <r>   -5.9476    1.0000 </r>
       <r>   -5.9460    1.0000 </r>
       <r>   -5.7423    1.0000 </r>
       <r>   -5.4693    1.0000 </r>
       <r>   -5.4682    1.0000 </r>
       <r>   -5.1409    1.0000 </r>
       <r>   -5.1356    1.0000 </r>
       <r>   -4.5830    1.0000 </r>
       <r>   -4.5774    1.0000 </r>
       <r>   -4.5306    1.0000 </r>
       <r>   -4.4387    1.0000 </r>
       <r>   -4.4356    1.0000 </r>
       <r>   -4.1573    1.0000 </r>
       <r>   -4.1518    1.0000 </r>
       <r>   -4.1291    1.0000 </r>
       <r>   -4.1287    1.0000 </r>
       <r>   -4.1231    1.0000 </r>
       <r>   -4.0066    1.0000 </r>
       <r>   -3.8964    1.0000 </r>
       <r>   -3.7672    1.0000 </r>
       <r>   -3.7657    1.0000 </r>
       <r>   -3.6356    1.0000 </r>
       <r>   -3.5983    1.0000 </r>
       <r>   -3.5973    1.0000 </r>
       <r>   -3.2857    1.0000 </r>
       <r>   -3.2813    1.0000 </r>
       <r>   -3.2790    1.0000 </r>
       <r>   -3.2737    1.0000 </r>
       <r>   -3.0967    1.0000 </r>
       <r>   -3.0277    1.0000 </r>
       <r>   -2.9729    1.0000 </r>
       <r>   -2.9208    1.0000 </r>
       <r>   -2.9049    1.0000 </r>
       <r>   -2.7769    1.0000 </r>
       <r>   -2.7740    1.0000 </r>
       <r>   -2.7493    1.0000 </r>
       <r>   -2.6789    1.0000 </r>
       <r>   -2.6734    1.0000 </r>
       <r>   -2.2411    1.0000 </r>
       <r>   -1.8587    1.0000 </r>
       <r>   -1.8579    1.0000 </r>
       <r>    0.0182    0.0000 </r>
       <r>    0.0193    0.0000 </r>
       <r>    0.1494    0.0000 </r>
       <r>    0.1516    0.0000 </r>
       <r>    0.1606    0.0000 </r>
       <r>    0.3076    0.0000 </r>
       <r>    0.3089    0.0000 </r>
       <r>    0.5445    0.0000 </r>
       <r>    0.5692    0.0000 </r>
       <r>    0.5734    0.0000 </r>
       <r>    0.6015    0.0000 </r>
       <r>    0.6041    0.0000 </r>
       <r>    0.6593    0.0000 </r>
       <r>    0.6611    0.0000 </r>
       <r>    0.9938    0.0000 </r>
       <r>    0.9971    0.0000 </r>
       <r>    1.1316    0.0000 </r>
       <r>    1.1832    0.0000 </r>
       <r>    1.2013    0.0000 </r>
       <r>    1.2698    0.0000 </r>
       <r>    1.2803    0.0000 </r>
      </set>
      <set comment="kpoint 5">
       <r>  -16.4874    1.0000 </r>
       <r>  -15.5758    1.0000 </r>
       <r>  -15.3434    1.0000 </r>
       <r>  -15.3398    1.0000 </r>
       <r>  -15.3325    1.0000 </r>
       <r>  -14.9586    1.0000 </r>
       <r>  -14.9550    1.0000 </r>
       <r>  -14.8356    1.0000 </r>
       <r>  -14.8162    1.0000 </r>
       <r>  -14.7114    1.0000 </r>
       <r>  -14.7088    1.0000 </r>
       <r>  -14.5122    1.0000 </r>
       <r>  -14.5098    1.0000 </r>
       <r>  -14.4433    1.0000 </r>
       <r>  -14.2937    1.0000 </r>
       <r>  -14.2924    1.0000 </r>
       <r>  -14.1507    1.0000 </r>
       <r>  -14.1500    1.0000 </r>
       <r>   -7.9254    1.0000 </r>
       <r>   -7.7401    1.0000 </r>
       <r>   -7.4514    1.0000 </r>
       <r>   -7.4500    1.0000 </r>
       <r>   -7.2522    1.0000 </r>
       <r>   -7.2471    1.0000 </r>
       <r>   -7.1025    1.0000 </r>
       <r>   -7.0995    1.0000 </r>
       <r>   -6.9630    1.0000 </r>
       <r>   -6.9614    1.0000 </r>
       <r>   -6.9549    1.0000 </r>
       <r>   -6.6209    1.0000 </r>
       <r>   -6.4055    1.0000 </r>
       <r>   -6.4043    1.0000 </r>
       <r>   -6.2664    1.0000 </r>
       <r>   -6.2634    1.0000 </r>
       <r>   -6.1577    1.0000 </r>
       <r>   -6.0899    1.0000 </r>
       <r>   -6.0871    1.0000 </r>
       <r>   -6.0388    1.0000 </r>
       <r>   -5.9012    1.0000 </r>
       <r>   -5.8971    1.0000 </r>
       <r>   -5.8725    1.0000 </r>
       <r>   -5.8708    1.0000 </r>
       <r>   -5.6001    1.0000 </r>
       <r>   -5.4254    1.0000 </r>
       <r>   -5.4234    1.0000 </r>
       <r>   -5.1496    1.0000 </r>
       <r>   -5.1442    1.0000 </r>
       <r>   -4.6738    1.0000 </r>
       <r>   -4.6682    1.0000 </r>
       <r>   -4.5741    1.0000 </r>
       <r>   -4.5092    1.0000 </r>
       <r>   -4.5066    1.0000 </r>
       <r>   -4.2323    1.0000 </r>
       <r>   -4.1765    1.0000 </r>
       <r>   -4.0953    1.0000 </r>
       <r>   -4.0948    1.0000 </r>
       <r>   -4.0787    1.0000 </r>
       <r>   -3.9804    1.0000 </r>
       <r>   -3.9218    1.0000 </r>
       <r>   -3.7486    1.0000 </r>
       <r>   -3.7472    1.0000 </r>
       <r>   -3.5724    1.0000 </r>
       <r>   -3.5029    1.0000 </r>
       <r>   -3.5019    1.0000 </r>
       <r>   -3.4028    1.0000 </r>
       <r>   -3.3980    1.0000 </r>
       <r>   -3.3776    1.0000 </r>
       <r>   -3.3722    1.0000 </r>
       <r>   -3.1698    1.0000 </r>
       <r>   -3.0188    1.0000 </r>
       <r>   -2.9963    1.0000 </r>
       <r>   -2.9032    1.0000 </r>
       <r>   -2.8561    1.0000 </r>
       <r>   -2.7272    1.0000 </r>
       <r>   -2.7245    1.0000 </r>
       <r>   -2.7113    1.0000 </r>
       <r>   -2.6067    1.0000 </r>
       <r>   -2.6016    1.0000 </r>
       <r>   -2.2462    1.0000 </r>
       <r>   -1.9134    1.0000 </r>
       <r>   -1.9125    1.0000 </r>
       <r>    0.0844    0.0000 </r>
       <r>    0.0865    0.0000 </r>
       <r>    0.0866    0.0000 </r>
       <r>    0.0879    0.0000 </r>
       <r>    0.1256    0.0000 </r>
       <r>    0.2908    0.0000 </r>
       <r>    0.2922    0.0000 </r>
       <r>    0.5881    0.0000 </r>
       <r>    0.6005    0.0000 </r>
       <r>    0.6241    0.0000 </r>
       <r>    0.6255    0.0000 </r>
       <r>    0.6278    0.0000 </r>
       <r>    0.7205    0.0000 </r>
       <r>    0.7230    0.0000 </r>
       <r>    1.0275    0.0000 </r>
       <r>    1.0309    0.0000 </r>
       <r>    1.0648    0.0000 </r>
       <r>    1.0673    0.0000 </r>
       <r>    1.1043    0.0000 </r>
       <r>    1.1813    0.0000 </r>
       <r>    1.1840    0.0000 </r>
      </set>
      <set comment="kpoint 6">
       <r>  -16.4538    1.0000 </r>
       <r>  -15.6735    1.0000 </r>
       <r>  -15.3739    1.0000 </r>
       <r>  -15.3704    1.0000 </r>
       <r>  -15.3142    1.0000 </r>
       <r>  -14.8990    1.0000 </r>
       <r>  -14.8955    1.0000 </r>
       <r>  -14.8878    1.0000 </r>
       <r>  -14.7424    1.0000 </r>
       <r>  -14.7271    1.0000 </r>
       <r>  -14.7244    1.0000 </r>
       <r>  -14.4809    1.0000 </r>
       <r>  -14.4786    1.0000 </r>
       <r>  -14.4069    1.0000 </r>
       <r>  -14.3229    1.0000 </r>
       <r>  -14.3213    1.0000 </r>
       <r>  -14.1673    1.0000 </r>
       <r>  -14.1664    1.0000 </r>
       <r>   -7.8815    1.0000 </r>
       <r>   -7.8482    1.0000 </r>
       <r>   -7.4932    1.0000 </r>
       <r>   -7.4915    1.0000 </r>
       <r>   -7.3224    1.0000 </r>
       <r>   -7.3175    1.0000 </r>
       <r>   -7.0676    1.0000 </r>
       <r>   -7.0647    1.0000 </r>
       <r>   -7.0035    1.0000 </r>
       <r>   -6.9053    1.0000 </r>
       <r>   -6.9037    1.0000 </r>
       <r>   -6.7105    1.0000 </r>
       <r>   -6.4644    1.0000 </r>
       <r>   -6.4632    1.0000 </r>
       <r>   -6.2712    1.0000 </r>
       <r>   -6.2684    1.0000 </r>
       <r>   -6.0553    1.0000 </r>
       <r>   -6.0525    1.0000 </r>
       <r>   -6.0343    1.0000 </r>
       <r>   -6.0134    1.0000 </r>
       <r>   -5.8362    1.0000 </r>
       <r>   -5.8333    1.0000 </r>
       <r>   -5.7955    1.0000 </r>
       <r>   -5.7937    1.0000 </r>
       <r>   -5.4588    1.0000 </r>
       <r>   -5.3450    1.0000 </r>
       <r>   -5.3417    1.0000 </r>
       <r>   -5.1571    1.0000 </r>
       <r>   -5.1518    1.0000 </r>
       <r>   -4.7624    1.0000 </r>
       <r>   -4.7568    1.0000 </r>
       <r>   -4.6116    1.0000 </r>
       <r>   -4.5899    1.0000 </r>
       <r>   -4.5875    1.0000 </r>
       <r>   -4.3322    1.0000 </r>
       <r>   -4.2415    1.0000 </r>
       <r>   -4.0554    1.0000 </r>
       <r>   -4.0548    1.0000 </r>
       <r>   -3.9968    1.0000 </r>
       <r>   -3.9473    1.0000 </r>
       <r>   -3.9425    1.0000 </r>
       <r>   -3.7357    1.0000 </r>
       <r>   -3.7343    1.0000 </r>
       <r>   -3.5333    1.0000 </r>
       <r>   -3.5282    1.0000 </r>
       <r>   -3.5041    1.0000 </r>
       <r>   -3.4704    1.0000 </r>
       <r>   -3.4651    1.0000 </r>
       <r>   -3.4073    1.0000 </r>
       <r>   -3.4063    1.0000 </r>
       <r>   -3.2451    1.0000 </r>
       <r>   -3.0751    1.0000 </r>
       <r>   -2.9574    1.0000 </r>
       <r>   -2.9068    1.0000 </r>
       <r>   -2.7840    1.0000 </r>
       <r>   -2.6840    1.0000 </r>
       <r>   -2.6815    1.0000 </r>
       <r>   -2.6793    1.0000 </r>
       <r>   -2.5429    1.0000 </r>
       <r>   -2.5383    1.0000 </r>
       <r>   -2.2543    1.0000 </r>
       <r>   -1.9739    1.0000 </r>
       <r>   -1.9728    1.0000 </r>
       <r>    0.0238    0.0000 </r>
       <r>    0.0261    0.0000 </r>
       <r>    0.1036    0.0000 </r>
       <r>    0.1603    0.0000 </r>
       <r>    0.1617    0.0000 </r>
       <r>    0.2840    0.0000 </r>
       <r>    0.2854    0.0000 </r>
       <r>    0.6091    0.0000 </r>
       <r>    0.6352    0.0000 </r>
       <r>    0.6450    0.0000 </r>
       <r>    0.6471    0.0000 </r>
       <r>    0.7045    0.0000 </r>
       <r>    0.7798    0.0000 </r>
       <r>    0.7830    0.0000 </r>
       <r>    0.9360    0.0000 </r>
       <r>    0.9978    0.0000 </r>
       <r>    1.0241    0.0000 </r>
       <r>    1.0696    0.0000 </r>
       <r>    1.0731    0.0000 </r>
       <r>    1.0950    0.0000 </r>
       <r>    1.0971    0.0000 </r>
      </set>
      <set comment="kpoint 7">
       <r>  -16.4131    1.0000 </r>
       <r>  -15.7686    1.0000 </r>
       <r>  -15.3998    1.0000 </r>
       <r>  -15.3963    1.0000 </r>
       <r>  -15.2917    1.0000 </r>
       <r>  -14.9390    1.0000 </r>
       <r>  -14.8385    1.0000 </r>
       <r>  -14.8351    1.0000 </r>
       <r>  -14.7404    1.0000 </r>
       <r>  -14.7377    1.0000 </r>
       <r>  -14.6780    1.0000 </r>
       <r>  -14.4489    1.0000 </r>
       <r>  -14.4467    1.0000 </r>
       <r>  -14.3755    1.0000 </r>
       <r>  -14.3578    1.0000 </r>
       <r>  -14.3559    1.0000 </r>
       <r>  -14.1870    1.0000 </r>
       <r>  -14.1859    1.0000 </r>
[...]
       <r>   -5.8626    1.0000 </r>
       <r>   -5.8620    1.0000 </r>
       <r>   -5.5876    1.0000 </r>
       <r>   -5.3556    1.0000 </r>
       <r>   -5.1317    1.0000 </r>
       <r>   -5.1305    1.0000 </r>
       <r>   -5.1270    1.0000 </r>
       <r>   -5.1261    1.0000 </r>
       <r>   -5.0670    1.0000 </r>
       <r>   -5.0662    1.0000 </r>
       <r>   -5.0270    1.0000 </r>
       <r>   -4.8504    1.0000 </r>
       <r>   -4.7534    1.0000 </r>
       <r>   -4.7522    1.0000 </r>
       <r>   -4.7192    1.0000 </r>
       <r>   -4.5082    1.0000 </r>
       <r>   -4.5075    1.0000 </r>
       <r>   -4.3598    1.0000 </r>
       <r>   -4.3588    1.0000 </r>
       <r>   -3.9897    1.0000 </r>
       <r>   -3.8552    1.0000 </r>
       <r>   -3.8540    1.0000 </r>
       <r>   -3.8333    1.0000 </r>
       <r>   -3.7709    1.0000 </r>
       <r>   -3.7698    1.0000 </r>
       <r>   -3.6712    1.0000 </r>
       <r>   -3.6582    1.0000 </r>
       <r>   -3.6575    1.0000 </r>
       <r>   -3.5389    1.0000 </r>
       <r>   -3.5347    1.0000 </r>
       <r>   -3.1541    1.0000 </r>
       <r>   -3.0850    1.0000 </r>
       <r>   -3.0817    1.0000 </r>
       <r>   -3.0653    1.0000 </r>
       <r>   -2.8484    1.0000 </r>
       <r>   -2.5812    1.0000 </r>
       <r>   -2.5704    1.0000 </r>
       <r>   -2.5489    1.0000 </r>
       <r>   -2.4061    1.0000 </r>
       <r>   -2.4042    1.0000 </r>
       <r>   -2.3027    1.0000 </r>
       <r>   -2.3016    1.0000 </r>
       <r>   -2.2666    1.0000 </r>
       <r>   -2.2654    1.0000 </r>
       <r>   -0.1557    0.0000 </r>
       <r>   -0.1290    0.0000 </r>
       <r>    0.2859    0.0000 </r>
       <r>    0.2885    0.0000 </r>
       <r>    0.3425    0.0000 </r>
       <r>    0.3436    0.0000 </r>
       <r>    0.4284    0.0000 </r>
       <r>    0.4292    0.0000 </r>
       <r>    0.6599    0.0000 </r>
       <r>    0.6842    0.0000 </r>
       <r>    0.7164    0.0000 </r>
       <r>    0.7678    0.0000 </r>
       <r>    0.7690    0.0000 </r>
       <r>    0.7722    0.0000 </r>
       <r>    0.8494    0.0000 </r>
       <r>    0.9161    0.0000 </r>
       <r>    0.9190    0.0000 </r>
       <r>    1.0075    0.0000 </r>
       <r>    1.0405    0.0000 </r>
       <r>    1.0449    0.0000 </r>
       <r>    1.0795    0.0000 </r>
      </set>
     </set>
    </set>
   </array>
  </eigenvalues>
  <separator name="orbital magnetization" >
   <v name="MAGDIPOLOUT">      0.00000000      0.00000000      0.00000000</v>
  </separator>
  <dos>
   <i name="efermi">     -1.72331859 </i>
   <total>
    <array>
     <dimension dim="1">gridpoints</dimension>
     <dimension dim="2">spin</dimension>
     <field>energy</field>
     <field>total</field>
     <field>integrated</field>
     <set>
      <set comment="spin 1">
       <r>   -17.4476     0.0000     0.0000 </r>
       <r>   -17.3816     0.0000     0.0000 </r>
       <r>   -17.3156     0.0000     0.0000 </r>
       <r>   -17.2496     0.0000     0.0000 </r>
       <r>   -17.1836     0.0000     0.0000 </r>
       <r>   -17.1176     0.0000     0.0000 </r>
       <r>   -17.0516     0.0000     0.0000 </r>
       <r>   -16.9856     0.0000     0.0000 </r>
       <r>   -16.9196     0.0000     0.0000 </r>
       <r>   -16.8536     0.0000     0.0000 </r>
       <r>   -16.7876     0.0000     0.0000 </r>
       <r>   -16.7216     0.0000     0.0000 </r>
       <r>   -16.6556     0.0000     0.0000 </r>
       <r>   -16.5896     0.0000     0.0000 </r>
       <r>   -16.5236     1.5818     0.1044 </r>
       <r>   -16.4576     4.3665     0.3926 </r>
       <r>   -16.3916     4.5870     0.6956 </r>
       <r>   -16.3256     4.1993     0.9731 </r>
       <r>   -16.2596     4.9153     1.2975 </r>
       <r>   -16.1936     4.7255     1.6096 </r>
       <r>   -16.1276     4.7415     1.9231 </r>
       <r>   -16.0616     4.9050     2.2474 </r>
       <r>   -15.9956     4.6444     2.5540 </r>
       <r>   -15.9296     5.2573     2.9010 </r>
       <r>   -15.8636     4.4865     3.1976 </r>
       <r>   -15.7976     4.8029     3.5148 </r>
       <r>   -15.7316     5.3157     3.8667 </r>
       <r>   -15.6656     5.9418     4.2589 </r>
       <r>   -15.5996     5.8033     4.6422 </r>
       <r>   -15.5336     4.9337     4.9680 </r>
       <r>   -15.4676     5.6867     5.3433 </r>
       <r>   -15.4016     6.5730     5.7771 </r>
       <r>   -15.3356     9.8638     6.4285 </r>
       <r>   -15.2696    13.7307     7.3359 </r>
       <r>   -15.2036    15.0463     8.3297 </r>
       <r>   -15.1376    15.8369     9.3752 </r>
       <r>   -15.0716    16.2093    10.4451 </r>
       <r>   -15.0056    15.7557    11.4853 </r>
       <r>   -14.9396    17.4892    12.6398 </r>
       <r>   -14.8736    18.7927    13.8806 </r>
       <r>   -14.8076    20.3126    15.2227 </r>
       <r>   -14.7416    21.2002    16.6221 </r>
       <r>   -14.6756    22.2687    18.0940 </r>
       <r>   -14.6096    26.7199    19.8583 </r>
       <r>   -14.5436    32.2237    21.9864 </r>
       <r>   -14.4776    38.3733    24.5210 </r>
       <r>   -14.4116    31.2125    26.5845 </r>
       <r>   -14.3456    37.0317    29.0304 </r>
       <r>   -14.2796    47.2440    32.1506 </r>
       <r>   -14.2136    31.0283    34.2013 </r>
       <r>   -14.1476    19.8678    35.5153 </r>
       <r>   -14.0816     7.3172    36.0000 </r>
       <r>   -14.0156     0.0000    36.0000 </r>
       <r>   -13.9496     0.0000    36.0000 </r>
       <r>   -13.8836     0.0000    36.0000 </r>
       <r>   -13.8176     0.0000    36.0000 </r>
       <r>   -13.7516     0.0000    36.0000 </r>
       <r>   -13.6856     0.0000    36.0000 </r>
       <r>   -13.6196     0.0000    36.0000 </r>
       <r>   -13.5536     0.0000    36.0000 </r>
       <r>   -13.4876     0.0000    36.0000 </r>
       <r>   -13.4216     0.0000    36.0000 </r>
       <r>   -13.3556     0.0000    36.0000 </r>
       <r>   -13.2896     0.0000    36.0000 </r>
       <r>   -13.2236     0.0000    36.0000 </r>
       <r>   -13.1576     0.0000    36.0000 </r>
       <r>   -13.0916     0.0000    36.0000 </r>
       <r>   -13.0256     0.0000    36.0000 </r>
       <r>   -12.9596     0.0000    36.0000 </r>
       <r>   -12.8936     0.0000    36.0000 </r>
       <r>   -12.8276     0.0000    36.0000 </r>
       <r>   -12.7616     0.0000    36.0000 </r>
       <r>   -12.6956     0.0000    36.0000 </r>
       <r>   -12.6297     0.0000    36.0000 </r>
       <r>   -12.5637     0.0000    36.0000 </r>
       <r>   -12.4977     0.0000    36.0000 </r>
       <r>   -12.4317     0.0000    36.0000 </r>
       <r>   -12.3657     0.0000    36.0000 </r>
       <r>   -12.2997     0.0000    36.0000 </r>
       <r>   -12.2337     0.0000    36.0000 </r>
       <r>   -12.1677     0.0000    36.0000 </r>
       <r>   -12.1017     0.0000    36.0000 </r>
       <r>   -12.0357     0.0000    36.0000 </r>
       <r>   -11.9697     0.0000    36.0000 </r>
       <r>   -11.9037     0.0000    36.0000 </r>
       <r>   -11.8377     0.0000    36.0000 </r>
       <r>   -11.7717     0.0000    36.0000 </r>
       <r>   -11.7057     0.0000    36.0000 </r>
       <r>   -11.6397     0.0000    36.0000 </r>
       <r>   -11.5737     0.0000    36.0000 </r>
       <r>   -11.5077     0.0000    36.0000 </r>
       <r>   -11.4417     0.0000    36.0000 </r>
       <r>   -11.3757     0.0000    36.0000 </r>
       <r>   -11.3097     0.0000    36.0000 </r>
       <r>   -11.2437     0.0000    36.0000 </r>
       <r>   -11.1777     0.0000    36.0000 </r>
       <r>   -11.1117     0.0000    36.0000 </r>
       <r>   -11.0457     0.0000    36.0000 </r>
       <r>   -10.9797     0.0000    36.0000 </r>
       <r>   -10.9137     0.0000    36.0000 </r>
       <r>   -10.8477     0.0000    36.0000 </r>
       <r>   -10.7817     0.0000    36.0000 </r>
       <r>   -10.7157     0.0000    36.0000 </r>
       <r>   -10.6497     0.0000    36.0000 </r>
       <r>   -10.5837     0.0000    36.0000 </r>
       <r>   -10.5177     0.0000    36.0000 </r>
       <r>   -10.4517     0.0000    36.0000 </r>
       <r>   -10.3857     0.0000    36.0000 </r>
       <r>   -10.3197     0.0000    36.0000 </r>
       <r>   -10.2537     0.0000    36.0000 </r>
       <r>   -10.1877     0.0000    36.0000 </r>
       <r>   -10.1217     0.0000    36.0000 </r>
       <r>   -10.0557     0.0000    36.0000 </r>
       <r>    -9.9897     0.0000    36.0000 </r>
       <r>    -9.9237     0.0000    36.0000 </r>
       <r>    -9.8577     0.0000    36.0000 </r>
       <r>    -9.7917     0.0000    36.0000 </r>
       <r>    -9.7257     0.0000    36.0000 </r>
       <r>    -9.6597     0.0000    36.0000 </r>
       <r>    -9.5937     0.0000    36.0000 </r>
       <r>    -9.5277     0.0000    36.0000 </r>
       <r>    -9.4617     0.0000    36.0000 </r>
       <r>    -9.3957     0.0000    36.0000 </r>
       <r>    -9.3297     0.0000    36.0000 </r>
       <r>    -9.2637     0.0000    36.0000 </r>
       <r>    -9.1977     0.0000    36.0000 </r>
       <r>    -9.1317     0.0000    36.0000 </r>
       <r>    -9.0657     0.0000    36.0000 </r>
       <r>    -8.9997     0.0000    36.0000 </r>
       <r>    -8.9337     0.0000    36.0000 </r>
       <r>    -8.8677     0.0000    36.0000 </r>
       <r>    -8.8017     0.0000    36.0000 </r>
       <r>    -8.7357     0.0000    36.0000 </r>
       <r>    -8.6697     0.0000    36.0000 </r>
       <r>    -8.6037     0.0000    36.0000 </r>
       <r>    -8.5377     0.0000    36.0000 </r>
       <r>    -8.4717     0.0000    36.0000 </r>
       <r>    -8.4057     0.0000    36.0000 </r>
       <r>    -8.3397     0.0000    36.0000 </r>
       <r>    -8.2737     0.0000    36.0000 </r>
       <r>    -8.2077     0.0000    36.0000 </r>
       <r>    -8.1417     0.3909    36.0258 </r>
       <r>    -8.0757     6.6035    36.4616 </r>
       <r>    -8.0097     7.7917    36.9759 </r>
       <r>    -7.9437    10.5163    37.6700 </r>
       <r>    -7.8777    10.9164    38.3911 </r>
       <r>    -7.8117    11.2629    39.1360 </r>
       <r>    -7.7457    10.3948    39.8228 </r>
       <r>    -7.6797    12.6558    40.6583 </r>
       <r>    -7.6137    12.8641    41.5083 </r>
       <r>    -7.5477    13.6668    42.4116 </r>
       <r>    -7.4817    12.7059    43.2519 </r>
       <r>    -7.4157    12.8056    44.0974 </r>
       <r>    -7.3497    17.2964    45.2393 </r>
       <r>    -7.2837    22.0893    46.6979 </r>
       <r>    -7.2177    18.6315    47.9289 </r>
       <r>    -7.1517    16.0077    48.9870 </r>
       <r>    -7.0857    22.8066    50.4933 </r>
       <r>    -7.0197    25.8743    52.2021 </r>
       <r>    -6.9537    31.1561    54.2600 </r>
       <r>    -6.8877    39.3435    56.8589 </r>
       <r>    -6.8217    24.0283    58.4480 </r>
       <r>    -6.7557    19.5365    59.7389 </r>
       <r>    -6.6897    11.4768    60.4972 </r>
       <r>    -6.6237     8.9656    61.0891 </r>
       <r>    -6.5577     9.1432    61.6931 </r>
       <r>    -6.4917     5.8513    62.0810 </r>
       <r>    -6.4257     6.4745    62.5083 </r>
       <r>    -6.3597     6.5805    62.9427 </r>
       <r>    -6.2937     7.6618    63.4485 </r>
       <r>    -6.2277    31.4198    65.5222 </r>
       <r>    -6.1618    23.3481    67.0650 </r>
       <r>    -6.0958    23.4736    68.6152 </r>
       <r>    -6.0298    25.4100    70.2933 </r>
       <r>    -5.9638    39.4481    72.8980 </r>
       <r>    -5.8978    42.1612    75.6825 </r>
       <r>    -5.8318    37.1386    78.1350 </r>
       <r>    -5.7658    34.7578    80.4310 </r>
       <r>    -5.6998    10.0608    81.0960 </r>
       <r>    -5.6338     7.4363    81.5881 </r>
       <r>    -5.5678     6.1427    81.9946 </r>
       <r>    -5.5018     7.5936    82.4964 </r>
       <r>    -5.4358    12.8751    83.3468 </r>
       <r>    -5.3698    11.2468    84.0894 </r>
       <r>    -5.3038     9.1131    84.6918 </r>
       <r>    -5.2378    13.9632    85.6139 </r>
       <r>    -5.1718    32.3214    87.7482 </r>
       <r>    -5.1058    44.3899    90.6785 </r>
       <r>    -5.0398    28.2597    92.5454 </r>
       <r>    -4.9738    22.3024    94.0184 </r>
       <r>    -4.9078    24.1548    95.6153 </r>
       <r>    -4.8418    20.8680    96.9937 </r>
       <r>    -4.7758    20.4090    98.3420 </r>
       <r>    -4.7098    27.7805   100.1764 </r>
       <r>    -4.6438    23.4400   101.7247 </r>
       <r>    -4.5778    18.1022   102.9209 </r>
       <r>    -4.5118    18.8287   104.1639 </r>
       <r>    -4.4458    14.8766   105.1466 </r>
       <r>    -4.3798    12.0062   105.9402 </r>
       <r>    -4.3138    16.2162   107.0113 </r>
       <r>    -4.2478    12.9956   107.8695 </r>
       <r>    -4.1818    10.7421   108.5793 </r>
       <r>    -4.1158    22.4374   110.0613 </r>
       <r>    -4.0498    17.6588   111.2281 </r>
       <r>    -3.9838    30.2739   113.2268 </r>
       <r>    -3.9178    53.3246   116.7479 </r>
       <r>    -3.8518    33.1933   118.9420 </r>
       <r>    -3.7858    36.4439   121.3490 </r>
       <r>    -3.7198    28.4342   123.2264 </r>
       <r>    -3.6538    28.0770   125.0829 </r>
       <r>    -3.5878    32.4104   127.2250 </r>
       <r>    -3.5218    32.2989   129.3600 </r>
       <r>    -3.4558    27.8632   131.2003 </r>
       <r>    -3.3898    23.6698   132.7635 </r>
       <r>    -3.3238    21.9250   134.2130 </r>
       <r>    -3.2578    24.0728   135.8019 </r>
       <r>    -3.1918    16.4727   136.8919 </r>
       <r>    -3.1258    19.8458   138.2027 </r>
       <r>    -3.0598    21.3685   139.6133 </r>
       <r>    -2.9938    19.3779   140.8941 </r>
       <r>    -2.9278    19.3002   142.1680 </r>
       <r>    -2.8618    30.2467   144.1650 </r>
       <r>    -2.7958     8.9244   144.7560 </r>
       <r>    -2.7298    10.6306   145.4594 </r>
       <r>    -2.6638    15.5312   146.4855 </r>
       <r>    -2.5978    26.1179   148.2107 </r>
       <r>    -2.5318    34.5622   150.4931 </r>
       <r>    -2.4658    29.6610   152.4521 </r>
       <r>    -2.3998    27.9501   154.2975 </r>
       <r>    -2.3338    26.9501   156.0780 </r>
       <r>    -2.2678    24.8244   157.7176 </r>
       <r>    -2.2018    23.0767   159.2422 </r>
       <r>    -2.1358    11.3434   159.9916 </r>
       <r>    -2.0698     8.7654   160.5707 </r>
       <r>    -2.0038     6.7140   161.0149 </r>
       <r>    -1.9378     5.2629   161.3627 </r>
       <r>    -1.8718     4.3873   161.6524 </r>
       <r>    -1.8058     3.7371   161.8992 </r>
       <r>    -1.7398     1.5280   162.0000 </r>
       <r>    -1.6738     0.0000   162.0000 </r>
       <r>    -1.6078     0.0000   162.0000 </r>
       <r>    -1.5418     0.0000   162.0000 </r>
       <r>    -1.4758     0.0000   162.0000 </r>
       <r>    -1.4098     0.0000   162.0000 </r>
       <r>    -1.3438     0.0000   162.0000 </r>
       <r>    -1.2778     0.0000   162.0000 </r>
       <r>    -1.2118     0.0000   162.0000 </r>
       <r>    -1.1458     0.0000   162.0000 </r>
       <r>    -1.0798     0.0000   162.0000 </r>
       <r>    -1.0138     0.0000   162.0000 </r>
       <r>    -0.9478     0.0000   162.0000 </r>
       <r>    -0.8818     0.0000   162.0000 </r>
       <r>    -0.8158     0.0000   162.0000 </r>
       <r>    -0.7498     0.0000   162.0000 </r>
       <r>    -0.6838     0.0000   162.0000 </r>
       <r>    -0.6178     0.0000   162.0000 </r>
       <r>    -0.5518     0.0000   162.0000 </r>
       <r>    -0.4858     0.0000   162.0000 </r>
       <r>    -0.4198     0.0000   162.0000 </r>
       <r>    -0.3538     0.0000   162.0000 </r>
       <r>    -0.2878     0.0000   162.0000 </r>
       <r>    -0.2218     0.0000   162.0000 </r>
       <r>    -0.1558     0.5319   162.0351 </r>
       <r>    -0.0898    12.7974   162.8797 </r>
       <r>    -0.0238    17.6959   164.0486 </r>
       <r>     0.0422    20.7723   165.4215 </r>
       <r>     0.1082    30.1380   167.4125 </r>
       <r>     0.1742    26.1842   169.1446 </r>
       <r>     0.2402    23.0509   170.6676 </r>
       <r>     0.3062    26.5649   172.4216 </r>
       <r>     0.3721    21.5546   173.8472 </r>
       <r>     0.4381    19.4962   175.1361 </r>
       <r>     0.5041    15.5653   176.1645 </r>
       <r>     0.5701    21.8109   177.6044 </r>
       <r>     0.6361    38.0234   180.1168 </r>
       <r>     0.7021    62.4000   184.2368 </r>
       <r>     0.7681    46.1316   187.2849 </r>
       <r>     0.8341    43.1166   190.1336 </r>
       <r>     0.9001    37.4087   192.6064 </r>
       <r>     0.9661    39.3004   195.2020 </r>
       <r>     1.0321    47.3651   198.3307 </r>
       <r>     1.0981    36.2482   200.7263 </r>
       <r>     1.1641    25.8187   202.4325 </r>
       <r>     1.2301    12.8968   203.2843 </r>
       <r>     1.2961     7.1453   203.7562 </r>
       <r>     1.3621     2.6423   203.9314 </r>
       <r>     1.4281     0.9647   203.9955 </r>
       <r>     1.4941     0.0687   204.0000 </r>
       <r>     1.5601     0.0000   204.0000 </r>
       <r>     1.6261     0.0000   204.0000 </r>
       <r>     1.6921     0.0000   204.0000 </r>
       <r>     1.7581     0.0000   204.0000 </r>
       <r>     1.8241     0.0000   204.0000 </r>
       <r>     1.8901     0.0000   204.0000 </r>
       <r>     1.9561     0.0000   204.0000 </r>
       <r>     2.0221     0.0000   204.0000 </r>
       <r>     2.0881     0.0000   204.0000 </r>
       <r>     2.1541     0.0000   204.0000 </r>
       <r>     2.2201     0.0000   204.0000 </r>
       <r>     2.2861     0.0000   204.0000 </r>
       <r>     2.3521     0.0000   204.0000 </r>
      </set>
     </set>
    </array>
   </total>
  </dos>
 </calculation>
 <structure name="finalpos" >
  <crystal>
   <varray name="basis" >
    <v>       9.84600000       0.00000000       0.00000000 </v>
    <v>       4.92300000       8.52144000       0.00000000 </v>
    <v>       0.00000000       0.00000000      20.00000000 </v>
   </varray>
   <i name="volume">   1678.04196480 </i>
   <varray name="rec_basis" >
    <v>       0.10156409      -0.05867553       0.00000000 </v>
    <v>       0.00000000       0.11735106       0.00000000 </v>
    <v>       0.00000000       0.00000000       0.05000000 </v>
   </varray>
  </crystal>
  <varray name="positions" >
   <v>       0.33330000       0.00006700       0.00000000 </v>
   <v>       0.66663300       0.00006700       0.00000000 </v>
   <v>       0.99996700       0.00006700       0.00000000 </v>
   <v>       0.33330000       0.33340000       0.00000000 </v>
   <v>       0.66663300       0.33340000       0.00000000 </v>
   <v>       0.99996700       0.33340000       0.00000000 </v>
   <v>       0.33330000       0.66673300       0.00000000 </v>
   <v>       0.66663300       0.66673300       0.00000000 </v>
   <v>       0.99996700       0.66673300       0.00000000 </v>
   <v>       0.11109200       0.11216500       0.91545900 </v>
   <v>       0.44442600       0.11114900       0.91545900 </v>
   <v>       0.77775900       0.11114900       0.91545900 </v>
   <v>       0.11109200       0.44448200       0.91545900 </v>
   <v>       0.44442600       0.44448200       0.91545900 </v>
   <v>       0.77775900       0.44448200       0.91545900 </v>
   <v>       0.11109200       0.77781500       0.91545900 </v>
   <v>       0.44442600       0.77781500       0.91545900 </v>
   <v>       0.77775900       0.77781500       0.91545900 </v>
   <v>       0.11109200       0.11114900       0.08454100 </v>
   <v>       0.44442600       0.11114900       0.08454100 </v>
   <v>       0.77775900       0.11114900       0.08454100 </v>
   <v>       0.11109200       0.44448200       0.08454100 </v>
   <v>       0.44442600       0.44448200       0.08454100 </v>
   <v>       0.77775900       0.44448200       0.08454100 </v>
   <v>       0.11109200       0.77781500       0.08454100 </v>
   <v>       0.44442600       0.77781500       0.08454100 </v>
   <v>       0.77775900       0.77781500       0.08454100 </v>
  </varray>
 </structure>
</modeling>
