mesh: [    42,    42,     1 ]
nqpoint: 169    
reciprocal_lattice:
- [   0.23474178,  -0.40658472,   0.00000000 ] # a*
- [   0.23474178,   0.40658472,   0.00000000 ] # b*
- [   0.00000000,   0.00000000,   0.05000000 ] # c*
natom:   4      
lattice:
- [     2.130000000000000,    -1.229756000000000,     0.000000000000000 ] # a
- [     2.130000000000000,     1.229756000000000,     0.000000000000000 ] # b
- [     0.000000000000000,     0.000000000000000,    20.000000000000000 ] # c
points:
- symbol: C  # 1
  coordinates: [  0.000000000000000,  0.000000000000000,  0.000000000000000 ]
  mass: 12.010700
- symbol: C  # 2
  coordinates: [  0.333333000000000,  0.333333000000000,  0.000000000000000 ]
  mass: 12.010700
- symbol: C  # 3
  coordinates: [  0.000000000000000,  0.000000000000000,  0.221934000000000 ]
  mass: 12.010700
- symbol: C  # 4
  coordinates: [  0.333333000000000,  0.333333000000000,  0.221934000000000 ]
  mass: 12.010700

phonon:
- q-position: [    0.0000000,    0.0000000,    0.0000000 ]
  distance_from_gamma:  0.000000000
  weight: 1    
  band:
  - # 1
    frequency:    -0.1997621626
  - # 2
    frequency:    -0.1997621471
  - # 3
    frequency:    -0.0043169025
  - # 4
    frequency:    -0.0043169022
  - # 5
    frequency:    -0.0000003804
  - # 6
    frequency:     0.5793629719
  - # 7
    frequency:    26.1457265127
  - # 8
    frequency:    26.1489457941
  - # 9
    frequency:    47.0272695732
  - # 10
    frequency:    47.0272732182
  - # 11
    frequency:    47.4575239698
  - # 12
    frequency:    47.4575276481

- q-position: [    0.0238095,    0.0000000,    0.0000000 ]
  distance_from_gamma:  0.011178181
  weight: 6    
  band:
  - # 1
    frequency:    -0.3062261587
  - # 2
    frequency:     0.4919969625
  - # 3
    frequency:     1.4561403883
  - # 4
    frequency:     1.4655708746
  - # 5
    frequency:     2.4409280651
  - # 6
    frequency:     2.4442267093
  - # 7
    frequency:    26.1375295097
  - # 8
    frequency:    26.1407048510
  - # 9
    frequency:    47.0149805832
  - # 10
    frequency:    47.0469759093
  - # 11
    frequency:    47.4401167233
  - # 12
    frequency:    47.4720847793

- q-position: [    0.0476190,    0.0000000,    0.0000000 ]
  distance_from_gamma:  0.022356361
  weight: 6    
  band:
  - # 1
    frequency:    -0.5832795055
  - # 2
    frequency:    -0.0616643200
  - # 3
    frequency:     2.9201683877
  - # 4
    frequency:     2.9214746229
  - # 5
    frequency:     4.8780092795
  - # 6
    frequency:     4.8832362723
  - # 7
    frequency:    26.1121482178
  - # 8
    frequency:    26.1151927672
  - # 9
    frequency:    46.9772572961
  - # 10
    frequency:    47.1040028654
  - # 11
    frequency:    47.3873219169
  - # 12
    frequency:    47.5139810994

- q-position: [    0.0714286,    0.0000000,    0.0000000 ]
  distance_from_gamma:  0.033534542
  weight: 6    
  band:
  - # 1
    frequency:    -0.7979995913
  - # 2
    frequency:    -0.5471898146
  - # 3
    frequency:     4.3531134148
  - # 4
    frequency:     4.3600460622
  - # 5
    frequency:     7.2911802981
  - # 6
    frequency:     7.3014099426
  - # 7
    frequency:    26.0672701378
  - # 8
    frequency:    26.0701000494
  - # 9
    frequency:    46.9116323075
  - # 10
    frequency:    47.1922628154
  - # 11
    frequency:    47.2974992301
  - # 12
    frequency:    47.5780137257

- q-position: [    0.0952381,    0.0000000,    0.0000000 ]
  distance_from_gamma:  0.044712723
  weight: 6    
  band:
  - # 1
    frequency:    -0.9046590731
  - # 2
    frequency:    -0.6925535973
  - # 3
    frequency:     5.7543568601
  - # 4
    frequency:     5.7650030396
  - # 5
    frequency:     9.6740545247
  - # 6
    frequency:     9.6874720893
  - # 7
    frequency:    25.9992290769
  - # 8
    frequency:    26.0017652642
  - # 9
    frequency:    46.8143137935
  - # 10
    frequency:    47.1681625576
  - # 11
    frequency:    47.3020996812
  - # 12
    frequency:    47.6559130122

- q-position: [    0.1190476,    0.0000000,    0.0000000 ]
  distance_from_gamma:  0.055890903
  weight: 6    
  band:
  - # 1
    frequency:    -0.8158141553
  - # 2
    frequency:    -0.5700444370
  - # 3
    frequency:     7.1147376288
  - # 4
    frequency:     7.1276766235
  - # 5
    frequency:    12.0176652572
  - # 6
    frequency:    12.0326003661
  - # 7
    frequency:    25.9032658174
  - # 8
    frequency:    25.9054353767
  - # 9
    frequency:    46.6806357360
  - # 10
    frequency:    46.9963305581
  - # 11
    frequency:    47.4209719451
  - # 12
    frequency:    47.7368962425

- q-position: [    0.1428571,    0.0000000,    0.0000000 ]
  distance_from_gamma:  0.067069084
  weight: 6    
  band:
  - # 1
    frequency:     0.2912721451
  - # 2
    frequency:     0.6539940846
  - # 3
    frequency:     8.4262106929
  - # 4
    frequency:     8.4401279135
  - # 5
    frequency:    14.3139497955
  - # 6
    frequency:    14.3286993061
  - # 7
    frequency:    25.7738554659
  - # 8
    frequency:    25.7755927156
  - # 9
    frequency:    46.5056303809
  - # 10
    frequency:    46.7789763959
  - # 11
    frequency:    47.5342900951
  - # 12
    frequency:    47.8083562460

- q-position: [    0.1666667,    0.0000000,    0.0000000 ]
  distance_from_gamma:  0.078247265
  weight: 6    
  band:
  - # 1
    frequency:     1.3140521089
  - # 2
    frequency:     1.4395501546
  - # 3
    frequency:     9.6820103552
  - # 4
    frequency:     9.6956582852
  - # 5
    frequency:    16.5558924663
  - # 6
    frequency:    16.5687550535
  - # 7
    frequency:    25.6050738034
  - # 8
    frequency:    25.6063209362
  - # 9
    frequency:    46.2846765840
  - # 10
    frequency:    46.5135430082
  - # 11
    frequency:    47.6263252348
  - # 12
    frequency:    47.8566169874

- q-position: [    0.1904762,    0.0000000,    0.0000000 ]
  distance_from_gamma:  0.089425446
  weight: 6    
  band:
  - # 1
    frequency:     2.1379333725
  - # 2
    frequency:     2.2179819771
  - # 3
    frequency:    10.8767295305
  - # 4
    frequency:    10.8889892176
  - # 5
    frequency:    18.7376151778
  - # 6
    frequency:    18.7469858908
  - # 7
    frequency:    25.3909776470
  - # 8
    frequency:    25.3916850341
  - # 9
    frequency:    46.0141765872
  - # 10
    frequency:    46.1984881920
  - # 11
    frequency:    47.6811068725
  - # 12
    frequency:    47.8676902691

- q-position: [    0.2142857,    0.0000000,    0.0000000 ]
  distance_from_gamma:  0.100603626
  weight: 6    
  band:
  - # 1
    frequency:     2.9881115620
  - # 2
    frequency:     3.0464684710
  - # 3
    frequency:    12.0062947929
  - # 4
    frequency:    12.0162766922
  - # 5
    frequency:    20.8544085472
  - # 6
    frequency:    20.8588929740
  - # 7
    frequency:    25.1259806406
  - # 8
    frequency:    25.1261068494
  - # 9
    frequency:    45.6922178493
  - # 10
    frequency:    45.8338253890
  - # 11
    frequency:    47.6832424695
  - # 12
    frequency:    47.8279773042

- q-position: [    0.2380952,    0.0000000,    0.0000000 ]
  distance_from_gamma:  0.111781807
  weight: 6    
  band:
  - # 1
    frequency:     3.8855640428
  - # 2
    frequency:     3.9310977637
  - # 3
    frequency:    13.0678187888
  - # 4
    frequency:    13.0749742871
  - # 5
    frequency:    22.9012282136
  - # 6
    frequency:    22.9026995861
  - # 7
    frequency:    24.8047264431
  - # 8
    frequency:    24.8052149203
  - # 9
    frequency:    45.3191835105
  - # 10
    frequency:    45.4216297355
  - # 11
    frequency:    47.6186107597
  - # 12
    frequency:    47.7248729611

- q-position: [    0.2619048,    0.0000000,    0.0000000 ]
  distance_from_gamma:  0.122959988
  weight: 6    
  band:
  - # 1
    frequency:     4.8312727915
  - # 2
    frequency:     4.8683747168
  - # 3
    frequency:    14.0593171668
  - # 4
    frequency:    14.0635373070
  - # 5
    frequency:    24.4237492894
  - # 6
    frequency:    24.4248751787
  - # 7
    frequency:    24.8718856933
  - # 8
    frequency:    24.8799607053
  - # 9
    frequency:    44.8982823505
  - # 10
    frequency:    44.9664829825
  - # 11
    frequency:    47.4749007121
  - # 12
    frequency:    47.5472457377

- q-position: [    0.2857143,    0.0000000,    0.0000000 ]
  distance_from_gamma:  0.134138168
  weight: 6    
  band:
  - # 1
    frequency:     5.8199698037
  - # 2
    frequency:     5.8511500075
  - # 3
    frequency:    14.9792881243
  - # 4
    frequency:    14.9809656098
  - # 5
    frequency:    23.9808038551
  - # 6
    frequency:    23.9825890471
  - # 7
    frequency:    26.7697140811
  - # 8
    frequency:    26.7845363082
  - # 9
    frequency:    44.4359738906
  - # 10
    frequency:    44.4758331049
  - # 11
    frequency:    47.2419854053
  - # 12
    frequency:    47.2857806929

- q-position: [    0.3095238,    0.0000000,    0.0000000 ]
  distance_from_gamma:  0.145316349
  weight: 6    
  band:
  - # 1
    frequency:     6.8432358086
  - # 2
    frequency:     6.8700637050
  - # 3
    frequency:    15.8261709888
  - # 4
    frequency:    15.8262015374
  - # 5
    frequency:    23.4753255792
  - # 6
    frequency:    23.4777785023
  - # 7
    frequency:    28.5942826168
  - # 8
    frequency:    28.6154692368
  - # 9
    frequency:    43.9422636084
  - # 10
    frequency:    43.9602422787
  - # 11
    frequency:    46.9121338897
  - # 12
    frequency:    46.9331844965

- q-position: [    0.3333333,    0.0000000,    0.0000000 ]
  distance_from_gamma:  0.156494530
  weight: 6    
  band:
  - # 1
    frequency:     7.8902543912
  - # 2
    frequency:     7.9137763195
  - # 3
    frequency:    16.5974303162
  - # 4
    frequency:    16.5977279516
  - # 5
    frequency:    22.9090806297
  - # 6
    frequency:    22.9122026723
  - # 7
    frequency:    30.3455806016
  - # 8
    frequency:    30.3722279361
  - # 9
    frequency:    43.4308338401
  - # 10
    frequency:    43.4334876232
  - # 11
    frequency:    46.4800747594
  - # 12
    frequency:    46.4842614625

- q-position: [    0.3571429,    0.0000000,    0.0000000 ]
  distance_from_gamma:  0.167672710
  weight: 6    
  band:
  - # 1
    frequency:     8.9475924535
  - # 2
    frequency:     8.9685439158
  - # 3
    frequency:    17.2904311012
  - # 4
    frequency:    17.2913738583
  - # 5
    frequency:    22.2869611238
  - # 6
    frequency:    22.2907435690
  - # 7
    frequency:    32.0236964826
  - # 8
    frequency:    32.0544484112
  - # 9
    frequency:    42.9124603912
  - # 10
    frequency:    42.9189550642
  - # 11
    frequency:    45.9358781473
  - # 12
    frequency:    45.9429346530

- q-position: [    0.3809524,    0.0000000,    0.0000000 ]
  distance_from_gamma:  0.178850891
  weight: 6    
  band:
  - # 1
    frequency:     9.9980797356
  - # 2
    frequency:    10.0170057982
  - # 3
    frequency:    17.8989829031
  - # 4
    frequency:    17.9027222466
  - # 5
    frequency:    21.6184141060
  - # 6
    frequency:    21.6228344476
  - # 7
    frequency:    33.6284685868
  - # 8
    frequency:    33.6616450814
  - # 9
    frequency:    42.4167817341
  - # 10
    frequency:    42.4270898930
  - # 11
    frequency:    45.2868454418
  - # 12
    frequency:    45.3000883127

- q-position: [    0.4047619,    0.0000000,    0.0000000 ]
  distance_from_gamma:  0.190029072
  weight: 6    
  band:
  - # 1
    frequency:    11.0181690505
  - # 2
    frequency:    11.0355011078
  - # 3
    frequency:    18.4161410971
  - # 4
    frequency:    18.4238989063
  - # 5
    frequency:    20.9202624887
  - # 6
    frequency:    20.9252773921
  - # 7
    frequency:    35.1590911610
  - # 8
    frequency:    35.1928927226
  - # 9
    frequency:    41.9680253630
  - # 10
    frequency:    41.9780669629
  - # 11
    frequency:    44.5377730815
  - # 12
    frequency:    44.5529903877

- q-position: [    0.4285714,    0.0000000,    0.0000000 ]
  distance_from_gamma:  0.201207252
  weight: 6    
  band:
  - # 1
    frequency:    11.9721534009
  - # 2
    frequency:    11.9882658000
  - # 3
    frequency:    18.8330327030
  - # 4
    frequency:    18.8453760871
  - # 5
    frequency:    20.2226016351
  - # 6
    frequency:    20.2281347093
  - # 7
    frequency:    36.6135291733
  - # 8
    frequency:    36.6463708191
  - # 9
    frequency:    41.5884333457
  - # 10
    frequency:    41.5956904179
  - # 11
    frequency:    43.6910455163
  - # 12
    frequency:    43.7051842468

- q-position: [    0.4523810,    0.0000000,    0.0000000 ]
  distance_from_gamma:  0.212385433
  weight: 6    
  band:
  - # 1
    frequency:    12.8001225930
  - # 2
    frequency:    12.8153784837
  - # 3
    frequency:    19.1400827820
  - # 4
    frequency:    19.1566963029
  - # 5
    frequency:    19.5809166102
  - # 6
    frequency:    19.5868426187
  - # 7
    frequency:    37.9869274181
  - # 8
    frequency:    38.0181615978
  - # 9
    frequency:    41.2990728201
  - # 10
    frequency:    41.3027120942
  - # 11
    frequency:    42.7515680685
  - # 12
    frequency:    42.7633489476

- q-position: [    0.4761905,    0.0000000,    0.0000000 ]
  distance_from_gamma:  0.223563614
  weight: 6    
  band:
  - # 1
    frequency:    13.3988886469
  - # 2
    frequency:    13.4136601863
  - # 3
    frequency:    19.0952049869
  - # 4
    frequency:    19.1013513806
  - # 5
    frequency:    19.3285107433
  - # 6
    frequency:    19.3481604615
  - # 7
    frequency:    39.2619852978
  - # 8
    frequency:    39.2949492688
  - # 9
    frequency:    41.1175495771
  - # 10
    frequency:    41.1182803769
  - # 11
    frequency:    41.7336720139
  - # 12
    frequency:    41.7464545657

- q-position: [    0.5000000,    0.0000000,    0.0000000 ]
  distance_from_gamma:  0.234741795
  weight: 3    
  band:
  - # 1
    frequency:    13.6254071083
  - # 2
    frequency:    13.6400330299
  - # 3
    frequency:    18.9065858596
  - # 4
    frequency:    18.9127921688
  - # 5
    frequency:    19.3920755980
  - # 6
    frequency:    19.4128253388
  - # 7
    frequency:    40.1603086054
  - # 8
    frequency:    40.2257426516
  - # 9
    frequency:    40.8890865291
  - # 10
    frequency:    40.9340489547
  - # 11
    frequency:    41.0552835097
  - # 12
    frequency:    41.0556550949

- q-position: [    0.0476190,    0.0238095,    0.0000000 ]
  distance_from_gamma:  0.019361176
  weight: 6    
  band:
  - # 1
    frequency:    -0.5136801624
  - # 2
    frequency:     0.2689841544
  - # 3
    frequency:     2.5391312083
  - # 4
    frequency:     2.5396513085
  - # 5
    frequency:     4.2229355315
  - # 6
    frequency:     4.2262684802
  - # 7
    frequency:    26.1207392970
  - # 8
    frequency:    26.1238272737
  - # 9
    frequency:    46.9900001312
  - # 10
    frequency:    47.0853085923
  - # 11
    frequency:    47.4050625119
  - # 12
    frequency:    47.5002595765

- q-position: [    0.0714286,    0.0238095,    0.0000000 ]
  distance_from_gamma:  0.029574686
  weight: 12   
  band:
  - # 1
    frequency:    -0.7317166812
  - # 2
    frequency:    -0.4454370455
  - # 3
    frequency:     3.8675214161
  - # 4
    frequency:     3.8732630860
  - # 5
    frequency:     6.4278552562
  - # 6
    frequency:     6.4362100821
  - # 7
    frequency:    26.0856013603
  - # 8
    frequency:    26.0885166334
  - # 9
    frequency:    46.9383777151
  - # 10
    frequency:    47.1578497365
  - # 11
    frequency:    47.3338686334
  - # 12
    frequency:    47.5530690398

- q-position: [    0.0952381,    0.0238095,    0.0000000 ]
  distance_from_gamma:  0.040303503
  weight: 12   
  band:
  - # 1
    frequency:    -0.8801262448
  - # 2
    frequency:    -0.6606384537
  - # 3
    frequency:     5.2354895774
  - # 4
    frequency:     5.2456253649
  - # 5
    frequency:     8.7204247957
  - # 6
    frequency:     8.7322670408
  - # 7
    frequency:    26.0291153854
  - # 8
    frequency:    26.0317765118
  - # 9
    frequency:    46.8569416205
  - # 10
    frequency:    47.2244303097
  - # 11
    frequency:    47.2566972781
  - # 12
    frequency:    47.6237621865

- q-position: [    0.1190476,    0.0238095,    0.0000000 ]
  distance_from_gamma:  0.051224859
  weight: 12   
  band:
  - # 1
    frequency:    -0.8884477862
  - # 2
    frequency:    -0.6704846308
  - # 3
    frequency:     6.5914930611
  - # 4
    frequency:     6.6045973328
  - # 5
    frequency:    11.0207717596
  - # 6
    frequency:    11.0345935201
  - # 7
    frequency:    25.9470550353
  - # 8
    frequency:    25.9493860572
  - # 9
    frequency:    46.7414098024
  - # 10
    frequency:    47.0739668579
  - # 11
    frequency:    47.3707110384
  - # 12
    frequency:    47.7027836279

- q-position: [    0.1428571,    0.0238095,    0.0000000 ]
  distance_from_gamma:  0.062237476
  weight: 12   
  band:
  - # 1
    frequency:    -0.5818223570
  - # 2
    frequency:     0.0576498243
  - # 3
    frequency:     7.9137081098
  - # 4
    frequency:     7.9284431829
  - # 5
    frequency:    13.2981770860
  - # 6
    frequency:    13.3123791847
  - # 7
    frequency:    25.8342644680
  - # 8
    frequency:    25.8361961394
  - # 9
    frequency:    46.5869050302
  - # 10
    frequency:    46.8794213243
  - # 11
    frequency:    47.4862783800
  - # 12
    frequency:    47.7784035321

- q-position: [    0.1666667,    0.0238095,    0.0000000 ]
  distance_from_gamma:  0.073300232
  weight: 12   
  band:
  - # 1
    frequency:     0.9252239240
  - # 2
    frequency:     1.0956152253
  - # 3
    frequency:     9.1893548278
  - # 4
    frequency:     9.2044104979
  - # 5
    frequency:    15.5360955556
  - # 6
    frequency:    15.5490213100
  - # 7
    frequency:    25.6850074018
  - # 8
    frequency:    25.6864780253
  - # 9
    frequency:    46.3885694515
  - # 10
    frequency:    46.6379451061
  - # 11
    frequency:    47.5881945803
  - # 12
    frequency:    47.8374464788

- q-position: [    0.1904762,    0.0238095,    0.0000000 ]
  distance_from_gamma:  0.084393413
  weight: 12   
  band:
  - # 1
    frequency:     1.7596158357
  - # 2
    frequency:     1.8556669199
  - # 3
    frequency:    10.4097644464
  - # 4
    frequency:    10.4239060123
  - # 5
    frequency:    17.7237832258
  - # 6
    frequency:    17.7338096469
  - # 7
    frequency:    25.4933418937
  - # 8
    frequency:    25.4942977884
  - # 9
    frequency:    46.1422318635
  - # 10
    frequency:    46.3474316458
  - # 11
    frequency:    47.6605717401
  - # 12
    frequency:    47.8660524142

- q-position: [    0.2142857,    0.0238095,    0.0000000 ]
  distance_from_gamma:  0.095506417
  weight: 12   
  band:
  - # 1
    frequency:     2.5870860416
  - # 2
    frequency:     2.6539729261
  - # 3
    frequency:    11.5688185597
  - # 4
    frequency:    11.5809820031
  - # 5
    frequency:    19.8536573229
  - # 6
    frequency:    19.8593090994
  - # 7
    frequency:    25.2534987235
  - # 8
    frequency:    25.2538943756
  - # 9
    frequency:    45.8450810726
  - # 10
    frequency:    46.0070627107
  - # 11
    frequency:    47.6877017570
  - # 12
    frequency:    47.8504094595

- q-position: [    0.2380952,    0.0238095,    0.0000000 ]
  distance_from_gamma:  0.106633047
  weight: 12   
  band:
  - # 1
    frequency:     3.4569392890
  - # 2
    frequency:     3.5077940845
  - # 3
    frequency:    12.6622584118
  - # 4
    frequency:    12.6716646401
  - # 5
    frequency:    21.9202585180
  - # 6
    frequency:    21.9203268444
  - # 7
    frequency:    24.9600470224
  - # 8
    frequency:    24.9602490683
  - # 9
    frequency:    45.4963051280
  - # 10
    frequency:    45.6178346008
  - # 11
    frequency:    47.6548156479
  - # 12
    frequency:    47.7774094047

- q-position: [    0.2619048,    0.0238095,    0.0000000 ]
  distance_from_gamma:  0.117769441
  weight: 12   
  band:
  - # 1
    frequency:     4.3759522681
  - # 2
    frequency:     4.4166752075
  - # 3
    frequency:    13.6872054349
  - # 4
    frequency:    13.6934717750
  - # 5
    frequency:    23.9133830936
  - # 6
    frequency:    23.9197300459
  - # 7
    frequency:    24.6084279044
  - # 8
    frequency:    24.6092579702
  - # 9
    frequency:    45.0976637886
  - # 10
    frequency:    45.1830359323
  - # 11
    frequency:    47.5487012966
  - # 12
    frequency:    47.6351913731

- q-position: [    0.2857143,    0.0238095,    0.0000000 ]
  distance_from_gamma:  0.128913068
  weight: 12   
  band:
  - # 1
    frequency:     5.3411092488
  - # 2
    frequency:     5.3748966637
  - # 3
    frequency:    14.6416802896
  - # 4
    frequency:    14.6449067443
  - # 5
    frequency:    24.1959454089
  - # 6
    frequency:    24.1974224619
  - # 7
    frequency:    25.8363440832
  - # 8
    frequency:    25.8494775107
  - # 9
    frequency:    44.6539680307
  - # 10
    frequency:    44.7086521341
  - # 11
    frequency:    47.3581604141
  - # 12
    frequency:    47.4135539125

- q-position: [    0.3095238,    0.0238095,    0.0000000 ]
  distance_from_gamma:  0.140062202
  weight: 12   
  band:
  - # 1
    frequency:     6.3453437948
  - # 2
    frequency:     6.3741252216
  - # 3
    frequency:    15.5240507283
  - # 4
    frequency:    15.5248571902
  - # 5
    frequency:    23.7211140939
  - # 6
    frequency:    23.7232543286
  - # 7
    frequency:    27.6880852422
  - # 8
    frequency:    27.7078524182
  - # 9
    frequency:    44.1734429058
  - # 10
    frequency:    44.2036722339
  - # 11
    frequency:    47.0743010724
  - # 12
    frequency:    47.1042288057

- q-position: [    0.3333333,    0.0238095,    0.0000000 ]
  distance_from_gamma:  0.151215625
  weight: 12   
  band:
  - # 1
    frequency:     7.3790286123
  - # 2
    frequency:     7.4040571576
  - # 3
    frequency:    16.3318970818
  - # 4
    frequency:    16.3324054724
  - # 5
    frequency:    23.1844868740
  - # 6
    frequency:    23.1872961527
  - # 7
    frequency:    29.4681627933
  - # 8
    frequency:    29.4938829016
  - # 9
    frequency:    43.6679454818
  - # 10
    frequency:    43.6802682054
  - # 11
    frequency:    46.6906742563
  - # 12
    frequency:    46.7010206041

- q-position: [    0.3571429,    0.0238095,    0.0000000 ]
  distance_from_gamma:  0.162372453
  weight: 12   
  band:
  - # 1
    frequency:     8.4301547960
  - # 2
    frequency:     8.4522912677
  - # 3
    frequency:    17.0635445016
  - # 4
    frequency:    17.0639011854
  - # 5
    frequency:    22.5892856606
  - # 6
    frequency:    22.5927609360
  - # 7
    frequency:    31.1764611890
  - # 8
    frequency:    31.2069628929
  - # 9
    frequency:    43.1529947627
  - # 10
    frequency:    43.1538033892
  - # 11
    frequency:    46.1998248129
  - # 12
    frequency:    46.2032726018

- q-position: [    0.3809524,    0.0238095,    0.0000000 ]
  distance_from_gamma:  0.173532029
  weight: 12   
  band:
  - # 1
    frequency:     9.4836855608
  - # 2
    frequency:     9.5035521127
  - # 3
    frequency:    17.7141796249
  - # 4
    frequency:    17.7155843404
  - # 5
    frequency:    21.9424494568
  - # 6
    frequency:    21.9465760961
  - # 7
    frequency:    32.8128343208
  - # 8
    frequency:    32.8465543080
  - # 9
    frequency:    42.6426029076
  - # 10
    frequency:    42.6475434235
  - # 11
    frequency:    45.5985468665
  - # 12
    frequency:    45.6104199895

- q-position: [    0.4047619,    0.0238095,    0.0000000 ]
  distance_from_gamma:  0.184693856
  weight: 12   
  band:
  - # 1
    frequency:    10.5198009755
  - # 2
    frequency:    10.5378737070
  - # 3
    frequency:    18.2770022765
  - # 4
    frequency:    18.2816236772
  - # 5
    frequency:    21.2566171772
  - # 6
    frequency:    21.2613638516
  - # 7
    frequency:    34.3767268564
  - # 8
    frequency:    34.4118761577
  - # 9
    frequency:    42.1673892404
  - # 10
    frequency:    42.1733850924
  - # 11
    frequency:    44.8969597264
  - # 12
    frequency:    44.9126006191

- q-position: [    0.4285714,    0.0238095,    0.0000000 ]
  distance_from_gamma:  0.195857548
  weight: 12   
  band:
  - # 1
    frequency:    11.5099831567
  - # 2
    frequency:    11.5266557257
  - # 3
    frequency:    18.7442847636
  - # 4
    frequency:    18.7530913071
  - # 5
    frequency:    20.5541814912
  - # 6
    frequency:    20.5594907463
  - # 7
    frequency:    35.8667132305
  - # 8
    frequency:    35.9015399876
  - # 9
    frequency:    41.7502653279
  - # 10
    frequency:    41.7540616444
  - # 11
    frequency:    44.0965837647
  - # 12
    frequency:    44.1123383067

- q-position: [    0.4523810,    0.0238095,    0.0000000 ]
  distance_from_gamma:  0.207022803
  weight: 12   
  band:
  - # 1
    frequency:    12.4085802551
  - # 2
    frequency:    12.4242144034
  - # 3
    frequency:    19.1066984833
  - # 4
    frequency:    19.1198820489
  - # 5
    frequency:    19.8758139259
  - # 6
    frequency:    19.8815873316
  - # 7
    frequency:    37.2796199661
  - # 8
    frequency:    37.3128891428
  - # 9
    frequency:    41.4131475501
  - # 10
    frequency:    41.4131485527
  - # 11
    frequency:    43.2008725570
  - # 12
    frequency:    43.2145116867

- q-position: [    0.4761905,    0.0238095,    0.0000000 ]
  distance_from_gamma:  0.218189382
  weight: 12   
  band:
  - # 1
    frequency:    13.1366181703
  - # 2
    frequency:    13.1515808782
  - # 3
    frequency:    19.2967113216
  - # 4
    frequency:    19.3027973350
  - # 5
    frequency:    19.3548953260
  - # 6
    frequency:    19.3717244053
  - # 7
    frequency:    38.6070730556
  - # 8
    frequency:    38.6394528316
  - # 9
    frequency:    41.1718686093
  - # 10
    frequency:    41.1756531549
  - # 11
    frequency:    42.2173475473
  - # 12
    frequency:    42.2293526722

- q-position: [    0.5000000,    0.0238095,    0.0000000 ]
  distance_from_gamma:  0.229357091
  weight: 12   
  band:
  - # 1
    frequency:    13.5662146064
  - # 2
    frequency:    13.5808696246
  - # 3
    frequency:    18.9422193698
  - # 4
    frequency:    18.9484405253
  - # 5
    frequency:    19.4811809253
  - # 6
    frequency:    19.5000845191
  - # 7
    frequency:    39.7987331007
  - # 8
    frequency:    39.8427851782
  - # 9
    frequency:    41.0439198495
  - # 10
    frequency:    41.0515602704
  - # 11
    frequency:    41.1865494037
  - # 12
    frequency:    41.2112883552

- q-position: [    0.0952381,    0.0476190,    0.0000000 ]
  distance_from_gamma:  0.038722353
  weight: 6    
  band:
  - # 1
    frequency:    -0.8658264192
  - # 2
    frequency:    -0.6416184527
  - # 3
    frequency:     5.0673835676
  - # 4
    frequency:     5.0778121449
  - # 5
    frequency:     8.3651360016
  - # 6
    frequency:     8.3759965490
  - # 7
    frequency:    26.0388355517
  - # 8
    frequency:    26.0415386387
  - # 9
    frequency:    46.8710144609
  - # 10
    frequency:    47.2407842104
  - # 11
    frequency:    47.2432400492
  - # 12
    frequency:    47.6122595382

- q-position: [    0.1190476,    0.0476190,    0.0000000 ]
  distance_from_gamma:  0.048724559
  weight: 12   
  band:
  - # 1
    frequency:    -0.9068219754
  - # 2
    frequency:    -0.6949371855
  - # 3
    frequency:     6.3511633285
  - # 4
    frequency:     6.3653903438
  - # 5
    frequency:    10.4564951572
  - # 6
    frequency:    10.4688026862
  - # 7
    frequency:    25.9682646379
  - # 8
    frequency:    25.9706772809
  - # 9
    frequency:    46.7713963113
  - # 10
    frequency:    47.1129301107
  - # 11
    frequency:    47.3433600279
  - # 12
    frequency:    47.6834868866

- q-position: [    0.1428571,    0.0476190,    0.0000000 ]
  distance_from_gamma:  0.059149371
  weight: 12   
  band:
  - # 1
    frequency:    -0.7348774052
  - # 2
    frequency:    -0.4458833314
  - # 3
    frequency:     7.6475111412
  - # 4
    frequency:     7.6642749033
  - # 5
    frequency:    12.6022553249
  - # 6
    frequency:    12.6147127406
  - # 7
    frequency:    25.8692370011
  - # 8
    frequency:    25.8712869823
  - # 9
    frequency:    46.6349005521
  - # 10
    frequency:    46.9399558189
  - # 11
    frequency:    47.4532880289
  - # 12
    frequency:    47.7562073667

- q-position: [    0.1666667,    0.0476190,    0.0000000 ]
  distance_from_gamma:  0.069807715
  weight: 12   
  band:
  - # 1
    frequency:     0.5939667668
  - # 2
    frequency:     0.8344568466
  - # 3
    frequency:     8.9223497045
  - # 4
    frequency:     8.9402483773
  - # 5
    frequency:    14.7539852391
  - # 6
    frequency:    14.7651407028
  - # 7
    frequency:    25.7363587097
  - # 8
    frequency:    25.7379808619
  - # 9
    frequency:    46.4566255205
  - # 10
    frequency:    46.7213128843
  - # 11
    frequency:    47.5562525900
  - # 12
    frequency:    47.8180658882

- q-position: [    0.1904762,    0.0476190,    0.0000000 ]
  distance_from_gamma:  0.080607006
  weight: 12   
  band:
  - # 1
    frequency:     1.4634321236
  - # 2
    frequency:     1.5773016635
  - # 3
    frequency:    10.1565834133
  - # 4
    frequency:    10.1741968274
  - # 5
    frequency:    16.8847013634
  - # 6
    frequency:    16.8930538822
  - # 7
    frequency:    25.5638548024
  - # 8
    frequency:    25.5649916417
  - # 9
    frequency:    46.2320316402
  - # 10
    frequency:    46.4544807433
  - # 11
    frequency:    47.6368071317
  - # 12
    frequency:    47.8556457643

- q-position: [    0.2142857,    0.0476190,    0.0000000 ]
  distance_from_gamma:  0.091497351
  weight: 12   
  band:
  - # 1
    frequency:     2.2644872700
  - # 2
    frequency:     2.3403595369
  - # 3
    frequency:    11.3383129491
  - # 4
    frequency:    11.3543193763
  - # 5
    frequency:    18.9777277495
  - # 6
    frequency:    18.9818484592
  - # 7
    frequency:    25.3459439328
  - # 8
    frequency:    25.3465459501
  - # 9
    frequency:    45.9576119738
  - # 10
    frequency:    46.1379605106
  - # 11
    frequency:    47.6792605932
  - # 12
    frequency:    47.8552182810

- q-position: [    0.2380952,    0.0476190,    0.0000000 ]
  distance_from_gamma:  0.102449717