   3   3   0   0
  0.6214970E+02  0.3282000E-09  0.3280428E-09  0.2000000E-08  0.5000000E-15
  1.000000000000000E-004
  CAR 
 W-1, se-2                               
      9.48039967    -17.78691458  301     -1.67647641      1.00000000
    -17.787  0.0000E+00  0.0000E+00
    -17.696  0.0000E+00  0.0000E+00
    -17.605  0.0000E+00  0.0000E+00
    -17.514  0.0000E+00  0.0000E+00
    -17.423  0.0000E+00  0.0000E+00
    -17.332  0.0000E+00  0.0000E+00
    -17.242  0.0000E+00  0.0000E+00
    -17.151  0.0000E+00  0.0000E+00
    -17.060  0.0000E+00  0.0000E+00
    -16.969  0.0000E+00  0.0000E+00
    -16.878  0.0000E+00  0.0000E+00
    -16.787  0.0000E+00  0.0000E+00
    -16.696  0.0000E+00  0.0000E+00
    -16.605  0.4886E-16  0.4441E-17
    -16.514  0.1400E+01  0.1273E+00
    -16.424  0.9631E+00  0.2343E+00
    -16.333  0.6091E+00  0.3087E+00
    -16.242  0.5659E+00  0.3714E+00
    -16.151  0.5389E+00  0.4223E+00
    -16.060  0.4111E+00  0.4640E+00
    -15.969  0.4474E+00  0.5074E+00
    -15.878  0.2934E+00  0.5467E+00
    -15.787  0.4087E+00  0.5838E+00
    -15.696  0.2908E+00  0.6264E+00
    -15.606  0.3536E+00  0.6588E+00
    -15.515  0.2934E+00  0.6933E+00
    -15.424  0.3143E+00  0.7219E+00
    -15.333  0.2234E+01  0.9370E+00
    -15.242  0.1556E+01  0.1115E+01
    -15.151  0.1426E+01  0.1250E+01
    -15.060  0.1047E+01  0.1362E+01
    -14.969  0.1136E+01  0.1477E+01
    -14.878  0.9942E+00  0.1584E+01
    -14.788  0.9875E+00  0.1690E+01
    -14.697  0.1026E+01  0.1800E+01
    -14.606  0.1272E+01  0.1929E+01
    -14.515  0.3186E+01  0.2223E+01
    -14.424  0.2414E+01  0.2500E+01
    -14.333  0.2564E+01  0.2767E+01
    -14.242  0.6946E+01  0.3433E+01
    -14.151  0.2662E+01  0.3762E+01
    -14.060  0.2186E+01  0.4000E+01
    -13.969  0.0000E+00  0.4000E+01
    -13.879  0.0000E+00  0.4000E+01
    -13.788  0.0000E+00  0.4000E+01
    -13.697  0.0000E+00  0.4000E+01
    -13.606  0.0000E+00  0.4000E+01
    -13.515  0.0000E+00  0.4000E+01
    -13.424  0.0000E+00  0.4000E+01
    -13.333  0.0000E+00  0.4000E+01
    -13.242  0.0000E+00  0.4000E+01
    -13.151  0.0000E+00  0.4000E+01
    -13.061  0.0000E+00  0.4000E+01
    -12.970  0.0000E+00  0.4000E+01
    -12.879  0.0000E+00  0.4000E+01
    -12.788  0.0000E+00  0.4000E+01
    -12.697  0.0000E+00  0.4000E+01
    -12.606  0.0000E+00  0.4000E+01
    -12.515  0.0000E+00  0.4000E+01
    -12.424  0.0000E+00  0.4000E+01
    -12.333  0.0000E+00  0.4000E+01
    -12.243  0.0000E+00  0.4000E+01
    -12.152  0.0000E+00  0.4000E+01
    -12.061  0.0000E+00  0.4000E+01
    -11.970  0.0000E+00  0.4000E+01
    -11.879  0.0000E+00  0.4000E+01
    -11.788  0.0000E+00  0.4000E+01
    -11.697  0.0000E+00  0.4000E+01
    -11.606  0.0000E+00  0.4000E+01
    -11.515  0.0000E+00  0.4000E+01
    -11.425  0.0000E+00  0.4000E+01
    -11.334  0.0000E+00  0.4000E+01
    -11.243  0.0000E+00  0.4000E+01
    -11.152  0.0000E+00  0.4000E+01
    -11.061  0.0000E+00  0.4000E+01
    -10.970  0.0000E+00  0.4000E+01
    -10.879  0.0000E+00  0.4000E+01
    -10.788  0.0000E+00  0.4000E+01
    -10.697  0.0000E+00  0.4000E+01
    -10.607  0.0000E+00  0.4000E+01
    -10.516  0.0000E+00  0.4000E+01
    -10.425  0.0000E+00  0.4000E+01
    -10.334  0.0000E+00  0.4000E+01
    -10.243  0.0000E+00  0.4000E+01
    -10.152  0.0000E+00  0.4000E+01
    -10.061  0.0000E+00  0.4000E+01
     -9.970  0.0000E+00  0.4000E+01
     -9.879  0.0000E+00  0.4000E+01
     -9.789  0.0000E+00  0.4000E+01
     -9.698  0.0000E+00  0.4000E+01
     -9.607  0.0000E+00  0.4000E+01
     -9.516  0.0000E+00  0.4000E+01
     -9.425  0.0000E+00  0.4000E+01
     -9.334  0.0000E+00  0.4000E+01
     -9.243  0.0000E+00  0.4000E+01
     -9.152  0.0000E+00  0.4000E+01
     -9.061  0.0000E+00  0.4000E+01
     -8.970  0.0000E+00  0.4000E+01
     -8.880  0.0000E+00  0.4000E+01
     -8.789  0.0000E+00  0.4000E+01
     -8.698  0.0000E+00  0.4000E+01
     -8.607  0.0000E+00  0.4000E+01
     -8.516  0.0000E+00  0.4000E+01
     -8.425  0.0000E+00  0.4000E+01
     -8.334  0.0000E+00  0.4000E+01
     -8.243  0.0000E+00  0.4000E+01
     -8.152  0.6154E-01  0.4006E+01
     -8.062  0.1971E+01  0.4221E+01
     -7.971  0.2236E+01  0.4430E+01
     -7.880  0.1564E+01  0.4596E+01
     -7.789  0.1081E+01  0.4725E+01
     -7.698  0.1024E+01  0.4827E+01
     -7.607  0.1136E+01  0.4930E+01
     -7.516  0.8229E+00  0.5008E+01
     -7.425  0.7601E+00  0.5109E+01
     -7.334  0.8078E+00  0.5193E+01
     -7.244  0.1750E+01  0.5372E+01
     -7.153  0.2756E+01  0.5625E+01
     -7.062  0.3741E+01  0.6009E+01
     -6.971  0.3445E+01  0.6381E+01
     -6.880  0.3791E+01  0.6787E+01
     -6.789  0.7841E+00  0.6871E+01
     -6.698  0.8848E+00  0.6960E+01
     -6.607  0.4342E+00  0.7000E+01
     -6.516  0.2936E+00  0.7027E+01
     -6.426  0.3476E+00  0.7058E+01
     -6.335  0.2875E+00  0.7093E+01
     -6.244  0.1255E+01  0.7207E+01
     -6.153  0.1617E+01  0.7374E+01
     -6.062  0.1942E+01  0.7577E+01
     -5.971  0.2368E+01  0.7829E+01
     -5.880  0.3678E+01  0.8256E+01
     -5.789  0.3475E+01  0.8609E+01
     -5.698  0.1114E+01  0.8715E+01
     -5.608  0.4374E+00  0.8760E+01
     -5.517  0.5194E+00  0.8807E+01
     -5.426  0.2804E+01  0.9070E+01
     -5.335  0.9433E+00  0.9180E+01
     -5.244  0.1206E+01  0.9310E+01
     -5.153  0.2143E+01  0.9568E+01
     -5.062  0.5206E+01  0.1006E+02
     -4.971  0.1906E+01  0.1025E+02
     -4.880  0.1592E+01  0.1041E+02
     -4.789  0.1452E+01  0.1057E+02
     -4.699  0.2503E+01  0.1083E+02
     -4.608  0.1801E+01  0.1102E+02
     -4.517  0.1417E+01  0.1117E+02
     -4.426  0.1383E+01  0.1131E+02
     -4.335  0.1368E+01  0.1147E+02
     -4.244  0.1293E+01  0.1160E+02
     -4.153  0.2938E+01  0.1188E+02
     -4.062  0.3790E+01  0.1228E+02
     -3.971  0.8006E+01  0.1309E+02
     -3.881  0.2380E+01  0.1346E+02
     -3.790  0.1983E+01  0.1366E+02
     -3.699  0.1974E+01  0.1386E+02
     -3.608  0.1743E+01  0.1404E+02
     -3.517  0.2040E+01  0.1424E+02
     -3.426  0.1012E+01  0.1436E+02
     -3.335  0.9974E+00  0.1448E+02
     -3.244  0.1282E+01  0.1461E+02
     -3.153  0.1449E+01  0.1476E+02
     -3.063  0.1398E+01  0.1490E+02
     -2.972  0.3100E+01  0.1524E+02
     -2.881  0.6497E+01  0.1588E+02
     -2.790  0.1836E+01  0.1614E+02
     -2.699  0.6269E+00  0.1622E+02
     -2.608  0.1186E+01  0.1635E+02
     -2.517  0.2122E+01  0.1659E+02
     -2.426  0.1541E+01  0.1677E+02
     -2.335  0.1821E+01  0.1695E+02
     -2.245  0.3729E+01  0.1731E+02
     -2.154  0.1054E+01  0.1752E+02
     -2.063  0.9505E+00  0.1762E+02
     -1.972  0.7276E+00  0.1771E+02
     -1.881  0.8475E+00  0.1780E+02
     -1.790  0.1348E+01  0.1792E+02
     -1.699  0.4317E+00  0.1800E+02
     -1.608  0.0000E+00  0.1800E+02
     -1.517  0.0000E+00  0.1800E+02
     -1.427  0.0000E+00  0.1800E+02
     -1.336  0.0000E+00  0.1800E+02
     -1.245  0.0000E+00  0.1800E+02
     -1.154  0.0000E+00  0.1800E+02
     -1.063  0.0000E+00  0.1800E+02
     -0.972  0.0000E+00  0.1800E+02
     -0.881  0.0000E+00  0.1800E+02
     -0.790  0.0000E+00  0.1800E+02
     -0.699  0.0000E+00  0.1800E+02
     -0.609  0.0000E+00  0.1800E+02
     -0.518  0.0000E+00  0.1800E+02
     -0.427  0.0000E+00  0.1800E+02
     -0.336  0.0000E+00  0.1800E+02
     -0.245  0.0000E+00  0.1800E+02
     -0.154  0.1863E+00  0.1802E+02
     -0.063  0.1869E+01  0.1821E+02
      0.028  0.1322E+01  0.1836E+02
      0.119  0.1937E+01  0.1855E+02
      0.210  0.1824E+01  0.1874E+02
      0.300  0.1829E+01  0.1894E+02
      0.391  0.9448E+00  0.1906E+02
      0.482  0.1055E+01  0.1916E+02
      0.573  0.2569E+01  0.1941E+02
      0.664  0.4077E+01  0.1982E+02
      0.755  0.4080E+01  0.2031E+02
      0.846  0.3354E+01  0.2064E+02
      0.937  0.2897E+01  0.2090E+02
      1.028  0.6095E+01  0.2150E+02
      1.118  0.4672E+01  0.2201E+02
      1.209  0.3247E+01  0.2235E+02
      1.300  0.4413E+01  0.2279E+02
      1.391  0.4268E+01  0.2322E+02
      1.482  0.1816E+01  0.2339E+02
      1.573  0.1421E+01  0.2356E+02
      1.664  0.1388E+01  0.2374E+02
      1.755  0.2390E+01  0.2398E+02
      1.846  0.1086E+01  0.2409E+02
      1.936  0.1145E+01  0.2421E+02
      2.027  0.2017E+01  0.2443E+02
      2.118  0.1184E+01  0.2456E+02
      2.209  0.8011E+00  0.2465E+02
      2.300  0.1016E+01  0.2476E+02
      2.391  0.1061E+01  0.2488E+02
      2.482  0.1354E+01  0.2503E+02
      2.573  0.2882E+01  0.2533E+02
      2.664  0.3253E+01  0.2567E+02
      2.754  0.2189E+01  0.2591E+02
      2.845  0.1680E+01  0.2607E+02
      2.936  0.1452E+01  0.2624E+02
      3.027  0.3138E+01  0.2654E+02
      3.118  0.2138E+01  0.2678E+02
      3.209  0.2690E+01  0.2706E+02
      3.300  0.1319E+01  0.2725E+02
      3.391  0.9096E+00  0.2736E+02
      3.482  0.2037E+01  0.2756E+02
      3.572  0.1699E+01  0.2774E+02
      3.663  0.1475E+01  0.2789E+02
      3.754  0.1304E+01  0.2804E+02
      3.845  0.1339E+01  0.2819E+02
      3.936  0.1994E+01  0.2839E+02
      4.027  0.1680E+01  0.2861E+02
      4.118  0.1326E+01  0.2873E+02
      4.209  0.2296E+01  0.2897E+02
      4.300  0.1198E+01  0.2911E+02
      4.391  0.1413E+01  0.2925E+02
      4.481  0.1039E+01  0.2935E+02
      4.572  0.1068E+01  0.2946E+02
      4.663  0.9167E+00  0.2955E+02
      4.754  0.1905E+01  0.2975E+02
      4.845  0.2475E+01  0.2999E+02
      4.936  0.3210E+01  0.3029E+02
      5.027  0.1736E+01  0.3049E+02
      5.118  0.2049E+01  0.3069E+02
      5.209  0.2312E+01  0.3093E+02
      5.299  0.3946E+01  0.3132E+02
      5.390  0.2098E+01  0.3155E+02
      5.481  0.2517E+01  0.3182E+02
      5.572  0.1955E+01  0.3204E+02
      5.663  0.2026E+01  0.3224E+02
      5.754  0.1486E+01  0.3238E+02
      5.845  0.1814E+01  0.3257E+02
      5.936  0.1232E+01  0.3270E+02
      6.027  0.2060E+01  0.3292E+02
      6.117  0.1932E+01  0.3314E+02
      6.208  0.1337E+01  0.3327E+02
      6.299  0.1337E+01  0.3340E+02
      6.390  0.1275E+01  0.3354E+02
      6.481  0.2600E+01  0.3381E+02
      6.572  0.1554E+01  0.3397E+02
      6.663  0.1210E+01  0.3410E+02
      6.754  0.1464E+01  0.3424E+02
      6.845  0.2419E+01  0.3450E+02
      6.935  0.2729E+01  0.3480E+02
      7.026  0.1407E+01  0.3498E+02
      7.117  0.1137E+01  0.3510E+02
      7.208  0.8881E+00  0.3520E+02
      7.299  0.4122E+00  0.3525E+02
      7.390  0.5169E+00  0.3530E+02
      7.481  0.2939E+00  0.3533E+02
      7.572  0.7943E+00  0.3541E+02
      7.663  0.3121E+00  0.3544E+02
      7.753  0.7037E+00  0.3552E+02
      7.844  0.1039E+01  0.3561E+02
      7.935  0.5100E+00  0.3567E+02
      8.026  0.6647E+00  0.3574E+02
      8.117  0.6704E+00  0.3581E+02
      8.208  0.9211E+00  0.3590E+02
      8.299  0.8791E+00  0.3600E+02
      8.390  0.0000E+00  0.3600E+02
      8.481  0.0000E+00  0.3600E+02
      8.571  0.0000E+00  0.3600E+02
      8.662  0.0000E+00  0.3600E+02
      8.753  0.0000E+00  0.3600E+02
      8.844  0.0000E+00  0.3600E+02
      8.935  0.0000E+00  0.3600E+02
      9.026  0.0000E+00  0.3600E+02
      9.117  0.0000E+00  0.3600E+02
      9.208  0.0000E+00  0.3600E+02
      9.299  0.0000E+00  0.3600E+02
      9.390  0.0000E+00  0.3600E+02
      9.480  0.0000E+00  0.3600E+02
