    3    3    1    1
  0.6214970E+02  0.3282000E-09  0.3280428E-09  0.2000000E-08  0.5000000E-15
  1.000000000000000E-004
  CAR 
 W-1, se-2                               
     18    150     18
 
  0.0000000E+00  0.0000000E+00  0.0000000E+00  0.6666667E-02
    1      -16.547491   1.000000
    2      -15.366085   1.000000
    3       -8.005119   1.000000
    4       -4.049986   1.000000
    5       -4.047363   1.000000
    6       -4.040184   1.000000
    7       -2.912716   1.000000
    8       -2.907815   1.000000
    9       -2.240524   1.000000
   10        1.231051   0.000000
   11        1.234693   0.000000
   12        1.369881   0.000000
   13        1.376392   0.000000
   14        2.499295   0.000000
   15        2.959671   0.000000
   16        3.444994   0.000000
   17        4.162055   0.000000
   18        4.913828   0.000000
 
  0.1020408E-01  0.1020408E-01  0.0000000E+00  0.6666667E-02
    1      -16.545931   1.000000
    2      -15.365218   1.000000
    3       -8.003056   1.000000
    4       -4.053460   1.000000
    5       -4.051468   1.000000
    6       -4.039534   1.000000
    7       -2.913585   1.000000
    8       -2.909241   1.000000
    9       -2.240721   1.000000
   10        1.226786   0.000000
   11        1.236910   0.000000
   12        1.360860   0.000000
   13        1.373221   0.000000
   14        2.506475   0.000000
   15        2.961892   0.000000
   16        3.449808   0.000000
   17        4.166356   0.000000
   18        4.915876   0.000000
 
  0.2040816E-01  0.2040816E-01  0.0000000E+00  0.6666667E-02
    1      -16.541246   1.000000
    2      -15.362618   1.000000
    3       -7.996872   1.000000
    4       -4.065942   1.000000
    5       -4.063803   1.000000
    6       -4.035370   1.000000
    7       -2.920921   1.000000
    8       -2.908873   1.000000
    9       -2.241333   1.000000
   10        1.212440   0.000000
   11        1.245330   0.000000
   12        1.332323   0.000000
   13        1.366150   0.000000
   14        2.527095   0.000000
   15        2.968532   0.000000
   16        3.464125   0.000000
   17        4.179337   0.000000
   18        4.922002   0.000000
 
  0.3061224E-01  0.3061224E-01  0.0000000E+00  0.6666667E-02
    1      -16.533444   1.000000
    2      -15.358290   1.000000
    3       -7.986584   1.000000
    4       -4.090629   1.000000
    5       -4.080783   1.000000
    6       -4.027686   1.000000
    7       -2.934940   1.000000
    8       -2.906716   1.000000
    9       -2.242423   1.000000
   10        1.189123   0.000000
   11        1.259467   0.000000
   12        1.286919   0.000000
   13        1.355089   0.000000
   14        2.558788   0.000000
   15        2.979528   0.000000
   16        3.487552   0.000000
   17        4.201221   0.000000
   18        4.932166   0.000000
 
  0.4081633E-01  0.4081633E-01  0.0000000E+00  0.6666667E-02
    1      -16.522540   1.000000
    2      -15.352244   1.000000
    3       -7.972220   1.000000
    4       -4.124954   1.000000
    5       -4.104045   1.000000
    6       -4.016798   1.000000
    7       -2.954541   1.000000
    8       -2.904212   1.000000
    9       -2.244097   1.000000
   10        1.158135   0.000000
   11        1.228084   0.000000
   12        1.278988   0.000000
   13        1.339933   0.000000
   14        2.598592   0.000000
   15        2.994790   0.000000
   16        3.519404   0.000000
   17        4.232351   0.000000
   18        4.946305   0.000000
 
  0.5102041E-01  0.5102041E-01  0.0000000E+00  0.6666667E-02
    1      -16.508552   1.000000
    2      -15.344489   1.000000
    3       -7.953822   1.000000
    4       -4.168465   1.000000
    5       -4.133157   1.000000
    6       -4.002810   1.000000
    7       -2.979351   1.000000
    8       -2.902141   1.000000
    9       -2.246504   1.000000
   10        1.121010   0.000000
   11        1.159065   0.000000
   12        1.303584   0.000000
   13        1.320835   0.000000
   14        2.643732   0.000000
   15        3.014209   0.000000
   16        3.558686   0.000000
   17        4.273128   0.000000
   18        4.964345   0.000000
 
  0.6122449E-01  0.6122449E-01  0.0000000E+00  0.6666667E-02
    1      -16.491506   1.000000
    2      -15.335043   1.000000
    3       -7.931441   1.000000
    4       -4.220674   1.000000
    5       -4.167648   1.000000
    6       -3.985790   1.000000
    7       -3.009037   1.000000
    8       -2.901278   1.000000
    9       -2.249836   1.000000
   10        1.079484   0.000000
   11        1.082716   0.000000
   12        1.298029   0.000000
   13        1.332890   0.000000
   14        2.692037   0.000000
   15        3.037679   0.000000
   16        3.604142   0.000000
   17        4.323910   0.000000
   18        4.986211   0.000000
 
  0.7142857E-01  0.7142857E-01  0.0000000E+00  0.6666667E-02
    1      -16.471433   1.000000
    2      -15.323923   1.000000
    3       -7.905146   1.000000
    4       -4.281040   1.000000
    5       -4.207048   1.000000
    6       -3.965806   1.000000
    7       -3.043236   1.000000
    8       -2.902403   1.000000
    9       -2.254324   1.000000
   10        1.001430   0.000000
   11        1.035391   0.000000
   12        1.271801   0.000000
   13        1.366497   0.000000
   14        2.742039   0.000000
   15        3.065098   0.000000
   16        3.654361   0.000000
   17        4.384879   0.000000
   18        5.011829   0.000000
 
  0.8163265E-01  0.8163265E-01  0.0000000E+00  0.6666667E-02
    1      -16.448372   1.000000
    2      -15.311154   1.000000
    3       -7.875016   1.000000
    4       -4.348978   1.000000
    5       -4.250917   1.000000
    6       -3.942930   1.000000
    7       -3.081563   1.000000
    8       -2.906267   1.000000
    9       -2.260241   1.000000
   10        0.917200   0.000000
   11        0.990569   0.000000
   12        1.242474   0.000000
   13        1.403953   0.000000
   14        2.792904   0.000000
   15        3.096379   0.000000
   16        3.707953   0.000000
   17        4.455885   0.000000
   18        5.041130   0.000000
 
  0.9183673E-01  0.9183673E-01  0.0000000E+00  0.6666667E-02
    1      -16.422369   1.000000
    2      -15.296761   1.000000
    3       -7.841148   1.000000
    4       -4.423871   1.000000
    5       -4.298864   1.000000
    6       -3.917247   1.000000
    7       -3.123613   1.000000
    8       -2.913549   1.000000
    9       -2.267894   1.000000
   10        0.831714   0.000000
   11        0.946777   0.000000
   12        1.210398   0.000000
   13        1.444785   0.000000
   14        2.844265   0.000000
   15        3.131445   0.000000
   16        3.763728   0.000000
   17        4.536302   0.000000
   18        5.074050   0.000000
 
  0.1020408E+00  0.1020408E+00  0.0000000E+00  0.6666667E-02
    1      -16.393466   1.000000
    2      -15.280773   1.000000
    3       -7.803656   1.000000
    4       -4.505085   1.000000
    5       -4.350553   1.000000
    6       -3.888852   1.000000
    7       -3.168971   1.000000
    8       -2.924818   1.000000
    9       -2.277618   1.000000
   10        0.746435   0.000000
   11        0.905629   0.000000
   12        1.175946   0.000000
   13        1.488505   0.000000
   14        2.896062   0.000000
   15        3.170230   0.000000
   16        3.820816   0.000000
   17        4.624957   0.000000
   18        5.110524   0.000000
 
  0.1122449E+00  0.1122449E+00  0.0000000E+00  0.6666667E-02
    1      -16.361719   1.000000
    2      -15.263226   1.000000
    3       -7.762675   1.000000
    4       -4.591984   1.000000
    5       -4.405710   1.000000
    6       -3.857851   1.000000
    7       -3.217224   1.000000
    8       -2.940506   1.000000
    9       -2.289769   1.000000
   10        0.662672   0.000000
   11        0.868545   0.000000
   12        1.139506   0.000000
   13        1.534622   0.000000
   14        2.948416   0.000000
   15        3.212677   0.000000
   16        3.878707   0.000000
   17        4.720133   0.000000
   18        5.150491   0.000000
 
  0.1224490E+00  0.1224490E+00  0.0000000E+00  0.6666667E-02
    1      -16.327190   1.000000
    2      -15.244157   1.000000
    3       -7.718360   1.000000
    4       -4.683935   1.000000
    5       -4.464116   1.000000
    6       -3.824362   1.000000
    7       -3.267964   1.000000
    8       -2.960880   1.000000
    9       -2.304707   1.000000
   10        0.581614   0.000000
   11        0.836716   0.000000
   12        1.101473   0.000000
   13        1.582653   0.000000
   14        3.001529   0.000000
   15        3.258731   0.000000
   16        3.937192   0.000000
   17        4.819647   0.000000
   18        5.193879   0.000000
 
  0.1326531E+00  0.1326531E+00  0.0000000E+00  0.6666667E-02
    1      -16.289947   1.000000
    2      -15.223611   1.000000
    3       -7.670893   1.000000
    4       -4.780316   1.000000
    5       -4.525605   1.000000
    6       -3.788517   1.000000
    7       -3.320797   1.000000
    8       -2.986034   1.000000
    9       -2.322778   1.000000
   10        0.504354   0.000000
   11        0.811081   0.000000
   12        1.062243   0.000000
   13        1.632126   0.000000
   14        3.055623   0.000000
   15        3.308339   0.000000
   16        3.996282   0.000000
   17        4.920967   0.000000
   18        5.240612   0.000000
 
  0.1428571E+00  0.1428571E+00  0.0000000E+00  0.6666667E-02
    1      -16.250064   1.000000
    2      -15.201631   1.000000
    3       -7.620484   1.000000
    4       -4.880514   1.000000
    5       -4.590051   1.000000
    6       -3.750462   1.000000
    7       -3.375345   1.000000
    8       -3.015874   1.000000
    9       -2.344294   1.000000
   10        0.431887   0.000000
   11        0.792325   0.000000
   12        1.022213   0.000000
   13        1.682590   0.000000
   14        3.110904   0.000000
   15        3.361444   0.000000
   16        4.056106   0.000000
   17        5.021344   0.000000
   18        5.290599   0.000000
 
  0.1530612E+00  0.1530612E+00  0.0000000E+00  0.6666667E-02
    1      -16.207622   1.000000
    2      -15.178271   1.000000
    3       -7.567380   1.000000
    4       -4.983932   1.000000
    5       -4.657361   1.000000
    6       -3.710353   1.000000
    7       -3.431247   1.000000
    8       -3.050137   1.000000
    9       -2.369502   1.000000
   10        0.365105   0.000000
   11        0.780880   0.000000
   12        0.981773   0.000000
   13        1.733617   0.000000
   14        3.167542   0.000000
   15        3.417984   0.000000
   16        4.116840   0.000000
   17        5.117956   0.000000
   18        5.343728   0.000000
 
  0.1632653E+00  0.1632653E+00  0.0000000E+00  0.6666667E-02
    1      -16.162711   1.000000
    2      -15.153589   1.000000
    3       -7.511870   1.000000
    4       -5.089981   1.000000
    5       -4.727465   1.000000
    6       -3.668365   1.000000
    7       -3.488167   1.000000
    8       -3.088407   1.000000
    9       -2.398559   1.000000
   10        0.304777   0.000000
   11        0.776942   0.000000
   12        0.941307   0.000000
   13        1.784806   0.000000
   14        3.225664   0.000000
   15        3.477892   0.000000
   16        4.178658   0.000000
   17        5.208073   0.000000
   18        5.399866   0.000000
 
  0.1734694E+00  0.1734694E+00  0.0000000E+00  0.6666667E-02
    1      -16.115433   1.000000
    2      -15.127646   1.000000
    3       -7.454297   1.000000
    4       -5.198073   1.000000
    5       -4.800297   1.000000
    6       -3.624681   1.000000
    7       -3.545786   1.000000
    8       -3.130135   1.000000
    9       -2.431505   1.000000
   10        0.251529   0.000000
   11        0.780496   0.000000
   12        0.901187   0.000000
   13        1.835789   0.000000
   14        3.285347   0.000000
   15        3.541092   0.000000
   16        4.241692   0.000000
   17        5.289209   0.000000
   18        5.458842   0.000000
 
  0.1836735E+00  0.1836735E+00  0.0000000E+00  0.6666667E-02
    1      -16.065889   1.000000
    2      -15.100508   1.000000
    3       -7.395070   1.000000
    4       -5.307607   1.000000
    5       -4.875791   1.000000
    6       -3.603808   1.000000
    7       -3.579502   1.000000
    8       -3.174682   1.000000
    9       -2.468240   1.000000
   10        0.205831   0.000000
   11        0.791347   0.000000
   12        0.861774   0.000000
   13        1.886230   0.000000
   14        3.346616   0.000000
   15        3.607494   0.000000
   16        4.306023   0.000000
   17        5.359305   0.000000
   18        5.520440   0.000000
 
  0.1938776E+00  0.1938776E+00  0.0000000E+00  0.6666667E-02
    1      -16.014196   1.000000
    2      -15.072247   1.000000
    3       -7.334687   1.000000
    4       -5.417955   1.000000
    5       -4.953862   1.000000
    6       -3.661959   1.000000
    7       -3.533040   1.000000
    8       -3.221360   1.000000
    9       -2.508509   1.000000
   10        0.167980   0.000000
   11        0.809157   0.000000
   12        0.823413   0.000000
   13        1.935824   0.000000
   14        3.409447   0.000000
   15        3.676999   0.000000
   16        4.371660   0.000000
   17        5.416826   0.000000
   18        5.584378   0.000000
 
  0.2040816E+00  0.2040816E+00  0.0000000E+00  0.6666667E-02
    1      -15.960481   1.000000
    2      -15.042943   1.000000
    3       -7.273764   1.000000
    4       -5.528418   1.000000
    5       -5.034403   1.000000
    6       -3.719984   1.000000
    7       -3.485520   1.000000
    8       -3.269458   1.000000
    9       -2.551901   1.000000
   10        0.138103   0.000000
   11        0.786435   0.000000
   12        0.833477   0.000000
   13        1.984303   0.000000
   14        3.473769   0.000000
   15        3.749492   0.000000
   16        4.438526   0.000000
   17        5.460822   0.000000
   18        5.650278   0.000000
 
  0.2142857E+00  0.2142857E+00  0.0000000E+00  0.6666667E-02
    1      -15.904877   1.000000
    2      -15.012681   1.000000
    3       -7.213083   1.000000
    4       -5.638187   1.000000
    5       -5.117269   1.000000
    6       -3.777650   1.000000
    7       -3.437181   1.000000
    8       -3.318284   1.000000
    9       -2.597854   1.000000
   10        0.116165   0.000000
   11        0.751152   0.000000
   12        0.863779   0.000000
   13        2.031434   0.000000
   14        3.539454   0.000000
   15        3.824838   0.000000
   16        4.506423   0.000000
   17        5.490909   0.000000
   18        5.717620   0.000000
 
  0.2244898E+00  0.2244898E+00  0.0000000E+00  0.6666667E-02
    1      -15.847524   1.000000
    2      -14.981551   1.000000
    3       -7.153666   1.000000
    4       -5.746264   1.000000
    5       -5.202278   1.000000
    6       -3.834740   1.000000
    7       -3.388273   1.000000
    8       -3.367192   1.000000
    9       -2.645674   1.000000
   10        0.101984   0.000000
   11        0.717855   0.000000
   12        0.899484   0.000000
   13        2.077013   0.000000
   14        3.606314   0.000000
   15        3.902882   0.000000
   16        4.574992   0.000000
   17        5.507232   0.000000
   18        5.785666   0.000000
 
  0.2346939E+00  0.2346939E+00  0.0000000E+00  0.6666667E-02
    1      -15.788577   1.000000
    2      -14.949649   1.000000
    3       -7.096890   1.000000
    4       -5.851334   1.000000
    5       -5.289195   1.000000
    6       -3.891055   1.000000
    7       -3.415597   1.000000
    8       -3.339055   1.000000
    9       -2.694556   1.000000
   10        0.095258   0.000000
   11        0.686818   0.000000
   12        0.939982   0.000000
   13        2.120873   0.000000
   14        3.674093   0.000000
   15        3.983439   0.000000
   16        4.643621   0.000000
   17        5.510459   0.000000
   18        5.853324   0.000000
 
  0.2448980E+00  0.2448980E+00  0.0000000E+00  0.6666667E-02
    1      -15.728206   1.000000
    2      -14.917084   1.000000
    3       -7.044677   1.000000
    4       -5.951595   1.000000
    5       -5.377743   1.000000
    6       -3.946412   1.000000
    7       -3.462994   1.000000
    8       -3.289790   1.000000
    9       -2.743621   1.000000
   10        0.095592   0.000000
   11        0.658290   0.000000
   12        0.984645   0.000000
   13        2.162877   0.000000
   14        3.742448   0.000000
   15        4.066296   0.000000
   16        4.711268   0.000000
   17        5.501886   0.000000
   18        5.918940   0.000000
 
  0.2551020E+00  0.2551020E+00  0.0000000E+00  0.6666667E-02
    1      -15.666595   1.000000
    2      -14.883965   1.000000
    3       -6.999754   1.000000
    4       -6.044475   1.000000
    5       -5.467600   1.000000
    6       -4.000644   1.000000
    7       -3.508964   1.000000
    8       -3.240750   1.000000
    9       -2.791940   1.000000
   10        0.102527   0.000000
   11        0.632491   0.000000
   12        1.032846   0.000000
   13        2.202918   0.000000
   14        3.810923   0.000000
   15        4.151195   0.000000
   16        4.776129   0.000000
   17        5.483745   0.000000
   18        5.979941   0.000000
 
  0.2653061E+00  0.2653061E+00  0.0000000E+00  0.6666667E-02
    1      -15.603931   1.000000
    2      -14.850407   1.000000
    3       -6.965943   1.000000
    4       -6.126334   1.000000
    5       -5.558404   1.000000
    6       -4.053598   1.000000
    7       -3.553168   1.000000
    8       -3.192207   1.000000
    9       -2.838571   1.000000
   10        0.115561   0.000000
   11        0.609616   0.000000
   12        1.083961   0.000000
   13        2.240917   0.000000
   14        3.878904   0.000000
   15        4.237828   0.000000
   16        4.835019   0.000000
   17        5.459865   0.000000
   18        6.032381   0.000000
 
  0.2755102E+00  0.2755102E+00  0.0000000E+00  0.6666667E-02
    1      -15.540426   1.000000
    2      -14.816535   1.000000
    3       -6.948178   1.000000
    4       -6.192451   1.000000
    5       -5.649756   1.000000
    6       -4.105131   1.000000
    7       -3.595349   1.000000
    8       -3.144432   1.000000
    9       -2.882581   1.000000
   10        0.134181   0.000000
   11        0.589824   0.000000
   12        1.137378   0.000000
   13        2.276823   0.000000
   14        3.945540   0.000000
   15        4.325818   0.000000
   16        4.882404   0.000000
   17        5.436792   0.000000
   18        6.070791   0.000000
 
  0.2857143E+00  0.2857143E+00  0.0000000E+00  0.6666667E-02
    1      -15.476302   1.000000
    2      -14.782483   1.000000
    3       -6.951473   1.000000
    4       -6.238036   1.000000
    5       -5.741233   1.000000
    6       -4.155113   1.000000
    7       -3.635324   1.000000
    8       -3.097690   1.000000
    9       -2.923078   1.000000
   10        0.157868   0.000000
   11        0.573238   0.000000
   12        1.192497   0.000000
   13        2.310607   0.000000
   14        4.009595   0.000000
   15        4.414703   0.000000
   16        4.909883   0.000000
   17        5.424497   0.000000
   18        6.089497   0.000000
 
  0.2959184E+00  0.2959184E+00  0.0000000E+00  0.6666667E-02
    1      -15.411799   1.000000
    2      -14.748392   1.000000
    3       -6.978459   1.000000
    4       -6.260676   1.000000
    5       -5.832392   1.000000
    6       -4.203428   1.000000
    7       -3.672972   1.000000
    8       -3.052245   1.000000
    9       -2.959229   1.000000
   10        0.186118   0.000000
   11        0.559937   0.000000
   12        1.248730   0.000000
   13        2.342261   0.000000
   14        4.069164   0.000000
   15        4.503905   0.000000
   16        4.909207   0.000000
   17        5.433728   0.000000
   18        6.086312   0.000000
 
  0.3061224E+00  0.3061224E+00  0.0000000E+00  0.6666667E-02
    1      -15.347174   1.000000
    2      -14.714408   1.000000
    3       -7.027358   1.000000
    4       -6.262349   1.000000
    5       -5.922776   1.000000
    6       -4.249966   1.000000
    7       -3.708227   1.000000
    8       -3.008436   1.000000
    9       -2.990199   1.000000
   10        0.218448   0.000000
   11        0.549958   0.000000
   12        1.305509   0.000000
   13        2.371798   0.000000
   14        4.121142   0.000000
   15        4.592702   0.000000
   16        4.879908   0.000000
   17        5.468924   0.000000
   18        6.065274   0.000000
 
  0.3163265E+00  0.3163265E+00  0.0000000E+00  0.6666667E-02
    1      -15.282696   1.000000
    2      -14.680683   1.000000
    3       -7.093012   1.000000
    4       -6.248381   1.000000
    5       -6.011925   1.000000
    6       -4.294628   1.000000
    7       -3.741068   1.000000
    8       -3.015797   1.000000
    9       -2.966056   1.000000
   10        0.254401   0.000000
   11        0.543285   0.000000
   12        1.362278   0.000000
   13        2.399243   0.000000
   14        4.160277   0.000000
   15        4.680182   0.000000
   16        4.832341   0.000000
   17        5.526117   0.000000
   18        6.034296   0.000000
 
  0.3265306E+00  0.3265306E+00  0.0000000E+00  0.6666667E-02
    1      -15.218657   1.000000
    2      -14.647377   1.000000
    3       -7.169655   1.000000
    4       -6.224643   1.000000
    5       -6.099378   1.000000
    6       -4.337323   1.000000
    7       -3.771508   1.000000
    8       -3.034988   1.000000
    9       -2.925862   1.000000
   10        0.293546   0.000000
   11        0.539851   0.000000
   12        1.418501   0.000000
   13        2.424642   0.000000
   14        4.178085   0.000000
   15        4.765204   0.000000
   16        4.782876   0.000000
   17        5.598777   0.000000
   18        6.001116   0.000000
 
  0.3367347E+00  0.3367347E+00  0.0000000E+00  0.6666667E-02
    1      -15.155369   1.000000
    2      -14.614657   1.000000
    3       -7.252600   1.000000
    4       -6.195847   1.000000
    5       -6.184675   1.000000
    6       -4.377969   1.000000
    7       -3.799588   1.000000
    8       -3.047710   1.000000
    9       -2.887771   1.000000
   10        0.335483   0.000000
   11        0.539533   0.000000
   12        1.473668   0.000000
   13        2.448046   0.000000
   14        4.163864   0.000000
   15        4.748661   0.000000
   16        4.846370   0.000000
   17        5.681958   0.000000
   18        5.971701   0.000000
 
  0.3469388E+00  0.3469388E+00  0.0000000E+00  0.6666667E-02
    1      -15.093155   1.000000
    2      -14.582689   1.000000
    3       -7.338479   1.000000
    4       -6.267368   1.000000
    5       -6.165276   1.000000
    6       -4.416489   1.000000
    7       -3.825367   1.000000
    8       -3.053817   1.000000
    9       -2.851945   1.000000
   10        0.379839   0.000000
   11        0.542149   0.000000
   12        1.527292   0.000000
   13        2.469519   0.000000
   14        4.111374   0.000000
   15        4.740511   0.000000
   16        4.922046   0.000000
   17        5.772656   0.000000
   18        5.950404   0.000000
 
  0.3571429E+00  0.3571429E+00  0.0000000E+00  0.6666667E-02
    1      -15.032358   1.000000
    2      -14.551650   1.000000
    3       -7.424940   1.000000
    4       -6.347020   1.000000
    5       -6.135081   1.000000
    6       -4.452814   1.000000
    7       -3.848920   1.000000
    8       -3.053376   1.000000
    9       -2.818500   1.000000
   10        0.426260   0.000000
   11        0.547461   0.000000
   12        1.578918   0.000000
   13        2.489130   0.000000
   14        4.025061   0.000000
   15        4.757317   0.000000
   16        4.990491   0.000000
   17        5.869109   0.000000
   18        5.940400   0.000000
 
  0.3673469E+00  0.3673469E+00  0.0000000E+00  0.6666667E-02
    1      -14.973339   1.000000
    2      -14.521716   1.000000
    3       -7.510295   1.000000
    4       -6.423211   1.000000
    5       -6.106617   1.000000
    6       -4.486882   1.000000
    7       -3.870332   1.000000
    8       -3.046676   1.000000
    9       -2.787517   1.000000
   10        0.474406   0.000000
   11        0.555181   0.000000
   12        1.628130   0.000000
   13        2.506953   0.000000
   14        3.915408   0.000000
   15        4.791215   0.000000
   16        5.050159   0.000000
   17        5.943807   0.000000
   18        5.970213   0.000000
 
  0.3775510E+00  0.3775510E+00  0.0000000E+00  0.6666667E-02
    1      -14.916472   1.000000
    2      -14.493067   1.000000
    3       -7.593274   1.000000
    4       -6.495537   1.000000
    5       -6.080693   1.000000
    6       -4.518637   1.000000
    7       -3.889694   1.000000
    8       -3.034213   1.000000
    9       -2.759045   1.000000
   10        0.523927   0.000000
   11        0.564982   0.000000
   12        1.674553   0.000000
   13        2.523063   0.000000
   14        3.791861   0.000000
   15        4.834949   0.000000
   16        5.100129   0.000000
   17        5.961488   0.000000
   18        6.075152   0.000000
 
  0.3877551E+00  0.3877551E+00  0.0000000E+00  0.6666667E-02
    1      -14.862146   1.000000
    2      -14.465886   1.000000
    3       -7.672872   1.000000
    4       -6.563616   1.000000
    5       -6.057728   1.000000
    6       -4.548028   1.000000
    7       -3.907097   1.000000
    8       -3.016691   1.000000
    9       -2.733105   1.000000
   10        0.573344   0.000000
   11        0.577608   0.000000
   12        1.717861   0.000000
   13        2.537540   0.000000
   14        3.661041   0.000000
   15        4.883835   0.000000
   16        5.140481   0.000000
   17        5.992800   0.000000
   18        6.183152   0.000000
 
  0.3979592E+00  0.3979592E+00  0.0000000E+00  0.6666667E-02
    1      -14.810754   1.000000
    2      -14.440345   1.000000
    3       -7.748248   1.000000
    4       -6.627085   1.000000
    5       -6.037872   1.000000
    6       -4.575007   1.000000
    7       -3.922631   1.000000
    8       -2.994995   1.000000
    9       -2.709692   1.000000
   10        0.588831   0.000000
   11        0.626084   0.000000
   12        1.757783   0.000000
   13        2.550459   0.000000
   14        3.527508   0.000000
   15        4.935061   0.000000
   16        5.172328   0.000000
   17        6.035610   0.000000
   18        6.293277   0.000000
 
  0.4081633E+00  0.4081633E+00  0.0000000E+00  0.6666667E-02
    1      -14.762696   1.000000
    2      -14.416621   1.000000
    3       -7.818676   1.000000
    4       -6.685608   1.000000
    5       -6.021082   1.000000
    6       -4.599535   1.000000
    7       -3.936386   1.000000
    8       -2.970163   1.000000
    9       -2.688777   1.000000
   10        0.602282   0.000000
   11        0.677624   0.000000
   12        1.794106   0.000000
   13        2.561895   0.000000
   14        3.394650   0.000000
   15        4.986855   0.000000
   16        5.197439   0.000000
   17        6.086705   0.000000
   18        6.404209   0.000000
 
  0.4183673E+00  0.4183673E+00  0.0000000E+00  0.6666667E-02
    1      -14.718371   1.000000
    2      -14.394878   1.000000
    3       -7.883513   1.000000
    4       -6.738869   1.000000
    5       -6.007181   1.000000
    6       -4.621575   1.000000
    7       -3.948444   1.000000
    8       -2.943346   1.000000
    9       -2.670315   1.000000
   10        0.615982   0.000000
   11        0.728937   0.000000
   12        1.826674   0.000000
   13        2.571918   0.000000
   14        3.265247   0.000000
   15        5.037953   0.000000
   16        5.217681   0.000000
   17        6.142358   0.000000
   18        6.513930   0.000000
 
  0.4285714E+00  0.4285714E+00  0.0000000E+00  0.6666667E-02
    1      -14.678159   1.000000
    2      -14.375276   1.000000
    3       -7.942176   1.000000
    4       -6.786578   1.000000
    5       -5.995910   1.000000
    6       -4.641095   1.000000
    7       -3.958885   1.000000
    8       -2.915765   1.000000
    9       -2.654248   1.000000
   10        0.629478   0.000000
   11        0.779316   0.000000
   12        1.855389   0.000000
   13        2.580594   0.000000
   14        3.141796   0.000000
   15        5.087281   0.000000
   16        5.234599   0.000000
   17        6.198847   0.000000
   18        6.619287   0.000000
 
  0.4387755E+00  0.4387755E+00  0.0000000E+00  0.6666667E-02
    1      -14.642434   1.000000
    2      -14.357957   1.000000
    3       -7.994147   1.000000
    4       -6.828474   1.000000
    5       -5.986968   1.000000
    6       -4.658067   1.000000
    7       -3.967780   1.000000
    8       -2.888665   1.000000
    9       -2.640511   1.000000
   10        0.642303   0.000000
   11        0.827869   0.000000
   12        1.880200   0.000000
   13        2.587983   0.000000
   14        3.026724   0.000000
   15        5.133789   0.000000
   16        5.249222   0.000000
   17        6.252753   0.000000
   18        6.715492   0.000000
 
  0.4489796E+00  0.4489796E+00  0.0000000E+00  0.6666667E-02
    1      -14.611540   1.000000
    2      -14.343057   1.000000
    3       -8.038958   1.000000
    4       -6.864327   1.000000
    5       -5.980042   1.000000
    6       -4.672467   1.000000
    7       -3.975194   1.000000
    8       -2.863265   1.000000
    9       -2.629034   1.000000
   10        0.654015   0.000000
   11        0.873442   0.000000
   12        1.901099   0.000000
   13        2.594141   0.000000
   14        2.922506   0.000000
   15        5.176360   0.000000
   16        5.262060   0.000000
   17        6.301198   0.000000
   18        6.796235   0.000000
 
  0.4591837E+00  0.4591837E+00  0.0000000E+00  0.6666667E-02
    1      -14.585796   1.000000
    2      -14.330696   1.000000
    3       -8.076208   1.000000
    4       -6.893938   1.000000
    5       -5.974835   1.000000