 vasp.5.4.4.18Apr17-6-g9f103f2a35 (build May 31 2018 21:15:54) complex          
  
 executed on          c7_intel_O1 date 2020.08.12  12:21:07
 running on   36 total cores
 distrk:  each k-point on   36 cores,    1 groups
 distr:  one band on NCORES_PER_BAND=   6 cores,    6 groups


--------------------------------------------------------------------------------------------------------


 INCAR:
 POTCAR:   PAW_PBE W 08Apr2002                    
 POTCAR:   PAW_PBE Se 06Sep2000                   
 POTCAR:   PAW_PBE W 08Apr2002                    
   VRHFIN =W : 6s5d                                                             
   LEXCH  = PE                                                                  
   EATOM  =   204.6100 eV,   15.0384 Ry                                         
                                                                                
   TITEL  = PAW_PBE W 08Apr2002                                                 
   LULTRA =        F    use ultrasoft PP ?                                      
   IUNSCR =        1    unscreen: 0-lin 1-nonlin 2-no                           
   RPACOR =    2.330    partial core radius                                     
   POMASS =  183.850; ZVAL   =    6.000    mass and valenz                      
   RCORE  =    2.750    outmost cutoff radius                                   
   RWIGS  =    2.750; RWIGS  =    1.455    wigner-seitz radius (au A)           
   ENMAX  =  223.057; ENMIN  =  167.293 eV                                      
   RCLOC  =    2.147    cutoff for local pot                                    
   LCOR   =        T    correct aug charges                                     
   LPAW   =        T    paw PP                                                  
   EAUG   =  373.438                                                            
   DEXC   =    -.060                                                            
   RMAX   =    3.087    core radius for proj-oper                               
   RAUG   =    1.300    factor for augmentation sphere                          
   RDEP   =    2.886    radius for radial grids                                 
   QCUT   =   -4.049; QGAM   =    8.098    optimization parameters              
                                                                                
   Description                                                                  
     l     E      TYP  RCUT    TYP  RCUT                                        
     2   .000     23  2.500                                                     
     2   .000     23  2.500                                                     
     0   .000     23  2.500                                                     
     0   .000     23  2.500                                                     
     1   .200     23  2.750                                                     
     1  2.000     23  2.750                                                     
     3   .000      7   .000                                                     
  local pseudopotential read in
  partial core-charges read in
  atomic valenz-charges read in
  non local Contribution for L=           2  read in
    real space projection operators read in
  non local Contribution for L=           2  read in
    real space projection operators read in
  non local Contribution for L=           0  read in
    real space projection operators read in
  non local Contribution for L=           0  read in
    real space projection operators read in
  non local Contribution for L=           1  read in
    real space projection operators read in
  non local Contribution for L=           1  read in
    real space projection operators read in
    PAW grid and wavefunctions read in
 
   number of l-projection  operators is LMAX  =           6
   number of lm-projection operators is LMMAX =          18
 
 POTCAR:   PAW_PBE Se 06Sep2000                   
   VRHFIN =Se: s2p4                                                             
   LEXCH  = PE                                                                  
   EATOM  =   256.9644 eV,   18.8864 Ry                                         
                                                                                
   TITEL  = PAW_PBE Se 06Sep2000                                                
   LULTRA =        F    use ultrasoft PP ?                                      
   IUNSCR =        1    unscreen: 0-lin 1-nonlin 2-no                           
   RPACOR =    1.900    partial core radius                                     
   POMASS =   78.960; ZVAL   =    6.000    mass and valenz                      
   RCORE  =    2.100    outmost cutoff radius                                   
   RWIGS  =    2.200; RWIGS  =    1.164    wigner-seitz radius (au A)           
   ENMAX  =  211.534; ENMIN  =  158.651 eV                                      
   ICORE  =        3    local potential                                         
   LCOR   =        T    correct aug charges                                     
   LPAW   =        T    paw PP                                                  
   EAUG   =  446.842                                                            
   DEXC   =    -.031                                                            
   RMAX   =    3.170    core radius for proj-oper                               
   RAUG   =    1.300    factor for augmentation sphere                          
   RDEP   =    2.177    radius for radial grids                                 
   QCUT   =   -3.943; QGAM   =    7.886    optimization parameters              
                                                                                
   Description                                                                  
     l     E      TYP  RCUT    TYP  RCUT                                        
     0   .000     23  2.100                                                     
     0   .000     23  2.100                                                     
     1   .000     23  2.100                                                     
     1   .000     23  2.100                                                     
     2   .000     23  2.100                                                     
     3  -.100      7  2.100                                                     
  local pseudopotential read in
  partial core-charges read in
  atomic valenz-charges read in
  non local Contribution for L=           0  read in
    real space projection operators read in
  non local Contribution for L=           0  read in
    real space projection operators read in
  non local Contribution for L=           1  read in
    real space projection operators read in
  non local Contribution for L=           1  read in
    real space projection operators read in
  non local Contribution for L=           2  read in
    real space projection operators read in
    PAW grid and wavefunctions read in
 
   number of l-projection  operators is LMAX  =           5
   number of lm-projection operators is LMMAX =          13
 
 WARNING: PSMAXN for non-local potential too small
          PSMAXN should be >   14.4904333269122       NTYP=           1
 PAW_PBE W 08Apr2002                    :
 energy of atom  1       EATOM= -204.6100
 kinetic energy error for atom=    0.0002 (will be added to EATOM!!)
 PAW_PBE Se 06Sep2000                   :
 energy of atom  2       EATOM= -256.9644
 kinetic energy error for atom=    0.0002 (will be added to EATOM!!)
 
 
 POSCAR: WSe2 Mono                               
  positions in direct lattice
  velocities in cartesian coordinates
 exchange correlation table for  LEXCH =        8
   RHO(1)=    0.500       N(1)  =     2000
   RHO(2)=  100.500       N(2)  =     4000
 


--------------------------------------------------------------------------------------------------------


 ion  position               nearest neighbor table
   1  1.000  0.000  0.000-   2 2.54   3 2.54   2 2.54   3 2.54   2 2.54   3 2.54
   2  0.333  0.333  0.915-   1 2.54   1 2.54   1 2.54
   3  0.333  0.333  0.085-   1 2.54   1 2.54   1 2.54
 
  LATTYP: Found a base centered orthorhombic cell.
 ALAT       =     3.2820000000
 B/A-ratio  =     1.7309445460
 C/A-ratio  =     6.0938452163
  
  Lattice vectors:
  
 A1 = (  -1.6410000000,  -2.8404800000,   0.0000000000)
 A2 = (  -1.6410000000,   2.8404800000,   0.0000000000)
 A3 = (   0.0000000000,   0.0000000000, -20.0000000000)


Analysis of symmetry for initial positions (statically):
=====================================================================
 Subroutine PRICEL returns:
 Original cell was already a primitive cell.
 

 Routine SETGRP: Setting up the symmetry group for a 
 base centered orthorhombic supercell.


 Subroutine GETGRP returns: Found  4 space group operations
 (whereof  4 operations were pure point group operations)
 out of a pool of  8 trial point group operations.


The static configuration has the point symmetry C_2v.


Analysis of symmetry for dynamics (positions and initial velocities):
=====================================================================
 Subroutine PRICEL returns:
 Original cell was already a primitive cell.
 

 Routine SETGRP: Setting up the symmetry group for a 
 base centered orthorhombic supercell.


 Subroutine GETGRP returns: Found  4 space group operations
 (whereof  4 operations were pure point group operations)
 out of a pool of  8 trial point group operations.


The dynamic configuration has the point symmetry C_2v.


 Subroutine INISYM returns: Found  4 space group operations
 (whereof  4 operations are pure point group operations),
 and found     1 'primitive' translations

 
 
 KPOINTS: k-points along high symmetry lines      
  interpolating k-points between supplied coordinates
  k-points in reciprocal lattice
Space group operators:
 irot       det(A)        alpha          n_x          n_y          n_z        tau_x        tau_y        tau_z
    1     1.000000     0.000000     1.000000     0.000000     0.000000     0.000000     0.000000     0.000000
    2    -1.000000   180.000000     0.000000     0.000000     1.000000     0.000000     0.000000     0.000000
    3     1.000000   180.000000     0.000000     1.000000     0.000000     0.000000     0.000000     0.000000
    4    -1.000000   180.000000     1.000000    -0.000000     0.000000     0.000000     0.000000     0.000000


--------------------------------------------------------------------------------------------------------




 Dimension of arrays:
   k-points           NKPTS =    150   k-points in BZ     NKDIM =    150   number of bands    NBANDS=     18
   number of dos      NEDOS =    301   number of ions     NIONS =      3
   non local maximal  LDIM  =      6   non local SUM 2l+1 LMDIM =     18
   total plane-waves  NPLWV = 172800
   max r-space proj   IRMAX =      1   max aug-charges    IRDMAX= 423367
   dimension x,y,z NGX =    30 NGY =   30 NGZ =  192
   dimension x,y,z NGXF=    60 NGYF=   60 NGZF=  384
   support grid    NGXF=   120 NGYF=  120 NGZF=  768
   ions per type =               1   2
   NGX,Y,Z   is equivalent  to a cutoff of  15.20, 15.20, 15.96 a.u.
   NGXF,Y,Z  is equivalent  to a cutoff of  30.39, 30.41, 31.92 a.u.

 SYSTEM =  W-1, se-2                               
 POSCAR =  WSe2 Mono                               

 Startparameter for this run:
   NWRITE =      2    write-flag & timer
   PREC   = accura    normal or accurate (medium, high low for compatibility)
   ISTART =      0    job   : 0-new  1-cont  2-samecut
   ICHARG =     11    charge: 1-file 2-atom 10-const
   ISPIN  =      1    spin polarized calculation?
   LNONCOLLINEAR =      F non collinear calculations
   LSORBIT =      F    spin-orbit coupling
   INIWAV =      1    electr: 0-lowe 1-rand  2-diag
   LASPH  =      F    aspherical Exc in radial PAW
   METAGGA=      F    non-selfconsistent MetaGGA calc.

 Electronic Relaxation 1
   ENCUT  =  800.0 eV  58.80 Ry    7.67 a.u.   7.57  7.57 46.12*2*pi/ulx,y,z
   ENINI  =  800.0     initial cutoff
   ENAUG  =  446.8 eV  augmentation charge cutoff
   NELM   =     60;   NELMIN=  5; NELMDL= -5     # of ELM steps 
   EDIFF  = 0.1E-07   stopping-criterion for ELM
   LREAL  =      F    real-space projection
   NLSPLINE    = F    spline interpolate recip. space projectors
   LCOMPAT=      F    compatible to vasp.4.4
   GGA_COMPAT  = T    GGA compatible to vasp.4.4-vasp.4.6
   LMAXPAW     = -100 max onsite density
   LMAXMIX     =    2 max onsite mixed and CHGCAR
   VOSKOWN=      0    Vosko Wilk Nusair interpolation
   ROPT   =    0.00000   0.00000
 Ionic relaxation
   EDIFFG = -.1E-07   stopping-criterion for IOM
   NSW    =      0    number of steps for IOM
   NBLOCK =      1;   KBLOCK =      1    inner block; outer block 
   IBRION =     -1    ionic relax: 0-MD 1-quasi-New 2-CG
   NFREE  =      0    steps in history (QN), initial steepest desc. (CG)
   ISIF   =      2    stress and relaxation
   IWAVPR =     10    prediction:  0-non 1-charg 2-wave 3-comb
   ISYM   =      2    0-nonsym 1-usesym 2-fastsym
   LCORR  =      T    Harris-Foulkes like correction to forces

   POTIM  = 0.5000    time-step for ionic-motion
   TEIN   =    0.0    initial temperature
   TEBEG  =    0.0;   TEEND  =   0.0 temperature during run
   SMASS  =  -3.00    Nose mass-parameter (am)
   estimated Nose-frequenzy (Omega)   =  0.10E-29 period in steps =****** mass=  -0.246E-27a.u.
   SCALEE = 1.0000    scale energy and forces
   NPACO  =    256;   APACO  = 16.0  distance and # of slots for P.C.
   PSTRESS=    0.0 pullay stress

  Mass of Ions in am
   POMASS = 183.85 78.96
  Ionic Valenz
   ZVAL   =   6.00  6.00
  Atomic Wigner-Seitz radii
   RWIGS  =  -1.00 -1.00
  virtual crystal weights 
   VCA    =   1.00  1.00
   NELECT =      18.0000    total number of electrons
   NUPDOWN=      -1.0000    fix difference up-down

 DOS related values:
   EMIN   =  10.00;   EMAX   =-10.00  energy-range for DOS
   EFERMI =   0.00
   ISMEAR =     0;   SIGMA  =   0.01  broadening in eV -4-tet -1-fermi 0-gaus

 Electronic relaxation 2 (details)
   IALGO  =     38    algorithm
   LDIAG  =      T    sub-space diagonalisation (order eigenvalues)
   LSUBROT=      F    optimize rotation matrix (better conditioning)
   TURBO    =      0    0=normal 1=particle mesh
   IRESTART =      0    0=no restart 2=restart with 2 vectors
   NREBOOT  =      0    no. of reboots
   NMIN     =      0    reboot dimension
   EREF     =   0.00    reference energy to select bands
   IMIX   =      4    mixing-type and parameters
     AMIX     =   0.40;   BMIX     =  1.00
     AMIX_MAG =   1.60;   BMIX_MAG =  1.00
     AMIN     =   0.01
     WC   =   100.;   INIMIX=   1;  MIXPRE=   1;  MAXMIX= -45

 Intra band minimization:
   WEIMIN = 0.0000     energy-eigenvalue tresh-hold
   EBREAK =  0.14E-10  absolut break condition
   DEPER  =   0.30     relativ break condition  

   TIME   =   0.40     timestep for ELM

  volume/ion in A,a.u.               =      62.15       419.41
  Fermi-wavevector in a.u.,A,eV,Ry     =   0.751010  1.419203  7.673898  0.564016
  Thomas-Fermi vector in A             =   1.847892
 
 Write flags
   LWAVE        =      F    write WAVECAR
   LDOWNSAMPLE  =      F    k-point downsampling of WAVECAR
   LCHARG       =      F    write CHGCAR
   LVTOT        =      F    write LOCPOT, total local potential
   LVHAR        =      F    write LOCPOT, Hartree potential only
   LELF         =      F    write electronic localiz. function (ELF)
   LORBIT       =      0    0 simple, 1 ext, 2 COOP (PROOUT), +10 PAW based schemes


 Dipole corrections
   LMONO  =      F    monopole corrections only (constant potential shift)
   LDIPOL =      F    correct potential (dipole corrections)
   IDIPOL =      0    1-x, 2-y, 3-z, 4-all directions 
   EPSILON=  1.0000000 bulk dielectric constant

 Exchange correlation treatment:
   GGA     =    --    GGA type
   LEXCH   =     8    internal setting for exchange type
   VOSKOWN=      0    Vosko Wilk Nusair interpolation
   LHFCALC =     F    Hartree Fock is set to
   LHFONE  =     F    Hartree Fock one center treatment
   AEXX    =    0.0000 exact exchange contribution

 Linear response parameters
   LEPSILON=     F    determine dielectric tensor
   LRPA    =     F    only Hartree local field effects (RPA)
   LNABLA  =     F    use nabla operator in PAW spheres
   LVEL    =     F    velocity operator in full k-point grid
   LINTERFAST=   F  fast interpolation
   KINTER  =     0    interpolate to denser k-point grid
   CSHIFT  =0.1000    complex shift for real part using Kramers Kronig
   OMEGAMAX=  -1.0    maximum frequency
   DEG_THRESHOLD= 0.2000000E-02 threshold for treating states as degnerate
   RTIME   =   -0.100 relaxation time in fs
  (WPLASMAI=    0.000 imaginary part of plasma frequency in eV, 0.658/RTIME)
   DFIELD  = 0.0000000 0.0000000 0.0000000 field for delta impulse in time
 
 Orbital magnetization related:
   ORBITALMAG=     F  switch on orbital magnetization
   LCHIMAG   =     F  perturbation theory with respect to B field
   DQ        =  0.001000  dq finite difference perturbation B field
   LLRAUG    =     F  two centre corrections for induced B field



--------------------------------------------------------------------------------------------------------


 Static calculation
 charge density and potential remain constant during run
 non-spin polarized calculation
 Variant of blocked Davidson
 Davidson routine will perform the subspace rotation
 perform sub-space diagonalisation
    after iterative eigenvector-optimisation
 no mixing
 using additional bands            9
 reciprocal scheme for non local part
 use partial core corrections
 calculate Harris-corrections to forces 
   (improved forces if not selfconsistent)
 use gradient corrections 
 WARNING: stress and forces are not correct
  (second derivative of E(xc) not defined)
 use of overlap-Matrix (Vanderbilt PP)
 Gauss-broadening in eV      SIGMA  =   0.01


--------------------------------------------------------------------------------------------------------


  energy-cutoff  :      800.00
  volume of cell :      186.45
      direct lattice vectors                 reciprocal lattice vectors
     3.282000000  0.000000000  0.000000000     0.304692261 -0.176026587  0.000000000
     1.641000000  2.840480000  0.000000000     0.000000000  0.352053174  0.000000000
     0.000000000  0.000000000 20.000000000     0.000000000  0.000000000  0.050000000

  length of vectors
     3.282000000  3.280427965 20.000000000     0.351884545  0.352053174  0.050000000


 
 k-points in units of 2pi/SCALE and weight: k-points along high symmetry lines      
   0.00000000  0.00000000  0.00000000       0.007
   0.00310910  0.00179619  0.00000000       0.007
   0.00621821  0.00359238  0.00000000       0.007
   0.00932731  0.00538857  0.00000000       0.007
   0.01243642  0.00718476  0.00000000       0.007
   0.01554552  0.00898095  0.00000000       0.007
   0.01865463  0.01077714  0.00000000       0.007
   0.02176373  0.01257333  0.00000000       0.007
   0.02487284  0.01436952  0.00000000       0.007
   0.02798194  0.01616571  0.00000000       0.007
   0.03109105  0.01796190  0.00000000       0.007
   0.03420015  0.01975809  0.00000000       0.007
   0.03730926  0.02155428  0.00000000       0.007
   0.04041836  0.02335047  0.00000000       0.007
   0.04352747  0.02514666  0.00000000       0.007
   0.04663657  0.02694284  0.00000000       0.007
   0.04974568  0.02873903  0.00000000       0.007
   0.05285478  0.03053522  0.00000000       0.007
   0.05596388  0.03233141  0.00000000       0.007
   0.05907299  0.03412760  0.00000000       0.007
   0.06218209  0.03592379  0.00000000       0.007
   0.06529120  0.03771998  0.00000000       0.007
   0.06840030  0.03951617  0.00000000       0.007
   0.07150941  0.04131236  0.00000000       0.007
   0.07461851  0.04310855  0.00000000       0.007
   0.07772762  0.04490474  0.00000000       0.007
   0.08083672  0.04670093  0.00000000       0.007
   0.08394583  0.04849712  0.00000000       0.007
   0.08705493  0.05029331  0.00000000       0.007
   0.09016404  0.05208950  0.00000000       0.007
   0.09327314  0.05388569  0.00000000       0.007
   0.09638225  0.05568188  0.00000000       0.007
   0.09949135  0.05747807  0.00000000       0.007
   0.10260046  0.05927426  0.00000000       0.007
   0.10570956  0.06107045  0.00000000       0.007
   0.10881866  0.06286664  0.00000000       0.007
   0.11192777  0.06466283  0.00000000       0.007
   0.11503687  0.06645902  0.00000000       0.007
   0.11814598  0.06825521  0.00000000       0.007
   0.12125508  0.07005140  0.00000000       0.007
   0.12436419  0.07184759  0.00000000       0.007
   0.12747329  0.07364378  0.00000000       0.007
   0.13058240  0.07543997  0.00000000       0.007
   0.13369150  0.07723616  0.00000000       0.007
   0.13680061  0.07903235  0.00000000       0.007
   0.13990971  0.08082853  0.00000000       0.007
   0.14301882  0.08262472  0.00000000       0.007
   0.14612792  0.08442091  0.00000000       0.007
   0.14923703  0.08621710  0.00000000       0.007
   0.15234613  0.08801329  0.00000000       0.007
   0.15234613  0.08801329  0.00000000       0.007
   0.15338250  0.08621710  0.00000000       0.007
   0.15441887  0.08442091  0.00000000       0.007
   0.15545524  0.08262471  0.00000000       0.007
   0.15649161  0.08082852  0.00000000       0.007
   0.15752798  0.07903233  0.00000000       0.007
   0.15856435  0.07723613  0.00000000       0.007
   0.15960072  0.07543994  0.00000000       0.007
   0.16063709  0.07364375  0.00000000       0.007
   0.16167346  0.07184755  0.00000000       0.007
   0.16270983  0.07005136  0.00000000       0.007
   0.16374620  0.06825517  0.00000000       0.007
   0.16478257  0.06645897  0.00000000       0.007
   0.16581894  0.06466278  0.00000000       0.007
   0.16685531  0.06286659  0.00000000       0.007
   0.16789169  0.06107039  0.00000000       0.007
   0.16892806  0.05927420  0.00000000       0.007
   0.16996443  0.05747801  0.00000000       0.007
   0.17100080  0.05568181  0.00000000       0.007
   0.17203717  0.05388562  0.00000000       0.007
   0.17307354  0.05208943  0.00000000       0.007
   0.17410991  0.05029324  0.00000000       0.007
   0.17514628  0.04849704  0.00000000       0.007
   0.17618265  0.04670085  0.00000000       0.007
   0.17721902  0.04490466  0.00000000       0.007
   0.17825539  0.04310846  0.00000000       0.007
   0.17929176  0.04131227  0.00000000       0.007
   0.18032813  0.03951608  0.00000000       0.007
   0.18136450  0.03771988  0.00000000       0.007
   0.18240087  0.03592369  0.00000000       0.007
   0.18343724  0.03412750  0.00000000       0.007
   0.18447361  0.03233130  0.00000000       0.007
   0.18550998  0.03053511  0.00000000       0.007
   0.18654635  0.02873892  0.00000000       0.007
   0.18758272  0.02694272  0.00000000       0.007
   0.18861909  0.02514653  0.00000000       0.007
   0.18965546  0.02335034  0.00000000       0.007
   0.19069183  0.02155414  0.00000000       0.007
   0.19172820  0.01975795  0.00000000       0.007
   0.19276457  0.01796176  0.00000000       0.007
   0.19380094  0.01616556  0.00000000       0.007
   0.19483731  0.01436937  0.00000000       0.007
   0.19587368  0.01257318  0.00000000       0.007
   0.19691005  0.01077698  0.00000000       0.007
   0.19794642  0.00898079  0.00000000       0.007
   0.19898279  0.00718460  0.00000000       0.007
   0.20001916  0.00538840  0.00000000       0.007
   0.20105553  0.00359221  0.00000000       0.007
   0.20209191  0.00179602  0.00000000       0.007
   0.20312828 -0.00000018  0.00000000       0.007
   0.20312828 -0.00000018  0.00000000       0.007
   0.19898280 -0.00000017  0.00000000       0.007
   0.19483733 -0.00000017  0.00000000       0.007
   0.19069185 -0.00000017  0.00000000       0.007
   0.18654638 -0.00000016  0.00000000       0.007
   0.18240090 -0.00000016  0.00000000       0.007
   0.17825543 -0.00000015  0.00000000       0.007
   0.17410995 -0.00000015  0.00000000       0.007
   0.16996448 -0.00000015  0.00000000       0.007
   0.16581900 -0.00000014  0.00000000       0.007
   0.16167353 -0.00000014  0.00000000       0.007
   0.15752805 -0.00000014  0.00000000       0.007
   0.15338258 -0.00000013  0.00000000       0.007
   0.14923710 -0.00000013  0.00000000       0.007
   0.14509163 -0.00000013  0.00000000       0.007
   0.14094615 -0.00000012  0.00000000       0.007
   0.13680068 -0.00000012  0.00000000       0.007
   0.13265520 -0.00000011  0.00000000       0.007
   0.12850973 -0.00000011  0.00000000       0.007
   0.12436425 -0.00000011  0.00000000       0.007
   0.12021878 -0.00000010  0.00000000       0.007
   0.11607330 -0.00000010  0.00000000       0.007
   0.11192783 -0.00000010  0.00000000       0.007
   0.10778235 -0.00000009  0.00000000       0.007
   0.10363688 -0.00000009  0.00000000       0.007
   0.09949140 -0.00000009  0.00000000       0.007
   0.09534593 -0.00000008  0.00000000       0.007
   0.09120045 -0.00000008  0.00000000       0.007
   0.08705498 -0.00000008  0.00000000       0.007
   0.08290950 -0.00000007  0.00000000       0.007
   0.07876403 -0.00000007  0.00000000       0.007
   0.07461855 -0.00000006  0.00000000       0.007
   0.07047308 -0.00000006  0.00000000       0.007
   0.06632760 -0.00000006  0.00000000       0.007
   0.06218213 -0.00000005  0.00000000       0.007
   0.05803665 -0.00000005  0.00000000       0.007
   0.05389118 -0.00000005  0.00000000       0.007
   0.04974570 -0.00000004  0.00000000       0.007
   0.04560023 -0.00000004  0.00000000       0.007
   0.04145475 -0.00000004  0.00000000       0.007
   0.03730928 -0.00000003  0.00000000       0.007
   0.03316380 -0.00000003  0.00000000       0.007
   0.02901833 -0.00000003  0.00000000       0.007
   0.02487285 -0.00000002  0.00000000       0.007
   0.02072738 -0.00000002  0.00000000       0.007
   0.01658190 -0.00000001  0.00000000       0.007
   0.01243643 -0.00000001  0.00000000       0.007
   0.00829095 -0.00000001  0.00000000       0.007
   0.00414548 -0.00000000  0.00000000       0.007
  -0.00000000  0.00000000  0.00000000       0.007
 
 k-points in reciprocal lattice and weights: k-points along high symmetry lines      
   0.00000000  0.00000000  0.00000000       0.007
   0.01020408  0.01020408  0.00000000       0.007
   0.02040816  0.02040816  0.00000000       0.007
   0.03061224  0.03061224  0.00000000       0.007
   0.04081633  0.04081633  0.00000000       0.007
   0.05102041  0.05102041  0.00000000       0.007
   0.06122449  0.06122449  0.00000000       0.007
   0.07142857  0.07142857  0.00000000       0.007
   0.08163265  0.08163265  0.00000000       0.007
   0.09183673  0.09183673  0.00000000       0.007
   0.10204082  0.10204082  0.00000000       0.007
   0.11224490  0.11224490  0.00000000       0.007
   0.12244898  0.12244898  0.00000000       0.007
   0.13265306  0.13265306  0.00000000       0.007
   0.14285714  0.14285714  0.00000000       0.007
   0.15306122  0.15306122  0.00000000       0.007
   0.16326531  0.16326531  0.00000000       0.007
   0.17346939  0.17346939  0.00000000       0.007
   0.18367347  0.18367347  0.00000000       0.007
   0.19387755  0.19387755  0.00000000       0.007
   0.20408163  0.20408163  0.00000000       0.007
   0.21428571  0.21428571  0.00000000       0.007
   0.22448980  0.22448980  0.00000000       0.007
   0.23469388  0.23469388  0.00000000       0.007
   0.24489796  0.24489796  0.00000000       0.007
   0.25510204  0.25510204  0.00000000       0.007
   0.26530612  0.26530612  0.00000000       0.007
   0.27551020  0.27551020  0.00000000       0.007
   0.28571429  0.28571429  0.00000000       0.007
   0.29591837  0.29591837  0.00000000       0.007
   0.30612245  0.30612245  0.00000000       0.007
   0.31632653  0.31632653  0.00000000       0.007
   0.32653061  0.32653061  0.00000000       0.007
   0.33673469  0.33673469  0.00000000       0.007
   0.34693878  0.34693878  0.00000000       0.007
   0.35714286  0.35714286  0.00000000       0.007
   0.36734694  0.36734694  0.00000000       0.007
   0.37755102  0.37755102  0.00000000       0.007
   0.38775510  0.38775510  0.00000000       0.007
   0.39795918  0.39795918  0.00000000       0.007
   0.40816327  0.40816327  0.00000000       0.007
   0.41836735  0.41836735  0.00000000       0.007
   0.42857143  0.42857143  0.00000000       0.007
   0.43877551  0.43877551  0.00000000       0.007
   0.44897959  0.44897959  0.00000000       0.007
   0.45918367  0.45918367  0.00000000       0.007
   0.46938776  0.46938776  0.00000000       0.007
   0.47959184  0.47959184  0.00000000       0.007
   0.48979592  0.48979592  0.00000000       0.007
   0.50000000  0.50000000  0.00000000       0.007
   0.50000000  0.50000000  0.00000000       0.007
   0.50340137  0.49659863  0.00000000       0.007
   0.50680273  0.49319727  0.00000000       0.007
   0.51020410  0.48979590  0.00000000       0.007
   0.51360547  0.48639453  0.00000000       0.007
   0.51700684  0.48299316  0.00000000       0.007
   0.52040820  0.47959180  0.00000000       0.007
   0.52380957  0.47619043  0.00000000       0.007
   0.52721094  0.47278906  0.00000000       0.007
   0.53061231  0.46938769  0.00000000       0.007
   0.53401367  0.46598633  0.00000000       0.007
   0.53741504  0.46258496  0.00000000       0.007
   0.54081641  0.45918359  0.00000000       0.007
   0.54421778  0.45578222  0.00000000       0.007
   0.54761914  0.45238086  0.00000000       0.007
   0.55102051  0.44897949  0.00000000       0.007
   0.55442188  0.44557812  0.00000000       0.007
   0.55782324  0.44217676  0.00000000       0.007
   0.56122461  0.43877539  0.00000000       0.007
   0.56462598  0.43537402  0.00000000       0.007
   0.56802735  0.43197265  0.00000000       0.007
   0.57142871  0.42857129  0.00000000       0.007
   0.57483008  0.42516992  0.00000000       0.007
   0.57823145  0.42176855  0.00000000       0.007
   0.58163282  0.41836718  0.00000000       0.007
   0.58503418  0.41496582  0.00000000       0.007
   0.58843555  0.41156445  0.00000000       0.007
   0.59183692  0.40816308  0.00000000       0.007
   0.59523829  0.40476171  0.00000000       0.007
   0.59863965  0.40136035  0.00000000       0.007
   0.60204102  0.39795898  0.00000000       0.007
   0.60544239  0.39455761  0.00000000       0.007
   0.60884376  0.39115624  0.00000000       0.007
   0.61224512  0.38775488  0.00000000       0.007
   0.61564649  0.38435351  0.00000000       0.007
   0.61904786  0.38095214  0.00000000       0.007
   0.62244922  0.37755078  0.00000000       0.007
   0.62585059  0.37414941  0.00000000       0.007
   0.62925196  0.37074804  0.00000000       0.007
   0.63265333  0.36734667  0.00000000       0.007
   0.63605469  0.36394531  0.00000000       0.007
   0.63945606  0.36054394  0.00000000       0.007
   0.64285743  0.35714257  0.00000000       0.007
   0.64625880  0.35374120  0.00000000       0.007
   0.64966016  0.35033984  0.00000000       0.007
   0.65306153  0.34693847  0.00000000       0.007
   0.65646290  0.34353710  0.00000000       0.007
   0.65986427  0.34013573  0.00000000       0.007
   0.66326563  0.33673437  0.00000000       0.007
   0.66666700  0.33333300  0.00000000       0.007
   0.66666700  0.33333300  0.00000000       0.007
   0.65306155  0.32653029  0.00000000       0.007
   0.63945610  0.31972757  0.00000000       0.007
   0.62585065  0.31292486  0.00000000       0.007
   0.61224520  0.30612214  0.00000000       0.007
   0.59863976  0.29931943  0.00000000       0.007
   0.58503431  0.29251671  0.00000000       0.007
   0.57142886  0.28571400  0.00000000       0.007
   0.55782341  0.27891129  0.00000000       0.007
   0.54421796  0.27210857  0.00000000       0.007
   0.53061251  0.26530586  0.00000000       0.007
   0.51700706  0.25850314  0.00000000       0.007
   0.50340161  0.25170043  0.00000000       0.007
   0.48979616  0.24489771  0.00000000       0.007
   0.47619071  0.23809500  0.00000000       0.007
   0.46258527  0.23129229  0.00000000       0.007
   0.44897982  0.22448957  0.00000000       0.007
   0.43537437  0.21768686  0.00000000       0.007
   0.42176892  0.21088414  0.00000000       0.007
   0.40816347  0.20408143  0.00000000       0.007
   0.39455802  0.19727871  0.00000000       0.007
   0.38095257  0.19047600  0.00000000       0.007
   0.36734712  0.18367329  0.00000000       0.007
   0.35374167  0.17687057  0.00000000       0.007
   0.34013622  0.17006786  0.00000000       0.007
   0.32653078  0.16326514  0.00000000       0.007
   0.31292533  0.15646243  0.00000000       0.007
   0.29931988  0.14965971  0.00000000       0.007
   0.28571443  0.14285700  0.00000000       0.007
   0.27210898  0.13605429  0.00000000       0.007
   0.25850353  0.12925157  0.00000000       0.007
   0.24489808  0.12244886  0.00000000       0.007
   0.23129263  0.11564614  0.00000000       0.007
   0.21768718  0.10884343  0.00000000       0.007
   0.20408173  0.10204071  0.00000000       0.007
   0.19047629  0.09523800  0.00000000       0.007
   0.17687084  0.08843529  0.00000000       0.007
   0.16326539  0.08163257  0.00000000       0.007
   0.14965994  0.07482986  0.00000000       0.007
   0.13605449  0.06802714  0.00000000       0.007
   0.12244904  0.06122443  0.00000000       0.007
   0.10884359  0.05442171  0.00000000       0.007
   0.09523814  0.04761900  0.00000000       0.007
   0.08163269  0.04081629  0.00000000       0.007
   0.06802724  0.03401357  0.00000000       0.007
   0.05442180  0.02721086  0.00000000       0.007
   0.04081635  0.02040814  0.00000000       0.007
   0.02721090  0.01360543  0.00000000       0.007
   0.01360545  0.00680271  0.00000000       0.007
  -0.00000000  0.00000000  0.00000000       0.007
 
 position of ions in fractional coordinates (direct lattice) 
   0.99990000  0.00020000  0.00000000
   0.33327700  0.33344600  0.91545900
   0.33327700  0.33344600  0.08454100
 
 position of ions in cartesian coordinates  (Angst):
   3.28200000  0.00056810  0.00000000
   1.64100000  0.94714669 18.30918000
   1.64100000  0.94714669  1.69082000
 


--------------------------------------------------------------------------------------------------------


 k-point  1 :   0.0000 0.0000 0.0000  plane waves:    9575
 k-point  2 :   0.0102 0.0102 0.0000  plane waves:    9586
 k-point  3 :   0.0204 0.0204 0.0000  plane waves:    9599
 k-point  4 :   0.0306 0.0306 0.0000  plane waves:    9603
 k-point  5 :   0.0408 0.0408 0.0000  plane waves:    9605
 k-point  6 :   0.0510 0.0510 0.0000  plane waves:    9611
 k-point  7 :   0.0612 0.0612 0.0000  plane waves:    9625
 k-point  8 :   0.0714 0.0714 0.0000  plane waves:    9629
 k-point  9 :   0.0816 0.0816 0.0000  plane waves:    9623
 k-point 10 :   0.0918 0.0918 0.0000  plane waves:    9617
 k-point 11 :   0.1020 0.1020 0.0000  plane waves:    9623
 k-point 12 :   0.1122 0.1122 0.0000  plane waves:    9631
 k-point 13 :   0.1224 0.1224 0.0000  plane waves:    9639
 k-point 14 :   0.1327 0.1327 0.0000  plane waves:    9635
 k-point 15 :   0.1429 0.1429 0.0000  plane waves:    9633
 k-point 16 :   0.1531 0.1531 0.0000  plane waves:    9631
 k-point 17 :   0.1633 0.1633 0.0000  plane waves:    9639
 k-point 18 :   0.1735 0.1735 0.0000  plane waves:    9639
 k-point 19 :   0.1837 0.1837 0.0000  plane waves:    9635
 k-point 20 :   0.1939 0.1939 0.0000  plane waves:    9627
 k-point 21 :   0.2041 0.2041 0.0000  plane waves:    9627
 k-point 22 :   0.2143 0.2143 0.0000  plane waves:    9625
 k-point 23 :   0.2245 0.2245 0.0000  plane waves:    9641
 k-point 24 :   0.2347 0.2347 0.0000  plane waves:    9641
 k-point 25 :   0.2449 0.2449 0.0000  plane waves:    9639
 k-point 26 :   0.2551 0.2551 0.0000  plane waves:    9631
 k-point 27 :   0.2653 0.2653 0.0000  plane waves:    9633
 k-point 28 :   0.2755 0.2755 0.0000  plane waves:    9621
 k-point 29 :   0.2857 0.2857 0.0000  plane waves:    9615
 k-point 30 :   0.2959 0.2959 0.0000  plane waves:    9613
 k-point 31 :   0.3061 0.3061 0.0000  plane waves:    9609
 k-point 32 :   0.3163 0.3163 0.0000  plane waves:    9601
 k-point 33 :   0.3265 0.3265 0.0000  plane waves:    9593
 k-point 34 :   0.3367 0.3367 0.0000  plane waves:    9597
 k-point 35 :   0.3469 0.3469 0.0000  plane waves:    9583
 k-point 36 :   0.3571 0.3571 0.0000  plane waves:    9593
 k-point 37 :   0.3673 0.3673 0.0000  plane waves:    9601
 k-point 38 :   0.3776 0.3776 0.0000  plane waves:    9589
 k-point 39 :   0.3878 0.3878 0.0000  plane waves:    9585
 k-point 40 :   0.3980 0.3980 0.0000  plane waves:    9573
 k-point 41 :   0.4082 0.4082 0.0000  plane waves:    9565
 k-point 42 :   0.4184 0.4184 0.0000  plane waves:    9546
 k-point 43 :   0.4286 0.4286 0.0000  plane waves:    9545
 k-point 44 :   0.4388 0.4388 0.0000  plane waves:    9536
 k-point 45 :   0.4490 0.4490 0.0000  plane waves:    9542
 k-point 46 :   0.4592 0.4592 0.0000  plane waves:    9538
 k-point 47 :   0.4694 0.4694 0.0000  plane waves:    9552
 k-point 48 :   0.4796 0.4796 0.0000  plane waves:    9542
 k-point 49 :   0.4898 0.4898 0.0000  plane waves:    9550
 k-point 50 :   0.5000 0.5000 0.0000  plane waves:    9554
 k-point 51 :   0.5000 0.5000 0.0000  plane waves:    9554
 k-point 52 :   0.5034 0.4966 0.0000  plane waves:    9552
 k-point 53 :   0.5068 0.4932 0.0000  plane waves:    9556
 k-point 54 :   0.5102 0.4898 0.0000  plane waves:    9558
 k-point 55 :   0.5136 0.4864 0.0000  plane waves:    9562
 k-point 56 :   0.5170 0.4830 0.0000  plane waves:    9558
 k-point 57 :   0.5204 0.4796 0.0000  plane waves:    9555
 k-point 58 :   0.5238 0.4762 0.0000  plane waves:    9555
 k-point 59 :   0.5272 0.4728 0.0000  plane waves:    9552
 k-point 60 :   0.5306 0.4694 0.0000  plane waves:    9544
 k-point 61 :   0.5340 0.4660 0.0000  plane waves:    9550
 k-point 62 :   0.5374 0.4626 0.0000  plane waves:    9558
 k-point 63 :   0.5408 0.4592 0.0000  plane waves:    9562
 k-point 64 :   0.5442 0.4558 0.0000  plane waves:    9552
 k-point 65 :   0.5476 0.4524 0.0000  plane waves:    9558
 k-point 66 :   0.5510 0.4490 0.0000  plane waves:    9564
 k-point 67 :   0.5544 0.4456 0.0000  plane waves:    9561
 k-point 68 :   0.5578 0.4422 0.0000  plane waves:    9561
 k-point 69 :   0.5612 0.4388 0.0000  plane waves:    9556
 k-point 70 :   0.5646 0.4354 0.0000  plane waves:    9558
 k-point 71 :   0.5680 0.4320 0.0000  plane waves:    9558
 k-point 72 :   0.5714 0.4286 0.0000  plane waves:    9554
 k-point 73 :   0.5748 0.4252 0.0000  plane waves:    9556
 k-point 74 :   0.5782 0.4218 0.0000  plane waves:    9558
 k-point 75 :   0.5816 0.4184 0.0000  plane waves:    9556
 k-point 76 :   0.5850 0.4150 0.0000  plane waves:    9556
 k-point 77 :   0.5884 0.4116 0.0000  plane waves:    9548
 k-point 78 :   0.5918 0.4082 0.0000  plane waves:    9550
 k-point 79 :   0.5952 0.4048 0.0000  plane waves:    9546
 k-point 80 :   0.5986 0.4014 0.0000  plane waves:    9536
 k-point 81 :   0.6020 0.3980 0.0000  plane waves:    9527
 k-point 82 :   0.6054 0.3946 0.0000  plane waves:    9532
 k-point 83 :   0.6088 0.3912 0.0000  plane waves:    9528
 k-point 84 :   0.6122 0.3878 0.0000  plane waves:    9518
 k-point 85 :   0.6156 0.3844 0.0000  plane waves:    9518
 k-point 86 :   0.6190 0.3810 0.0000  plane waves:    9518
 k-point 87 :   0.6224 0.3776 0.0000  plane waves:    9530
 k-point 88 :   0.6259 0.3741 0.0000  plane waves:    9536
 k-point 89 :   0.6293 0.3707 0.0000  plane waves:    9534
 k-point 90 :   0.6327 0.3673 0.0000  plane waves:    9528
 k-point 91 :   0.6361 0.3639 0.0000  plane waves:    9527
 k-point 92 :   0.6395 0.3605 0.0000  plane waves:    9532
 k-point 93 :   0.6429 0.3571 0.0000  plane waves:    9542
 k-point 94 :   0.6463 0.3537 0.0000  plane waves:    9546
 k-point 95 :   0.6497 0.3503 0.0000  plane waves:    9542
 k-point 96 :   0.6531 0.3469 0.0000  plane waves:    9540
 k-point 97 :   0.6565 0.3435 0.0000  plane waves:    9540
 k-point 98 :   0.6599 0.3401 0.0000  plane waves:    9534
 k-point 99 :   0.6633 0.3367 0.0000  plane waves:    9530
 k-point ** :   0.6667 0.3333 0.0000  plane waves:    9524
 k-point ** :   0.6667 0.3333 0.0000  plane waves:    9524
 k-point ** :   0.6531 0.3265 0.0000  plane waves:    9540
 k-point ** :   0.6395 0.3197 0.0000  plane waves:    9548
 k-point ** :   0.6259 0.3129 0.0000  plane waves:    9556
 k-point ** :   0.6122 0.3061 0.0000  plane waves:    9556
 k-point ** :   0.5986 0.2993 0.0000  plane waves:    9548
 k-point ** :   0.5850 0.2925 0.0000  plane waves:    9552
 k-point ** :   0.5714 0.2857 0.0000  plane waves:    9538
 k-point ** :   0.5578 0.2789 0.0000  plane waves:    9540
 k-point ** :   0.5442 0.2721 0.0000  plane waves:    9548
 k-point ** :   0.5306 0.2653 0.0000  plane waves:    9534
 k-point ** :   0.5170 0.2585 0.0000  plane waves:    9524
 k-point ** :   0.5034 0.2517 0.0000  plane waves:    9520
 k-point ** :   0.4898 0.2449 0.0000  plane waves:    9536
 k-point ** :   0.4762 0.2381 0.0000  plane waves:    9556
 k-point ** :   0.4626 0.2313 0.0000  plane waves:    9552
 k-point ** :   0.4490 0.2245 0.0000  plane waves:    9558
 k-point ** :   0.4354 0.2177 0.0000  plane waves:    9558
 k-point ** :   0.4218 0.2109 0.0000  plane waves:    9563
 k-point ** :   0.4082 0.2041 0.0000  plane waves:    9583
 k-point ** :   0.3946 0.1973 0.0000  plane waves:    9585
 k-point ** :   0.3810 0.1905 0.0000  plane waves:    9581
 k-point ** :   0.3673 0.1837 0.0000  plane waves:    9579
 k-point ** :   0.3537 0.1769 0.0000  plane waves:    9593
 k-point ** :   0.3401 0.1701 0.0000  plane waves:    9605
 k-point ** :   0.3265 0.1633 0.0000  plane waves:    9611
 k-point ** :   0.3129 0.1565 0.0000  plane waves:    9599
 k-point ** :   0.2993 0.1497 0.0000  plane waves:    9599
 k-point ** :   0.2857 0.1429 0.0000  plane waves:    9601
 k-point ** :   0.2721 0.1361 0.0000  plane waves:    9609
 k-point ** :   0.2585 0.1293 0.0000  plane waves:    9615
 k-point ** :   0.2449 0.1224 0.0000  plane waves:    9627
 k-point ** :   0.2313 0.1156 0.0000  plane waves:    9611
 k-point ** :   0.2177 0.1088 0.0000  plane waves:    9605
 k-point ** :   0.2041 0.1020 0.0000  plane waves:    9613
 k-point ** :   0.1905 0.0952 0.0000  plane waves:    9605
 k-point ** :   0.1769 0.0884 0.0000  plane waves:    9605
 k-point ** :   0.1633 0.0816 0.0000  plane waves:    9613
 k-point ** :   0.1497 0.0748 0.0000  plane waves:    9605
 k-point ** :   0.1361 0.0680 0.0000  plane waves:    9615
 k-point ** :   0.1224 0.0612 0.0000  plane waves:    9631
 k-point ** :   0.1088 0.0544 0.0000  plane waves:    9617
 k-point ** :   0.0952 0.0476 0.0000  plane waves:    9605
 k-point ** :   0.0816 0.0408 0.0000  plane waves:    9605
 k-point ** :   0.0680 0.0340 0.0000  plane waves:    9609
 k-point ** :   0.0544 0.0272 0.0000  plane waves:    9595
 k-point ** :   0.0408 0.0204 0.0000  plane waves:    9597
 k-point ** :   0.0272 0.0136 0.0000  plane waves:    9589
 k-point ** :   0.0136 0.0068 0.0000  plane waves:    9595
 k-point ** :  -0.0000 0.0000 0.0000  plane waves:    9575

 maximum and minimum number of plane-waves per node :      1621     1566

 maximum number of plane-waves:      9641
 maximum index in each direction: 
   IXMAX=    7   IYMAX=    7   IZMAX=   46
   IXMIN=   -8   IYMIN=   -8   IZMIN=  -46


 parallel 3D FFT for wavefunctions:
    minimum data exchange during FFTs selected (reduces bandwidth)
 parallel 3D FFT for charge:
    minimum data exchange during FFTs selected (reduces bandwidth)


 total amount of memory used by VASP MPI-rank0   122619. kBytes
=======================================================================

   base      :      30000. kBytes
   nonl-proj :      69802. kBytes
   fftplans  :       7308. kBytes
   grid      :       3744. kBytes
   one-center:         15. kBytes
   wavefun   :      11750. kBytes
 
     INWAV:  cpu time    0.0000: real time    0.0001
 initial charge density was supplied:
 number of electron      18.0000000 magnetization 
 keeping initial charge density in first step


--------------------------------------------------------------------------------------------------------


 Maximum index for augmentation-charges        15399 (set IRDMAX)


--------------------------------------------------------------------------------------------------------


 First call to EWALD:  gamma=   0.310
 Maximum number of real-space cells 5x 5x 1
 Maximum number of reciprocal cells 2x 2x 8

    FEWALD:  cpu time    0.0012: real time    0.0012


--------------------------------------- Iteration      1(   1)  ---------------------------------------


    POTLOK:  cpu time    0.0230: real time    0.0424
    SETDIJ:  cpu time    0.0322: real time    0.0322
     EDDAV:  cpu time    1.7816: real time    1.7859
       DOS:  cpu time    0.0012: real time    0.0012
    --------------------------------------------
      LOOP:  cpu time    1.8379: real time    1.8617

 eigenvalue-minimisations  :  5400
 total energy-change (2. order) : 0.1191943E+03  (-0.7632791E+03)
 number of electron      18.0000000 magnetization 
 augmentation part       18.0000000 magnetization 

 Free energy of the ion-electron system (eV)
  ---------------------------------------------------
  alpha Z        PSCENC =        22.94334738
  Ewald energy   TEWEN  =      2158.26868162
  -Hartree energ DENC   =     -2831.72882871
  -exchange      EXHF   =         0.00000000
  -V(xc)+E(xc)   XCENC  =       -47.72554305
  PAW double counting   =       466.06334086     -380.94912685
  entropy T*S    EENTRO =        -0.00011764
  eigenvalues    EBANDS =        13.78448316
  atomic energy  EATOM  =       718.53809099
  Solvation  Ediel_sol  =         0.00000000
  ---------------------------------------------------
  free energy    TOTEN  =       119.19432776 eV

  energy without entropy =      119.19444539  energy(sigma->0) =      119.19438657


--------------------------------------------------------------------------------------------------------




--------------------------------------- Iteration      1(   2)  ---------------------------------------


     EDDAV:  cpu time    2.4653: real time    2.4746
       DOS:  cpu time    0.0005: real time    0.0005
    --------------------------------------------
      LOOP:  cpu time    2.4658: real time    2.4751

 eigenvalue-minimisations  :  8568
 total energy-change (2. order) :-0.1286391E+03  (-0.1187741E+03)
 number of electron      18.0000000 magnetization 
 augmentation part       18.0000000 magnetization 

 Free energy of the ion-electron system (eV)
  ---------------------------------------------------
  alpha Z        PSCENC =        22.94334738
  Ewald energy   TEWEN  =      2158.26868162
  -Hartree energ DENC   =     -2831.72882871
  -exchange      EXHF   =         0.00000000
  -V(xc)+E(xc)   XCENC  =       -47.72554305
  PAW double counting   =       466.06334086     -380.94912685
  entropy T*S    EENTRO =        -0.00000000
  eigenvalues    EBANDS =      -114.85474914
  atomic energy  EATOM  =       718.53809099
  Solvation  Ediel_sol  =         0.00000000
  ---------------------------------------------------
  free energy    TOTEN  =        -9.44478691 eV

  energy without entropy =       -9.44478691  energy(sigma->0) =       -9.44478691


--------------------------------------------------------------------------------------------------------




--------------------------------------- Iteration      1(   3)  ---------------------------------------


     EDDAV:  cpu time    2.1977: real time    2.2031
       DOS:  cpu time    0.0005: real time    0.0005
    --------------------------------------------
      LOOP:  cpu time    2.1982: real time    2.2035

 eigenvalue-minimisations  :  7266
 total energy-change (2. order) :-0.1160777E+02  (-0.1143362E+02)
 number of electron      18.0000000 magnetization 
 augmentation part       18.0000000 magnetization 

 Free energy of the ion-electron system (eV)
  ---------------------------------------------------
  alpha Z        PSCENC =        22.94334738
  Ewald energy   TEWEN  =      2158.26868162
  -Hartree energ DENC   =     -2831.72882871
  -exchange      EXHF   =         0.00000000
  -V(xc)+E(xc)   XCENC  =       -47.72554305
  PAW double counting   =       466.06334086     -380.94912685
  entropy T*S    EENTRO =        -0.00000000
  eigenvalues    EBANDS =      -126.46251894
  atomic energy  EATOM  =       718.53809099
  Solvation  Ediel_sol  =         0.00000000
  ---------------------------------------------------
  free energy    TOTEN  =       -21.05255670 eV

  energy without entropy =      -21.05255670  energy(sigma->0) =      -21.05255670


--------------------------------------------------------------------------------------------------------




--------------------------------------- Iteration      1(   4)  ---------------------------------------


     EDDAV:  cpu time    2.2305: real time    2.2359
       DOS:  cpu time    0.0005: real time    0.0005
    --------------------------------------------
      LOOP:  cpu time    2.2309: real time    2.2363

 eigenvalue-minimisations  :  7122
 total energy-change (2. order) :-0.1906974E+00  (-0.1904039E+00)
 number of electron      18.0000000 magnetization 
 augmentation part       18.0000000 magnetization 

 Free energy of the ion-electron system (eV)
  ---------------------------------------------------
  alpha Z        PSCENC =        22.94334738
  Ewald energy   TEWEN  =      2158.26868162
  -Hartree energ DENC   =     -2831.72882871
  -exchange      EXHF   =         0.00000000
  -V(xc)+E(xc)   XCENC  =       -47.72554305
  PAW double counting   =       466.06334086     -380.94912685
  entropy T*S    EENTRO =        -0.00000000
  eigenvalues    EBANDS =      -126.65321629
  atomic energy  EATOM  =       718.53809099
  Solvation  Ediel_sol  =         0.00000000
  ---------------------------------------------------
  free energy    TOTEN  =       -21.24325405 eV

  energy without entropy =      -21.24325405  energy(sigma->0) =      -21.24325405


--------------------------------------------------------------------------------------------------------




--------------------------------------- Iteration      1(   5)  ---------------------------------------


     EDDAV:  cpu time    2.2477: real time    2.2531
       DOS:  cpu time    0.0005: real time    0.0005
    --------------------------------------------
      LOOP:  cpu time    2.2481: real time    2.2536

 eigenvalue-minimisations  :  7512
 total energy-change (2. order) :-0.2163015E-02  (-0.2162924E-02)
 number of electron      18.0000000 magnetization 
 augmentation part       18.0000000 magnetization 

 Free energy of the ion-electron system (eV)
  ---------------------------------------------------
  alpha Z        PSCENC =        22.94334738
  Ewald energy   TEWEN  =      2158.26868162
  -Hartree energ DENC   =     -2831.72882871
  -exchange      EXHF   =         0.00000000
  -V(xc)+E(xc)   XCENC  =       -47.72554305
  PAW double counting   =       466.06334086     -380.94912685
  entropy T*S    EENTRO =        -0.00000000
  eigenvalues    EBANDS =      -126.65537930
  atomic energy  EATOM  =       718.53809099
  Solvation  Ediel_sol  =         0.00000000
  ---------------------------------------------------
  free energy    TOTEN  =       -21.24541707 eV

  energy without entropy =      -21.24541707  energy(sigma->0) =      -21.24541707


--------------------------------------------------------------------------------------------------------




--------------------------------------- Iteration      1(   6)  ---------------------------------------


     EDDAV:  cpu time    2.2315: real time    2.2370
       DOS:  cpu time    0.0005: real time    0.0005
    --------------------------------------------
      LOOP:  cpu time    2.2320: real time    2.2375

 eigenvalue-minimisations  :  7536
 total energy-change (2. order) :-0.1688461E-04  (-0.1688458E-04)
 number of electron      18.0000000 magnetization 
 augmentation part       18.0000000 magnetization 

 Free energy of the ion-electron system (eV)
  ---------------------------------------------------
  alpha Z        PSCENC =        22.94334738
  Ewald energy   TEWEN  =      2158.26868162
  -Hartree energ DENC   =     -2831.72882871
  -exchange      EXHF   =         0.00000000
  -V(xc)+E(xc)   XCENC  =       -47.72554305
  PAW double counting   =       466.06334086     -380.94912685
  entropy T*S    EENTRO =        -0.00000000
  eigenvalues    EBANDS =      -126.65539619
  atomic energy  EATOM  =       718.53809099
  Solvation  Ediel_sol  =         0.00000000
  ---------------------------------------------------
  free energy    TOTEN  =       -21.24543395 eV

  energy without entropy =      -21.24543395  energy(sigma->0) =      -21.24543395


--------------------------------------------------------------------------------------------------------




--------------------------------------- Iteration      1(   7)  ---------------------------------------


     EDDAV:  cpu time    2.2555: real time    2.2610
       DOS:  cpu time    0.0005: real time    0.0005
    --------------------------------------------
      LOOP:  cpu time    2.2560: real time    2.2615

 eigenvalue-minimisations  :  7638
 total energy-change (2. order) :-0.1091157E-06  (-0.1091241E-06)
 number of electron      18.0000000 magnetization 
 augmentation part       18.0000000 magnetization 

 Free energy of the ion-electron system (eV)
  ---------------------------------------------------
  alpha Z        PSCENC =        22.94334738
  Ewald energy   TEWEN  =      2158.26868162
  -Hartree energ DENC   =     -2831.72882871
  -exchange      EXHF   =         0.00000000
  -V(xc)+E(xc)   XCENC  =       -47.72554305
  PAW double counting   =       466.06334086     -380.94912685
  entropy T*S    EENTRO =        -0.00000000
  eigenvalues    EBANDS =      -126.65539630
  atomic energy  EATOM  =       718.53809099
  Solvation  Ediel_sol  =         0.00000000
  ---------------------------------------------------
  free energy    TOTEN  =       -21.24543406 eV

  energy without entropy =      -21.24543406  energy(sigma->0) =      -21.24543406


--------------------------------------------------------------------------------------------------------




--------------------------------------- Iteration      1(   8)  ---------------------------------------


     EDDAV:  cpu time    2.2184: real time    2.2240
       DOS:  cpu time    0.0005: real time    0.0005
    --------------------------------------------
      LOOP:  cpu time    2.2189: real time    2.2244

 eigenvalue-minimisations  :  7452
 total energy-change (2. order) :-0.6234586E-09  (-0.6099542E-09)
 number of electron      18.0000000 magnetization 
 augmentation part       18.0000000 magnetization 

 Free energy of the ion-electron system (eV)
  ---------------------------------------------------
  alpha Z        PSCENC =        22.94334738
  Ewald energy   TEWEN  =      2158.26868162
  -Hartree energ DENC   =     -2831.72882871
  -exchange      EXHF   =         0.00000000
  -V(xc)+E(xc)   XCENC  =       -47.72554305
  PAW double counting   =       466.06334086     -380.94912685
  entropy T*S    EENTRO =        -0.00000000
  eigenvalues    EBANDS =      -126.65539630
  atomic energy  EATOM  =       718.53809099
  Solvation  Ediel_sol  =         0.00000000
  ---------------------------------------------------
  free energy    TOTEN  =       -21.24543406 eV

  energy without entropy =      -21.24543406  energy(sigma->0) =      -21.24543406


--------------------------------------------------------------------------------------------------------




 average (electrostatic) potential at core
  the test charge radii are     1.1823  1.0808
  (the norm of the test charge is              1.0000)
       1 -47.5180       2 -60.1209       3 -60.1209
 
 
 
 E-fermi :  -1.6765     XC(G=0):  -3.9915     alpha+bet : -3.5498


 k-point     1 :       0.0000    0.0000    0.0000
  band No.  band energies     occupation 
      1     -16.5475      2.00000
      2     -15.3661      2.00000
      3      -8.0051      2.00000
      4      -4.0500      2.00000
      5      -4.0474      2.00000
      6      -4.0402      2.00000
      7      -2.9127      2.00000
      8      -2.9078      2.00000
      9      -2.2405      2.00000
     10       1.2311      0.00000
     11       1.2347      0.00000
     12       1.3699      0.00000
     13       1.3764      0.00000
     14       2.4993      0.00000
     15       2.9597      0.00000
     16       3.4450      0.00000
     17       4.1621      0.00000
     18       4.9138      0.00000

 k-point     2 :       0.0102    0.0102    0.0000
  band No.  band energies     occupation 
      1     -16.5459      2.00000
      2     -15.3652      2.00000
      3      -8.0031      2.00000
      4      -4.0535      2.00000
      5      -4.0515      2.00000
      6      -4.0395      2.00000
      7      -2.9136      2.00000
      8      -2.9092      2.00000
      9      -2.2407      2.00000
     10       1.2268      0.00000
     11       1.2369      0.00000
     12       1.3609      0.00000
     13       1.3732      0.00000
     14       2.5065      0.00000
     15       2.9619      0.00000
     16       3.4498      0.00000
     17       4.1664      0.00000
     18       4.9159      0.00000

 k-point     3 :       0.0204    0.0204    0.0000
  band No.  band energies     occupation 
      1     -16.5412      2.00000
      2     -15.3626      2.00000
      3      -7.9969      2.00000
      4      -4.0659      2.00000
      5      -4.0638      2.00000
      6      -4.0354      2.00000
      7      -2.9209      2.00000
      8      -2.9089      2.00000
      9      -2.2413      2.00000
     10       1.2124      0.00000
     11       1.2453      0.00000
     12       1.3323      0.00000
     13       1.3662      0.00000
     14       2.5271      0.00000
     15       2.9685      0.00000
     16       3.4641      0.00000
     17       4.1793      0.00000
     18       4.9220      0.00000

 k-point     4 :       0.0306    0.0306    0.0000
  band No.  band energies     occupation 
      1     -16.5334      2.00000
      2     -15.3583      2.00000
      3      -7.9866      2.00000
      4      -4.0906      2.00000
      5      -4.0808      2.00000
      6      -4.0277      2.00000
      7      -2.9349      2.00000
      8      -2.9067      2.00000
      9      -2.2424      2.00000
     10       1.1891      0.00000
     11       1.2595      0.00000
     12       1.2869      0.00000
     13       1.3551      0.00000
     14       2.5588      0.00000
     15       2.9795      0.00000
     16       3.4876      0.00000
     17       4.2012      0.00000
     18       4.9322      0.00000

 k-point     5 :       0.0408    0.0408    0.0000
  band No.  band energies     occupation 
      1     -16.5225      2.00000
      2     -15.3522      2.00000
      3      -7.9722      2.00000
      4      -4.1250      2.00000
      5      -4.1040      2.00000
      6      -4.0168      2.00000
      7      -2.9545      2.00000
      8      -2.9042      2.00000
      9      -2.2441      2.00000
     10       1.1581      0.00000
     11       1.2281      0.00000
     12       1.2790      0.00000
     13       1.3399      0.00000
     14       2.5986      0.00000
     15       2.9948      0.00000
     16       3.5194      0.00000
     17       4.2324      0.00000
     18       4.9463      0.00000

 k-point     6 :       0.0510    0.0510    0.0000
  band No.  band energies     occupation 
      1     -16.5086      2.00000
      2     -15.3445      2.00000
      3      -7.9538      2.00000
      4      -4.1685      2.00000
      5      -4.1332      2.00000
      6      -4.0028      2.00000
      7      -2.9794      2.00000
      8      -2.9021      2.00000
      9      -2.2465      2.00000
     10       1.1210      0.00000
     11       1.1591      0.00000
     12       1.3036      0.00000
     13       1.3208      0.00000
     14       2.6437      0.00000
     15       3.0142      0.00000
     16       3.5587      0.00000
     17       4.2731      0.00000
     18       4.9643      0.00000

 k-point     7 :       0.0612    0.0612    0.0000
  band No.  band energies     occupation 
      1     -16.4915      2.00000
      2     -15.3350      2.00000
      3      -7.9314      2.00000
      4      -4.2207      2.00000
      5      -4.1676      2.00000
      6      -3.9858      2.00000
      7      -3.0090      2.00000
      8      -2.9013      2.00000
      9      -2.2498      2.00000
     10       1.0795      0.00000
     11       1.0827      0.00000
     12       1.2980      0.00000
     13       1.3329      0.00000
     14       2.6920      0.00000
     15       3.0377      0.00000
     16       3.6041      0.00000
     17       4.3239      0.00000
     18       4.9862      0.00000

 k-point     8 :       0.0714    0.0714    0.0000
  band No.  band energies     occupation 
      1     -16.4714      2.00000
      2     -15.3239      2.00000
      3      -7.9051      2.00000
      4      -4.2810      2.00000
      5      -4.2070      2.00000
      6      -3.9658      2.00000
      7      -3.0432      2.00000
      8      -2.9024      2.00000
      9      -2.2543      2.00000
     10       1.0014      0.00000
     11       1.0354      0.00000
     12       1.2718      0.00000
     13       1.3665      0.00000
     14       2.7420      0.00000
     15       3.0651      0.00000
     16       3.6544      0.00000
     17       4.3849      0.00000
     18       5.0118      0.00000

 k-point     9 :       0.0816    0.0816    0.0000
  band No.  band energies     occupation 
      1     -16.4484      2.00000
      2     -15.3112      2.00000
      3      -7.8750      2.00000
      4      -4.3490      2.00000
      5      -4.2509      2.00000
      6      -3.9429      2.00000
      7      -3.0816      2.00000
      8      -2.9063      2.00000
      9      -2.2602      2.00000
     10       0.9172      0.00000
     11       0.9906      0.00000
     12       1.2425      0.00000
     13       1.4040      0.00000
     14       2.7929      0.00000
     15       3.0964      0.00000
     16       3.7080      0.00000
     17       4.4559      0.00000
     18       5.0411      0.00000

 k-point    10 :       0.0918    0.0918    0.0000
  band No.  band energies     occupation 
      1     -16.4224      2.00000
      2     -15.2968      2.00000
      3      -7.8411      2.00000
      4      -4.4239      2.00000
      5      -4.2989      2.00000
      6      -3.9172      2.00000
      7      -3.1236      2.00000
      8      -2.9135      2.00000
      9      -2.2679      2.00000
     10       0.8317      0.00000
     11       0.9468      0.00000
     12       1.2104      0.00000
     13       1.4448      0.00000
     14       2.8443      0.00000
     15       3.1314      0.00000
     16       3.7637      0.00000
     17       4.5363      0.00000
     18       5.0740      0.00000

 k-point    11 :       0.1020    0.1020    0.0000
  band No.  band energies     occupation 
      1     -16.3935      2.00000
      2     -15.2808      2.00000
      3      -7.8037      2.00000
      4      -4.5051      2.00000
      5      -4.3506      2.00000
      6      -3.8889      2.00000
      7      -3.1690      2.00000
      8      -2.9248      2.00000
      9      -2.2776      2.00000
     10       0.7464      0.00000
     11       0.9056      0.00000
     12       1.1759      0.00000
     13       1.4885      0.00000
     14       2.8961      0.00000
     15       3.1702      0.00000
     16       3.8208      0.00000
     17       4.6250      0.00000
     18       5.1105      0.00000

 k-point    12 :       0.1122    0.1122    0.0000
  band No.  band energies     occupation 
      1     -16.3617      2.00000
      2     -15.2632      2.00000
      3      -7.7627      2.00000
      4      -4.5920      2.00000
      5      -4.4057      2.00000
      6      -3.8579      2.00000
      7      -3.2172      2.00000
      8      -2.9405      2.00000
      9      -2.2898      2.00000
     10       0.6627      0.00000
     11       0.8685      0.00000
     12       1.1395      0.00000
     13       1.5346      0.00000
     14       2.9484      0.00000
     15       3.2127      0.00000
     16       3.8787      0.00000
     17       4.7201      0.00000
     18       5.1505      0.00000

 k-point    13 :       0.1224    0.1224    0.0000
  band No.  band energies     occupation 
      1     -16.3272      2.00000
      2     -15.2442      2.00000
      3      -7.7184      2.00000
      4      -4.6839      2.00000
      5      -4.4641      2.00000
      6      -3.8244      2.00000
      7      -3.2680      2.00000
      8      -2.9609      2.00000
      9      -2.3047      2.00000
     10       0.5816      0.00000
     11       0.8367      0.00000
     12       1.1015      0.00000
     13       1.5827      0.00000
     14       3.0015      0.00000
     15       3.2587      0.00000
     16       3.9372      0.00000
     17       4.8196      0.00000
     18       5.1939      0.00000

 k-point    14 :       0.1327    0.1327    0.0000
  band No.  band energies     occupation 
      1     -16.2899      2.00000
      2     -15.2236      2.00000
      3      -7.6709      2.00000
      4      -4.7803      2.00000
      5      -4.5256      2.00000
      6      -3.7885      2.00000
      7      -3.3208      2.00000
      8      -2.9860      2.00000
      9      -2.3228      2.00000
     10       0.5044      0.00000
     11       0.8111      0.00000
     12       1.0622      0.00000
     13       1.6321      0.00000
     14       3.0556      0.00000
     15       3.3083      0.00000
     16       3.9963      0.00000
     17       4.9210      0.00000
     18       5.2406      0.00000

 k-point    15 :       0.1429    0.1429    0.0000
  band No.  band energies     occupation 
      1     -16.2501      2.00000
      2     -15.2016      2.00000
      3      -7.6205      2.00000
      4      -4.8805      2.00000
      5      -4.5901      2.00000
      6      -3.7505      2.00000
      7      -3.3753      2.00000
      8      -3.0159      2.00000
      9      -2.3443      2.00000
     10       0.4319      0.00000
     11       0.7923      0.00000
     12       1.0222      0.00000
     13       1.6826      0.00000
     14       3.1109      0.00000
     15       3.3614      0.00000
     16       4.0561      0.00000
     17       5.0213      0.00000
     18       5.2906      0.00000

 k-point    16 :       0.1531    0.1531    0.0000
  band No.  band energies     occupation 
      1     -16.2076      2.00000
      2     -15.1783      2.00000
      3      -7.5674      2.00000
      4      -4.9839      2.00000
      5      -4.6574      2.00000
      6      -3.7104      2.00000
      7      -3.4312      2.00000
      8      -3.0501      2.00000
      9      -2.3695      2.00000
     10       0.3651      0.00000
     11       0.7809      0.00000
     12       0.9818      0.00000
     13       1.7336      0.00000
     14       3.1675      0.00000
     15       3.4180      0.00000
     16       4.1168      0.00000
     17       5.1180      0.00000
     18       5.3437      0.00000

 k-point    17 :       0.1633    0.1633    0.0000
  band No.  band energies     occupation 
      1     -16.1627      2.00000
      2     -15.1536      2.00000
      3      -7.5119      2.00000
      4      -5.0900      2.00000
      5      -4.7275      2.00000
      6      -3.6684      2.00000
      7      -3.4882      2.00000
      8      -3.0884      2.00000
      9      -2.3986      2.00000
     10       0.3048      0.00000
     11       0.7769      0.00000
     12       0.9413      0.00000
     13       1.7848      0.00000
     14       3.2257      0.00000
     15       3.4779      0.00000
     16       4.1787      0.00000
     17       5.2081      0.00000
     18       5.3999      0.00000

 k-point    18 :       0.1735    0.1735    0.0000
  band No.  band energies     occupation 
      1     -16.1154      2.00000
      2     -15.1276      2.00000
      3      -7.4543      2.00000
      4      -5.1981      2.00000
      5      -4.8003      2.00000
      6      -3.6247      2.00000
      7      -3.5458      2.00000
      8      -3.1301      2.00000
      9      -2.4315      2.00000
     10       0.2515      0.00000
     11       0.7805      0.00000
     12       0.9012      0.00000
     13       1.8358      0.00000
     14       3.2853      0.00000
     15       3.5411      0.00000
     16       4.2417      0.00000
     17       5.2892      0.00000
     18       5.4588      0.00000

 k-point    19 :       0.1837    0.1837    0.0000
  band No.  band energies     occupation 
      1     -16.0659      2.00000
      2     -15.1005      2.00000
      3      -7.3951      2.00000
      4      -5.3076      2.00000
      5      -4.8758      2.00000
      6      -3.6038      2.00000
      7      -3.5795      2.00000
      8      -3.1747      2.00000
      9      -2.4682      2.00000
     10       0.2058      0.00000
     11       0.7913      0.00000
     12       0.8618      0.00000
     13       1.8862      0.00000
     14       3.3466      0.00000
     15       3.6075      0.00000
     16       4.3060      0.00000
     17       5.3593      0.00000
     18       5.5204      0.00000

 k-point    20 :       0.1939    0.1939    0.0000
  band No.  band energies     occupation 
      1     -16.0142      2.00000
      2     -15.0722      2.00000
      3      -7.3347      2.00000
      4      -5.4180      2.00000
      5      -4.9539      2.00000
      6      -3.6620      2.00000
      7      -3.5330      2.00000
      8      -3.2214      2.00000
      9      -2.5085      2.00000
     10       0.1680      0.00000
     11       0.8092      0.00000
     12       0.8234      0.00000
     13       1.9358      0.00000
     14       3.4094      0.00000
     15       3.6770      0.00000
     16       4.3717      0.00000
     17       5.4168      0.00000
     18       5.5844      0.00000

 k-point    21 :       0.2041    0.2041    0.0000
  band No.  band energies     occupation 
      1     -15.9605      2.00000
      2     -15.0429      2.00000
      3      -7.2738      2.00000
      4      -5.5284      2.00000
      5      -5.0344      2.00000
      6      -3.7200      2.00000
      7      -3.4855      2.00000
      8      -3.2695      2.00000
      9      -2.5519      2.00000
     10       0.1381      0.00000
     11       0.7864      0.00000
     12       0.8335      0.00000
     13       1.9843      0.00000
     14       3.4738      0.00000
     15       3.7495      0.00000
     16       4.4385      0.00000
     17       5.4608      0.00000
     18       5.6503      0.00000

 k-point    22 :       0.2143    0.2143    0.0000
  band No.  band energies     occupation 
      1     -15.9049      2.00000
      2     -15.0127      2.00000
      3      -7.2131      2.00000
      4      -5.6382      2.00000
      5      -5.1173      2.00000
      6      -3.7776      2.00000
      7      -3.4372      2.00000
      8      -3.3183      2.00000
      9      -2.5979      2.00000
     10       0.1162      0.00000
     11       0.7512      0.00000
     12       0.8638      0.00000
     13       2.0314      0.00000
     14       3.5395      0.00000
     15       3.8248      0.00000
     16       4.5064      0.00000
     17       5.4909      0.00000
     18       5.7176      0.00000

 k-point    23 :       0.2245    0.2245    0.0000
  band No.  band energies     occupation 
      1     -15.8475      2.00000
      2     -14.9816      2.00000
      3      -7.1537      2.00000
      4      -5.7463      2.00000
      5      -5.2023      2.00000
      6      -3.8347      2.00000
      7      -3.3883      2.00000
      8      -3.3672      2.00000
      9      -2.6457      2.00000
     10       0.1020      0.00000
     11       0.7179      0.00000
     12       0.8995      0.00000
     13       2.0770      0.00000
     14       3.6063      0.00000
     15       3.9029      0.00000
     16       4.5750      0.00000
     17       5.5072      0.00000
     18       5.7857      0.00000

 k-point    24 :       0.2347    0.2347    0.0000
  band No.  band energies     occupation 
      1     -15.7886      2.00000
      2     -14.9496      2.00000
      3      -7.0969      2.00000
      4      -5.8513      2.00000
      5      -5.2892      2.00000
      6      -3.8911      2.00000
      7      -3.4156      2.00000
      8      -3.3391      2.00000
      9      -2.6946      2.00000
     10       0.0953      0.00000
     11       0.6868      0.00000
     12       0.9400      0.00000
     13       2.1209      0.00000
     14       3.6741      0.00000
     15       3.9834      0.00000
     16       4.6436      0.00000
     17       5.5105      0.00000
     18       5.8533      0.00000

 k-point    25 :       0.2449    0.2449    0.0000
  band No.  band energies     occupation 
      1     -15.7282      2.00000
      2     -14.9171      2.00000
      3      -7.0447      2.00000
      4      -5.9516      2.00000
      5      -5.3777      2.00000
      6      -3.9464      2.00000
      7      -3.4630      2.00000
      8      -3.2898      2.00000
      9      -2.7436      2.00000
     10       0.0956      0.00000
     11       0.6583      0.00000
     12       0.9846      0.00000
     13       2.1629      0.00000
     14       3.7424      0.00000
     15       4.0663      0.00000
     16       4.7113      0.00000
     17       5.5019      0.00000
     18       5.9189      0.00000

 k-point    26 :       0.2551    0.2551    0.0000
  band No.  band energies     occupation 
      1     -15.6666      2.00000
      2     -14.8840      2.00000
      3      -6.9998      2.00000
      4      -6.0445      2.00000
      5      -5.4676      2.00000
      6      -4.0006      2.00000
      7      -3.5090      2.00000
      8      -3.2408      2.00000
      9      -2.7919      2.00000
     10       0.1025      0.00000
     11       0.6325      0.00000
     12       1.0328      0.00000
     13       2.2029      0.00000
     14       3.8109      0.00000
     15       4.1512      0.00000
     16       4.7761      0.00000
     17       5.4837      0.00000
     18       5.9799      0.00000

 k-point    27 :       0.2653    0.2653    0.0000
  band No.  band energies     occupation 
      1     -15.6039      2.00000
      2     -14.8504      2.00000
      3      -6.9659      2.00000
      4      -6.1263      2.00000
      5      -5.5584      2.00000
      6      -4.0536      2.00000
      7      -3.5532      2.00000
      8      -3.1922      2.00000
      9      -2.8386      2.00000
     10       0.1156      0.00000
     11       0.6096      0.00000
     12       1.0840      0.00000
     13       2.2409      0.00000
     14       3.8789      0.00000
     15       4.2378      0.00000
     16       4.8350      0.00000
     17       5.4599      0.00000
     18       6.0324      0.00000

 k-point    28 :       0.2755    0.2755    0.0000
  band No.  band energies     occupation 
      1     -15.5404      2.00000
      2     -14.8165      2.00000
      3      -6.9482      2.00000
      4      -6.1925      2.00000
      5      -5.6498      2.00000
      6      -4.1051      2.00000
      7      -3.5953      2.00000
      8      -3.1444      2.00000
      9      -2.8826      2.00000
     10       0.1342      0.00000
     11       0.5898      0.00000
     12       1.1374      0.00000
     13       2.2768      0.00000
     14       3.9455      0.00000
     15       4.3258      0.00000
     16       4.8824      0.00000
     17       5.4368      0.00000
     18       6.0708      0.00000

 k-point    29 :       0.2857    0.2857    0.0000
  band No.  band energies     occupation 
      1     -15.4763      2.00000
      2     -14.7825      2.00000
      3      -6.9515      2.00000
      4      -6.2380      2.00000
      5      -5.7412      2.00000
      6      -4.1551      2.00000
      7      -3.6353      2.00000
      8      -3.0977      2.00000
      9      -2.9231      2.00000
     10       0.1579      0.00000
     11       0.5732      0.00000
     12       1.1925      0.00000
     13       2.3106      0.00000
     14       4.0096      0.00000
     15       4.4147      0.00000
     16       4.9099      0.00000
     17       5.4245      0.00000
     18       6.0895      0.00000

 k-point    30 :       0.2959    0.2959    0.0000
  band No.  band energies     occupation 
      1     -15.4118      2.00000
      2     -14.7484      2.00000
      3      -6.9785      2.00000
      4      -6.2607      2.00000
      5      -5.8324      2.00000
      6      -4.2034      2.00000
      7      -3.6730      2.00000
      8      -3.0522      2.00000
      9      -2.9592      2.00000
     10       0.1861      0.00000
     11       0.5599      0.00000
     12       1.2487      0.00000
     13       2.3423      0.00000
     14       4.0692      0.00000
     15       4.5039      0.00000
     16       4.9092      0.00000
     17       5.4337      0.00000
     18       6.0863      0.00000

 k-point    31 :       0.3061    0.3061    0.0000
  band No.  band energies     occupation 
      1     -15.3472      2.00000
      2     -14.7144      2.00000
      3      -7.0274      2.00000
      4      -6.2623      2.00000
      5      -5.9228      2.00000
      6      -4.2500      2.00000
      7      -3.7082      2.00000
      8      -3.0084      2.00000
      9      -2.9902      2.00000
     10       0.2184      0.00000
     11       0.5500      0.00000
     12       1.3055      0.00000
     13       2.3718      0.00000
     14       4.1211      0.00000
     15       4.5927      0.00000
     16       4.8799      0.00000
     17       5.4689      0.00000
     18       6.0653      0.00000

 k-point    32 :       0.3163    0.3163    0.0000
  band No.  band energies     occupation 
      1     -15.2827      2.00000
      2     -14.6807      2.00000
      3      -7.0930      2.00000
      4      -6.2484      2.00000
      5      -6.0119      2.00000
      6      -4.2946      2.00000
      7      -3.7411      2.00000
      8      -3.0158      2.00000
      9      -2.9661      2.00000
     10       0.2544      0.00000
     11       0.5433      0.00000
     12       1.3623      0.00000
     13       2.3992      0.00000
     14       4.1603      0.00000
     15       4.6802      0.00000
     16       4.8323      0.00000
     17       5.5261      0.00000
     18       6.0343      0.00000

 k-point    33 :       0.3265    0.3265    0.0000
  band No.  band energies     occupation 
      1     -15.2187      2.00000
      2     -14.6474      2.00000
      3      -7.1697      2.00000
      4      -6.2246      2.00000
      5      -6.0994      2.00000
      6      -4.3373      2.00000
      7      -3.7715      2.00000
      8      -3.0350      2.00000
      9      -2.9259      2.00000
     10       0.2935      0.00000
     11       0.5399      0.00000
     12       1.4185      0.00000
     13       2.4246      0.00000
     14       4.1781      0.00000
     15       4.7652      0.00000
     16       4.7829      0.00000
     17       5.5988      0.00000
     18       6.0011      0.00000

 k-point    34 :       0.3367    0.3367    0.0000
  band No.  band energies     occupation 
      1     -15.1554      2.00000
      2     -14.6147      2.00000
      3      -7.2526      2.00000
      4      -6.1958      2.00000
      5      -6.1847      2.00000
      6      -4.3780      2.00000
      7      -3.7996      2.00000
      8      -3.0477      2.00000
      9      -2.8878      2.00000
     10       0.3355      0.00000
     11       0.5395      0.00000
     12       1.4737      0.00000
     13       2.4480      0.00000
     14       4.1639      0.00000
     15       4.7487      0.00000
     16       4.8464      0.00000
     17       5.6820      0.00000
     18       5.9717      0.00000

 k-point    35 :       0.3469    0.3469    0.0000
[...]

 k-point   136 :       0.1905    0.0952    0.0000
  band No.  band energies     occupation 
      1     -16.1550      2.00000
      2     -15.1493      2.00000
      3      -7.4991      2.00000
      4      -5.0929      2.00000
      5      -4.6856      2.00000
      6      -3.7362      2.00000
      7      -3.6922      2.00000
      8      -2.8823      2.00000
      9      -2.3907      2.00000
     10       0.3026      0.00000
     11       0.6907      0.00000
     12       0.8780      0.00000
     13       1.8341      0.00000
     14       3.2556      0.00000
     15       3.4934      0.00000
     16       4.2096      0.00000
     17       5.2892      0.00000
     18       5.4124      0.00000

 k-point   137 :       0.1769    0.0884    0.0000
  band No.  band energies     occupation 
      1     -16.2072      2.00000
      2     -15.1780      2.00000
      3      -7.5647      2.00000
      4      -4.9740      2.00000
      5      -4.6193      2.00000
      6      -3.7308      2.00000
      7      -3.6229      2.00000
      8      -2.8772      2.00000
      9      -2.3617      2.00000
     10       0.3752      0.00000
     11       0.7145      0.00000
     12       0.9332      0.00000
     13       1.7675      0.00000
     14       3.1837      0.00000
     15       3.4224      0.00000
     16       4.1331      0.00000
     17       5.1635      0.00000
     18       5.3463      0.00000

 k-point   138 :       0.1633    0.0816    0.0000
  band No.  band energies     occupation 
      1     -16.2560      2.00000
      2     -15.2049      2.00000
      3      -7.6267      2.00000
      4      -4.8579      2.00000
      5      -4.5536      2.00000
      6      -3.7697      2.00000
      7      -3.5162      2.00000
      8      -2.8744      2.00000
      9      -2.3362      2.00000
     10       0.4538      0.00000
     11       0.7452      0.00000
     12       0.9889      0.00000
     13       1.7017      0.00000
     14       3.1145      0.00000
     15       3.3563      0.00000
     16       4.0589      0.00000
     17       5.0351      0.00000
     18       5.2845      0.00000

 k-point   139 :       0.1497    0.0748    0.0000
  band No.  band energies     occupation 
      1     -16.3014      2.00000
      2     -15.2299      2.00000
      3      -7.6847      2.00000
      4      -4.7457      2.00000
      5      -4.4890      2.00000
      6      -3.8080      2.00000
      7      -3.4171      2.00000
      8      -2.8735      2.00000
      9      -2.3143      2.00000
     10       0.5382      0.00000
     11       0.7826      0.00000
     12       1.0437      0.00000
     13       1.6375      0.00000
     14       3.0479      0.00000
     15       3.2950      0.00000
     16       3.9867      0.00000
     17       4.9072      0.00000
     18       5.2271      0.00000

 k-point   140 :       0.1361    0.0680    0.0000
  band No.  band energies     occupation 
      1     -16.3432      2.00000
      2     -15.2530      2.00000
      3      -7.7385      2.00000
      4      -4.6383      2.00000
      5      -4.4259      2.00000
      6      -3.8448      2.00000
      7      -3.3261      2.00000
      8      -2.8744      2.00000
      9      -2.2961      2.00000
     10       0.6276      0.00000
     11       0.8260      0.00000
     12       1.0965      0.00000
     13       1.5758      0.00000
     14       2.9834      0.00000
     15       3.2386      0.00000
     16       3.9161      0.00000
     17       4.7833      0.00000
     18       5.1742      0.00000

 k-point   141 :       0.1224    0.0612    0.0000
  band No.  band energies     occupation 
      1     -16.3814      2.00000
      2     -15.2741      2.00000
      3      -7.7878      2.00000
      4      -4.5367      2.00000
      5      -4.3651      2.00000
      6      -3.8795      2.00000
      7      -3.2440      2.00000
      8      -2.8768      2.00000
      9      -2.2814      2.00000
     10       0.7208      0.00000
     11       0.8744      0.00000
     12       1.1463      0.00000
     13       1.5171      0.00000
     14       2.9205      0.00000
     15       3.1871      0.00000
     16       3.8469      0.00000
     17       4.6662      0.00000
     18       5.1260      0.00000

 k-point   142 :       0.1088    0.0544    0.0000
  band No.  band energies     occupation 
      1     -16.4158      2.00000
      2     -15.2932      2.00000
      3      -7.8325      2.00000
      4      -4.4420      2.00000
      5      -4.3072      2.00000
      6      -3.9116      2.00000
      7      -3.1709      2.00000
      8      -2.8805      2.00000
      9      -2.2697      2.00000
     10       0.8166      0.00000
     11       0.9266      0.00000
     12       1.1925      0.00000
     13       1.4623      0.00000
     14       2.8591      0.00000
     15       3.1407      0.00000
     16       3.7792      0.00000
     17       4.5587      0.00000
     18       5.0825      0.00000

 k-point   143 :       0.0952    0.0476    0.0000
  band No.  band energies     occupation 
      1     -16.4464      2.00000
      2     -15.3101      2.00000
      3      -7.8723      2.00000
      4      -4.3552      2.00000
      5      -4.2530      2.00000
      6      -3.9407      2.00000
      7      -3.1072      2.00000
      8      -2.8851      2.00000
      9      -2.2607      2.00000
     10       0.9133      0.00000
     11       0.9809      0.00000
     12       1.2342      0.00000
     13       1.4120      0.00000
     14       2.7986      0.00000
     15       3.0993      0.00000
     16       3.7136      0.00000
     17       4.4630      0.00000
     18       5.0438      0.00000

 k-point   144 :       0.0816    0.0408    0.0000
  band No.  band energies     occupation 
      1     -16.4730      2.00000
      2     -15.3248      2.00000
      3      -7.9072      2.00000
      4      -4.2773      2.00000
      5      -4.2034      2.00000
      6      -3.9664      2.00000
      7      -3.0528      2.00000
      8      -2.8903      2.00000
      9      -2.2540      2.00000
     10       1.0089      0.00000
     11       1.0352      0.00000
     12       1.2711      0.00000
     13       1.3670      0.00000
     14       2.7391      0.00000
     15       3.0631      0.00000
     16       3.6511      0.00000
     17       4.3804      0.00000
     18       5.0099      0.00000

 k-point   145 :       0.0680    0.0340    0.0000
  band No.  band energies     occupation 
      1     -16.4957      2.00000
      2     -15.3374      2.00000
      3      -7.9369      2.00000
      4      -4.2093      2.00000
      5      -4.1592      2.00000
      6      -3.9886      2.00000
      7      -3.0074      2.00000
      8      -2.8958      2.00000
      9      -2.2490      2.00000
     10       1.0873      0.00000
     11       1.1007      0.00000
     12       1.3029      0.00000
     13       1.3277      0.00000
     14       2.6812      0.00000
     15       3.0320      0.00000
     16       3.5935      0.00000
     17       4.3116      0.00000
     18       4.9809      0.00000

 k-point   146 :       0.0544    0.0272    0.0000
  band No.  band energies     occupation 
      1     -16.5143      2.00000
      2     -15.3477      2.00000
      3      -7.9613      2.00000
      4      -4.1523      2.00000
      5      -4.1214      2.00000
      6      -4.0070      2.00000
      7      -2.9710      2.00000
      8      -2.9011      2.00000
      9      -2.2455      2.00000
     10       1.1346      0.00000
     11       1.1857      0.00000
     12       1.2949      0.00000
     13       1.3291      0.00000
     14       2.6261      0.00000
     15       3.0063      0.00000
     16       3.5429      0.00000
     17       4.2564      0.00000
     18       4.9570      0.00000

 k-point   147 :       0.0408    0.0204    0.0000
  band No.  band energies     occupation 
      1     -16.5288      2.00000
      2     -15.3557      2.00000
      3      -7.9804      2.00000
      4      -4.1069      2.00000
      5      -4.0909      2.00000
      6      -4.0214      2.00000
      7      -2.9431      2.00000
      8      -2.9058      2.00000
      9      -2.2431      2.00000
     10       1.1747      0.00000
     11       1.2599      0.00000
     12       1.2688      0.00000
     13       1.3497      0.00000
     14       2.5764      0.00000
     15       2.9861      0.00000
     16       3.5013      0.00000
     17       4.2145      0.00000
     18       4.9382      0.00000

 k-point   148 :       0.0272    0.0136    0.0000
  band No.  band energies     occupation 
      1     -16.5392      2.00000
      2     -15.3615      2.00000
      3      -7.9941      2.00000
      4      -4.0740      2.00000
      5      -4.0684      2.00000
      6      -4.0318      2.00000
      7      -2.9234      2.00000
      8      -2.9095      2.00000
      9      -2.2416      2.00000
     10       1.2053      0.00000
     11       1.2500      0.00000
     12       1.3186      0.00000
     13       1.3645      0.00000
     14       2.5358      0.00000
     15       2.9715      0.00000
     16       3.4704      0.00000
     17       4.1851      0.00000
     18       4.9247      0.00000

 k-point   149 :       0.0136    0.0068    0.0000
  band No.  band energies     occupation 
      1     -16.5454      2.00000
      2     -15.3649      2.00000
      3      -8.0024      2.00000
      4      -4.0546      2.00000
      5      -4.0541      2.00000
      6      -4.0381      2.00000
      7      -2.9119      2.00000
      8      -2.9117      2.00000
      9      -2.2408      2.00000
     10       1.2245      0.00000
     11       1.2385      0.00000
     12       1.3566      0.00000
     13       1.3734      0.00000
     14       2.5088      0.00000
     15       2.9626      0.00000
     16       3.4514      0.00000
     17       4.1678      0.00000
     18       4.9166      0.00000

 k-point   150 :      -0.0000    0.0000    0.0000
  band No.  band energies     occupation 
      1     -16.5475      2.00000
      2     -15.3661      2.00000
      3      -8.0051      2.00000
      4      -4.0500      2.00000
      5      -4.0474      2.00000
      6      -4.0402      2.00000
      7      -2.9127      2.00000
      8      -2.9078      2.00000
      9      -2.2405      2.00000
     10       1.2311      0.00000
     11       1.2347      0.00000
     12       1.3699      0.00000
     13       1.3764      0.00000
     14       2.4993      0.00000
     15       2.9597      0.00000
     16       3.4450      0.00000
     17       4.1621      0.00000
     18       4.9138      0.00000


--------------------------------------------------------------------------------------------------------


 soft charge-density along one line, spin component           1
         0         1         2         3         4         5         6         7         8         9
 total charge-density along one line
 
 pseudopotential strength for first ion, spin component:           1
 -8.650   0.000  -0.000   0.000  -0.000  -0.032   0.000  -0.000
  0.000  -8.644  -0.000   0.000   0.000   0.000  -0.031  -0.000
 -0.000  -0.000  -8.639  -0.000   0.000  -0.000  -0.000  -0.031
  0.000   0.000  -0.000  -8.644   0.000   0.000   0.000  -0.000
 -0.000   0.000   0.000   0.000  -8.650  -0.000   0.000   0.000
 -0.032   0.000  -0.000   0.000  -0.000   0.071   0.000  -0.000
  0.000  -0.031  -0.000   0.000   0.000   0.000   0.071   0.000
 -0.000  -0.000  -0.031  -0.000   0.000  -0.000   0.000   0.071
  0.000   0.000  -0.000  -0.031   0.000  -0.000   0.000   0.000
 -0.000   0.000   0.000   0.000  -0.032   0.000  -0.000   0.000
 -0.000  -0.000  -0.002  -0.000   0.000  -0.000  -0.000  -0.000
  0.000   0.000   0.000   0.000  -0.000   0.000   0.000   0.000
  0.000  -0.000   0.000   0.000   0.004   0.000   0.000  -0.000
  0.000  -0.000   0.000   0.000   0.000  -0.000   0.000  -0.000
  0.004   0.000  -0.000  -0.000   0.000  -0.000  -0.000  -0.000
 -0.000   0.000  -0.000  -0.000  -0.002  -0.000  -0.000   0.000
 -0.000  -0.000  -0.000  -0.000  -0.000   0.000  -0.000   0.000
 -0.002  -0.000   0.000   0.000  -0.000   0.000   0.000   0.000
 total augmentation occupancy for first ion, spin component:           1
  1.000   0.000   0.000   0.000   0.000   0.000   0.000   0.000   0.000   0.000   0.000   0.000   0.000   0.000   0.000   0.000
  0.000   1.000   0.000   0.000   0.000   0.000   0.000   0.000   0.000   0.000   0.000   0.000   0.000   0.000   0.000   0.000
  0.000   0.000   1.000   0.000   0.000   0.000   0.000   0.000   0.000   0.000   0.000   0.000   0.000   0.000   0.000   0.000
  0.000   0.000   0.000   1.000   0.000   0.000   0.000   0.000   0.000   0.000   0.000   0.000   0.000   0.000   0.000   0.000
  0.000   0.000   0.000   0.000   1.000   0.000   0.000   0.000   0.000   0.000   0.000   0.000   0.000   0.000   0.000   0.000
  0.000   0.000   0.000   0.000   0.000   0.000   0.000   0.000   0.000   0.000   0.000   0.000   0.000   0.000   0.000   0.000
  0.000   0.000   0.000   0.000   0.000   0.000   0.000   0.000   0.000   0.000   0.000   0.000   0.000   0.000   0.000   0.000
  0.000   0.000   0.000   0.000   0.000   0.000   0.000   0.000   0.000   0.000   0.000   0.000   0.000   0.000   0.000   0.000
  0.000   0.000   0.000   0.000   0.000   0.000   0.000   0.000   0.000   0.000   0.000   0.000   0.000   0.000   0.000   0.000
  0.000   0.000   0.000   0.000   0.000   0.000   0.000   0.000   0.000   0.000   0.000   0.000   0.000   0.000   0.000   0.000
  0.000   0.000   0.000   0.000   0.000   0.000   0.000   0.000   0.000   0.000   1.000   0.000   0.000   0.000   0.000   0.000
  0.000   0.000   0.000   0.000   0.000   0.000   0.000   0.000   0.000   0.000   0.000   0.000   0.000   0.000   0.000   0.000
  0.000   0.000   0.000   0.000   0.000   0.000   0.000   0.000   0.000   0.000   0.000   0.000   0.000   0.000   0.000   0.000
  0.000   0.000   0.000   0.000   0.000   0.000   0.000   0.000   0.000   0.000   0.000   0.000   0.000   0.000   0.000   0.000
  0.000   0.000   0.000   0.000   0.000   0.000   0.000   0.000   0.000   0.000   0.000   0.000   0.000   0.000   0.000   0.000
  0.000   0.000   0.000   0.000   0.000   0.000   0.000   0.000   0.000   0.000   0.000   0.000   0.000   0.000   0.000   0.000
  0.000   0.000   0.000   0.000   0.000   0.000   0.000   0.000   0.000   0.000   0.000   0.000   0.000   0.000   0.000   0.000
  0.000   0.000   0.000   0.000   0.000   0.000   0.000   0.000   0.000   0.000   0.000   0.000   0.000   0.000   0.000   0.000


------------------------ aborting loop because EDIFF is reached ----------------------------------------


    CHARGE:  cpu time    0.1370: real time    0.1378
    FORLOC:  cpu time    0.0034: real time    0.0034
    FORNL :  cpu time    0.3786: real time    0.3795
    STRESS:  cpu time    1.6370: real time    1.6410
    FORCOR:  cpu time    0.0171: real time    0.0172
    FORHAR:  cpu time    0.0046: real time    0.0046
    OFIELD:  cpu time    0.0000: real time    0.0000

  FORCE on cell =-STRESS in cart. coord.  units (eV):
  Direction    XX          YY          ZZ          XY          YZ          ZX
  --------------------------------------------------------------------------------------
  Alpha Z    22.94335    22.94335    22.94335
  Ewald    2703.62692  2703.71518 -3249.07350    -0.00000     0.00000     0.00000
  Hartree  2809.81716  2810.24075 -2783.84999     0.00000    -0.00000    -0.00000
  E(xc)     -70.51020   -72.07564   -72.18849     0.00000    -0.00000    -0.00000
  Local   -5745.63448 -5754.73149  5792.68983     0.00000    -0.00000     0.00000
  n-local    66.09631    66.19126    72.59338     0.45041     0.00000    -0.00000
  augment    -2.39344    -2.24937    -3.27262    -0.00000    -0.00000    -0.00000
  Kinetic   217.16669   226.24666   220.97143    -5.64915     0.00000    -0.00000
  Fock        0.00000     0.00000     0.00000     0.00000     0.00000     0.00000
  -------------------------------------------------------------------------------------
  Total       1.11230     0.28070     0.81337     0.00000     0.00000     0.00000
  in kB       9.55815     2.41207     6.98942     0.00000     0.00000     0.00000
  external pressure =        6.32 kB  Pullay stress =        0.00 kB


 VOLUME and BASIS-vectors are now :
 -----------------------------------------------------------------------------
  energy-cutoff  :      800.00
  volume of cell :      186.45
      direct lattice vectors                 reciprocal lattice vectors
     3.282000000  0.000000000  0.000000000     0.304692261 -0.176026587  0.000000000
     1.641000000  2.840480000  0.000000000     0.000000000  0.352053174  0.000000000
     0.000000000  0.000000000 20.000000000     0.000000000  0.000000000  0.050000000

  length of vectors
     3.282000000  3.280427965 20.000000000     0.351884545  0.352053174  0.050000000


 FORCES acting on ions
    electron-ion (+dipol)            ewald-force                    non-local-force                 convergence-correction
 -----------------------------------------------------------------------------------------------
   0.468E-08 -.312E+00 -.429E-08   0.214E-11 0.515E-01 0.000E+00   -.951E-17 0.300E+00 0.827E-24   0.199E-09 0.492E-01 -.172E-10
   0.180E-07 0.553E+00 0.501E+03   -.107E-11 -.258E-01 -.500E+03   0.298E-17 0.176E-01 0.224E+01   -.856E-10 -.546E+00 -.241E+01
   0.161E-07 0.553E+00 -.501E+03   -.107E-11 -.258E-01 0.500E+03   0.659E-18 0.176E-01 -.224E+01   0.153E-10 -.546E+00 0.241E+01
 -----------------------------------------------------------------------------------------------
   0.388E-07 0.795E+00 -.263E-08   -.199E-15 0.408E-14 0.000E+00   -.587E-17 0.335E+00 0.000E+00   0.128E-09 -.104E+01 -.325E-10
 
 
 POSITION                                       TOTAL-FORCE (eV/Angst)
 -----------------------------------------------------------------------------------
      3.28200      0.00057      0.00000         0.000000      0.059958      0.000000
      1.64100      0.94715     18.30918        -0.000000     -0.029979     -0.031785
      1.64100      0.94715      1.69082        -0.000000     -0.029979      0.031785
 -----------------------------------------------------------------------------------
    total drift:                                0.000000      0.087161     -0.000000


--------------------------------------------------------------------------------------------------------



  FREE ENERGIE OF THE ION-ELECTRON SYSTEM (eV)
  ---------------------------------------------------
  free  energy   TOTEN  =       -21.24543406 eV

  energy  without entropy=      -21.24543406  energy(sigma->0) =      -21.24543406
 


--------------------------------------------------------------------------------------------------------


    POTLOK:  cpu time    0.0465: real time    0.0467


--------------------------------------------------------------------------------------------------------


     LOOP+:  cpu time   19.9567: real time   20.0679
    4ORBIT:  cpu time    0.0000: real time    0.0000

 total amount of memory used by VASP MPI-rank0   122619. kBytes
=======================================================================

   base      :      30000. kBytes
   nonl-proj :      69802. kBytes
   fftplans  :       7308. kBytes
   grid      :       3744. kBytes
   one-center:         15. kBytes
   wavefun   :      11750. kBytes
 
  
  
 General timing and accounting informations for this job:
 ========================================================
  
                  Total CPU time used (sec):       23.149
                            User time (sec):       22.596
                          System time (sec):        0.553
                         Elapsed time (sec):       23.812
  
                   Maximum memory used (kb):      227256.
                   Average memory used (kb):           0.
  
                          Minor page faults:       106115
                          Major page faults:            0
                 Voluntary context switches:          831
