...it's alive! Batch file starting...
 running on   36 total cores
 distrk:  each k-point on   36 cores,    1 groups
 distr:  one band on    6 cores,    6 groups
 using from now: INCAR     
 vasp.5.4.4.18Apr17-6-g9f103f2a35 (build May 31 2018 21:15:54) complex          
  
 POSCAR found type information on POSCAR  W  Se
 POSCAR found :  2 types and       3 ions
 scaLAPACK will be used
 WARNING: PSMAXN for non-local potential too small
 LDA part: xc-table for Pade appr. of Perdew
 WARNING: stress and forces are not correct
 POSCAR, INCAR and KPOINTS ok, starting setup
 FFT: planning ...
 WAVECAR not read
 charge-density read from file: W-1                                     
 entering main loop
       N       E                     dE             d eps       ncg     rms          rms(c)
DAV:   1     0.119194327757E+03    0.11919E+03   -0.76328E+03  5400   0.102E+03
DAV:   2    -0.944478690662E+01   -0.12864E+03   -0.11877E+03  8568   0.162E+02
DAV:   3    -0.210525567008E+02   -0.11608E+02   -0.11434E+02  7266   0.529E+01
DAV:   4    -0.212432540537E+02   -0.19070E+00   -0.19040E+00  7122   0.763E+00
DAV:   5    -0.212454170684E+02   -0.21630E-02   -0.21629E-02  7512   0.698E-01
DAV:   6    -0.212454339530E+02   -0.16885E-04   -0.16885E-04  7536   0.548E-02
DAV:   7    -0.212454340621E+02   -0.10912E-06   -0.10912E-06  7638   0.390E-03
DAV:   8    -0.212454340627E+02   -0.62346E-09   -0.60995E-09  7452   0.256E-04
   1 F= -.21245434E+02 E0= -.21245434E+02  d E =-.656703E-46
Bstch file complete.
