<?xml version="1.0" encoding="ISO-8859-1"?>
<modeling>
 <generator>
  <i name="program" type="string">vasp </i>
  <i name="version" type="string">5.4.4.18Apr17-6-g9f103f2a35  </i>
  <i name="subversion" type="string">(build May 31 2018 21:15:54) complex            parallel </i>
  <i name="platform" type="string">c7_intel_O1 </i>
  <i name="date" type="string">2020 08 12 </i>
  <i name="time" type="string">12:21:07 </i>
 </generator>
 <incar>
  <i type="string" name="SYSTEM"> W-1, se-2</i>
  <i type="int" name="ISTART">     0</i>
  <i type="string" name="PREC">accurate</i>
  <i type="string" name="ALGO"> N</i>
  <i type="logical" name="ADDGRID"> T  </i>
  <i name="AMIN">      0.01000000</i>
  <i type="int" name="ICHARG">    11</i>
  <i type="int" name="NELMIN">     5</i>
  <i type="int" name="IBRION">    -1</i>
  <i name="EDIFF">      0.00000001</i>
  <i name="EDIFFG">     -0.00000001</i>
  <i type="int" name="NSW">     0</i>
  <i name="SYMPREC">      0.00010000</i>
  <i name="ENCUT">    800.00000000</i>
  <i type="logical" name="LREAL"> F  </i>
  <i type="int" name="ISMEAR">     0</i>
  <i name="SIGMA">      0.01000000</i>
  <i type="logical" name="LWAVE"> F  </i>
  <i type="logical" name="LCHARG"> F  </i>
  <v type="int" name="KPOINT_BSE">    -1     0     0     0</v>
 </incar>
 <structure name="primitive_cell" >
  <crystal>
   <varray name="basis" >
    <v>       3.28200000       0.00000000       0.00000000 </v>
    <v>       1.64100000       2.84048000       0.00000000 </v>
    <v>       0.00000000       0.00000000      20.00000000 </v>
   </varray>
   <i name="volume">    186.44910720 </i>
   <varray name="rec_basis" >
    <v>       0.30469226      -0.17602659       0.00000000 </v>
    <v>       0.00000000       0.35205317       0.00000000 </v>
    <v>       0.00000000       0.00000000       0.05000000 </v>
   </varray>
  </crystal>
  <varray name="positions" >
   <v>      -0.00010000       0.00020000       0.00000000 </v>
   <v>       0.33327700       0.33344600      -0.08454100 </v>
   <v>       0.33327700       0.33344600       0.08454100 </v>
  </varray>
 </structure>
 <varray name="primitive_index" >
  <v type="int" >        1 </v>
  <v type="int" >        2 </v>
  <v type="int" >        3 </v>
 </varray>
 <kpoints>
  <generation param="listgenerated">
   <i name="divisions" type="int">      50 </i>
   <v>       0.00000000       0.00000000       0.00000000 </v>
   <v>       0.50000000       0.50000000       0.00000000 </v>
   <v>       0.66666700       0.33333300       0.00000000 </v>
   <v>      -0.00000000       0.00000000       0.00000000 </v>
  </generation>
  <varray name="kpointlist" >
   <v>       0.00000000       0.00000000       0.00000000 </v>
   <v>       0.01020408       0.01020408       0.00000000 </v>
   <v>       0.02040816       0.02040816       0.00000000 </v>
   <v>       0.03061224       0.03061224       0.00000000 </v>
   <v>       0.04081633       0.04081633       0.00000000 </v>
   <v>       0.05102041       0.05102041       0.00000000 </v>
   <v>       0.06122449       0.06122449       0.00000000 </v>
   <v>       0.07142857       0.07142857       0.00000000 </v>
   <v>       0.08163265       0.08163265       0.00000000 </v>
   <v>       0.09183673       0.09183673       0.00000000 </v>
   <v>       0.10204082       0.10204082       0.00000000 </v>
   <v>       0.11224490       0.11224490       0.00000000 </v>
   <v>       0.12244898       0.12244898       0.00000000 </v>
   <v>       0.13265306       0.13265306       0.00000000 </v>
   <v>       0.14285714       0.14285714       0.00000000 </v>
   <v>       0.15306122       0.15306122       0.00000000 </v>
   <v>       0.16326531       0.16326531       0.00000000 </v>
   <v>       0.17346939       0.17346939       0.00000000 </v>
   <v>       0.18367347       0.18367347       0.00000000 </v>
   <v>       0.19387755       0.19387755       0.00000000 </v>
   <v>       0.20408163       0.20408163       0.00000000 </v>
   <v>       0.21428571       0.21428571       0.00000000 </v>
   <v>       0.22448980       0.22448980       0.00000000 </v>
   <v>       0.23469388       0.23469388       0.00000000 </v>
   <v>       0.24489796       0.24489796       0.00000000 </v>
   <v>       0.25510204       0.25510204       0.00000000 </v>
   <v>       0.26530612       0.26530612       0.00000000 </v>
   <v>       0.27551020       0.27551020       0.00000000 </v>
   <v>       0.28571429       0.28571429       0.00000000 </v>
   <v>       0.29591837       0.29591837       0.00000000 </v>
   <v>       0.30612245       0.30612245       0.00000000 </v>
   <v>       0.31632653       0.31632653       0.00000000 </v>
   <v>       0.32653061       0.32653061       0.00000000 </v>
   <v>       0.33673469       0.33673469       0.00000000 </v>
   <v>       0.34693878       0.34693878       0.00000000 </v>
   <v>       0.35714286       0.35714286       0.00000000 </v>
   <v>       0.36734694       0.36734694       0.00000000 </v>
   <v>       0.37755102       0.37755102       0.00000000 </v>
   <v>       0.38775510       0.38775510       0.00000000 </v>
   <v>       0.39795918       0.39795918       0.00000000 </v>
   <v>       0.40816327       0.40816327       0.00000000 </v>
   <v>       0.41836735       0.41836735       0.00000000 </v>
   <v>       0.42857143       0.42857143       0.00000000 </v>
   <v>       0.43877551       0.43877551       0.00000000 </v>
   <v>       0.44897959       0.44897959       0.00000000 </v>
   <v>       0.45918367       0.45918367       0.00000000 </v>
   <v>       0.46938776       0.46938776       0.00000000 </v>
   <v>       0.47959184       0.47959184       0.00000000 </v>
   <v>       0.48979592       0.48979592       0.00000000 </v>
   <v>       0.50000000       0.50000000       0.00000000 </v>
   <v>       0.50000000       0.50000000       0.00000000 </v>
   <v>       0.50340137       0.49659863       0.00000000 </v>
   <v>       0.50680273       0.49319727       0.00000000 </v>
   <v>       0.51020410       0.48979590       0.00000000 </v>
   <v>       0.51360547       0.48639453       0.00000000 </v>
   <v>       0.51700684       0.48299316       0.00000000 </v>
   <v>       0.52040820       0.47959180       0.00000000 </v>
   <v>       0.52380957       0.47619043       0.00000000 </v>
   <v>       0.52721094       0.47278906       0.00000000 </v>
   <v>       0.53061231       0.46938769       0.00000000 </v>
   <v>       0.53401367       0.46598633       0.00000000 </v>
   <v>       0.53741504       0.46258496       0.00000000 </v>
   <v>       0.54081641       0.45918359       0.00000000 </v>
   <v>       0.54421778       0.45578222       0.00000000 </v>
   <v>       0.54761914       0.45238086       0.00000000 </v>
   <v>       0.55102051       0.44897949       0.00000000 </v>
   <v>       0.55442188       0.44557812       0.00000000 </v>
   <v>       0.55782324       0.44217676       0.00000000 </v>
   <v>       0.56122461       0.43877539       0.00000000 </v>
   <v>       0.56462598       0.43537402       0.00000000 </v>
   <v>       0.56802735       0.43197265       0.00000000 </v>
   <v>       0.57142871       0.42857129       0.00000000 </v>
   <v>       0.57483008       0.42516992       0.00000000 </v>
   <v>       0.57823145       0.42176855       0.00000000 </v>
   <v>       0.58163282       0.41836718       0.00000000 </v>
   <v>       0.58503418       0.41496582       0.00000000 </v>
   <v>       0.58843555       0.41156445       0.00000000 </v>
   <v>       0.59183692       0.40816308       0.00000000 </v>
   <v>       0.59523829       0.40476171       0.00000000 </v>
   <v>       0.59863965       0.40136035       0.00000000 </v>
   <v>       0.60204102       0.39795898       0.00000000 </v>
   <v>       0.60544239       0.39455761       0.00000000 </v>
   <v>       0.60884376       0.39115624       0.00000000 </v>
   <v>       0.61224512       0.38775488       0.00000000 </v>
   <v>       0.61564649       0.38435351       0.00000000 </v>
   <v>       0.61904786       0.38095214       0.00000000 </v>
   <v>       0.62244922       0.37755078       0.00000000 </v>
   <v>       0.62585059       0.37414941       0.00000000 </v>
   <v>       0.62925196       0.37074804       0.00000000 </v>
   <v>       0.63265333       0.36734667       0.00000000 </v>
   <v>       0.63605469       0.36394531       0.00000000 </v>
   <v>       0.63945606       0.36054394       0.00000000 </v>
   <v>       0.64285743       0.35714257       0.00000000 </v>
   <v>       0.64625880       0.35374120       0.00000000 </v>
   <v>       0.64966016       0.35033984       0.00000000 </v>
   <v>       0.65306153       0.34693847       0.00000000 </v>
   <v>       0.65646290       0.34353710       0.00000000 </v>
   <v>       0.65986427       0.34013573       0.00000000 </v>
   <v>       0.66326563       0.33673437       0.00000000 </v>
   <v>       0.66666700       0.33333300       0.00000000 </v>
   <v>       0.66666700       0.33333300       0.00000000 </v>
   <v>       0.65306155       0.32653029       0.00000000 </v>
   <v>       0.63945610       0.31972757       0.00000000 </v>
   <v>       0.62585065       0.31292486       0.00000000 </v>
   <v>       0.61224520       0.30612214       0.00000000 </v>
   <v>       0.59863976       0.29931943       0.00000000 </v>
   <v>       0.58503431       0.29251671       0.00000000 </v>
   <v>       0.57142886       0.28571400       0.00000000 </v>
   <v>       0.55782341       0.27891129       0.00000000 </v>
   <v>       0.54421796       0.27210857       0.00000000 </v>
   <v>       0.53061251       0.26530586       0.00000000 </v>
   <v>       0.51700706       0.25850314       0.00000000 </v>
   <v>       0.50340161       0.25170043       0.00000000 </v>
   <v>       0.48979616       0.24489771       0.00000000 </v>
   <v>       0.47619071       0.23809500       0.00000000 </v>
   <v>       0.46258527       0.23129229       0.00000000 </v>
   <v>       0.44897982       0.22448957       0.00000000 </v>
   <v>       0.43537437       0.21768686       0.00000000 </v>
   <v>       0.42176892       0.21088414       0.00000000 </v>
   <v>       0.40816347       0.20408143       0.00000000 </v>
   <v>       0.39455802       0.19727871       0.00000000 </v>
   <v>       0.38095257       0.19047600       0.00000000 </v>
   <v>       0.36734712       0.18367329       0.00000000 </v>
   <v>       0.35374167       0.17687057       0.00000000 </v>
   <v>       0.34013622       0.17006786       0.00000000 </v>
   <v>       0.32653078       0.16326514       0.00000000 </v>
   <v>       0.31292533       0.15646243       0.00000000 </v>
   <v>       0.29931988       0.14965971       0.00000000 </v>
   <v>       0.28571443       0.14285700       0.00000000 </v>
   <v>       0.27210898       0.13605429       0.00000000 </v>
   <v>       0.25850353       0.12925157       0.00000000 </v>
   <v>       0.24489808       0.12244886       0.00000000 </v>
   <v>       0.23129263       0.11564614       0.00000000 </v>
   <v>       0.21768718       0.10884343       0.00000000 </v>
   <v>       0.20408173       0.10204071       0.00000000 </v>
   <v>       0.19047629       0.09523800       0.00000000 </v>
   <v>       0.17687084       0.08843529       0.00000000 </v>
   <v>       0.16326539       0.08163257       0.00000000 </v>
   <v>       0.14965994       0.07482986       0.00000000 </v>
   <v>       0.13605449       0.06802714       0.00000000 </v>
   <v>       0.12244904       0.06122443       0.00000000 </v>
   <v>       0.10884359       0.05442171       0.00000000 </v>
   <v>       0.09523814       0.04761900       0.00000000 </v>
   <v>       0.08163269       0.04081629       0.00000000 </v>
   <v>       0.06802724       0.03401357       0.00000000 </v>
   <v>       0.05442180       0.02721086       0.00000000 </v>
   <v>       0.04081635       0.02040814       0.00000000 </v>
   <v>       0.02721090       0.01360543       0.00000000 </v>
   <v>       0.01360545       0.00680271       0.00000000 </v>
   <v>      -0.00000000       0.00000000       0.00000000 </v>
  </varray>
  <varray name="weights" >
   <v>       0.00666667 </v>
   <v>       0.00666667 </v>
   <v>       0.00666667 </v>
   <v>       0.00666667 </v>
   <v>       0.00666667 </v>
   <v>       0.00666667 </v>
   <v>       0.00666667 </v>
   <v>       0.00666667 </v>
   <v>       0.00666667 </v>
   <v>       0.00666667 </v>
   <v>       0.00666667 </v>
   <v>       0.00666667 </v>
   <v>       0.00666667 </v>
   <v>       0.00666667 </v>
   <v>       0.00666667 </v>
   <v>       0.00666667 </v>
   <v>       0.00666667 </v>
   <v>       0.00666667 </v>
   <v>       0.00666667 </v>
   <v>       0.00666667 </v>
   <v>       0.00666667 </v>
   <v>       0.00666667 </v>
   <v>       0.00666667 </v>
   <v>       0.00666667 </v>
   <v>       0.00666667 </v>
   <v>       0.00666667 </v>
   <v>       0.00666667 </v>
   <v>       0.00666667 </v>
   <v>       0.00666667 </v>
   <v>       0.00666667 </v>
   <v>       0.00666667 </v>
   <v>       0.00666667 </v>
   <v>       0.00666667 </v>
   <v>       0.00666667 </v>
   <v>       0.00666667 </v>
   <v>       0.00666667 </v>
   <v>       0.00666667 </v>
   <v>       0.00666667 </v>
   <v>       0.00666667 </v>
   <v>       0.00666667 </v>
   <v>       0.00666667 </v>
   <v>       0.00666667 </v>
   <v>       0.00666667 </v>
   <v>       0.00666667 </v>
   <v>       0.00666667 </v>
   <v>       0.00666667 </v>
   <v>       0.00666667 </v>
   <v>       0.00666667 </v>
   <v>       0.00666667 </v>
   <v>       0.00666667 </v>
   <v>       0.00666667 </v>
   <v>       0.00666667 </v>
   <v>       0.00666667 </v>
   <v>       0.00666667 </v>
   <v>       0.00666667 </v>
   <v>       0.00666667 </v>
   <v>       0.00666667 </v>
   <v>       0.00666667 </v>
   <v>       0.00666667 </v>
   <v>       0.00666667 </v>
   <v>       0.00666667 </v>
   <v>       0.00666667 </v>
   <v>       0.00666667 </v>
   <v>       0.00666667 </v>
   <v>       0.00666667 </v>
   <v>       0.00666667 </v>
   <v>       0.00666667 </v>
   <v>       0.00666667 </v>
   <v>       0.00666667 </v>
   <v>       0.00666667 </v>
   <v>       0.00666667 </v>
   <v>       0.00666667 </v>
   <v>       0.00666667 </v>
   <v>       0.00666667 </v>
   <v>       0.00666667 </v>
   <v>       0.00666667 </v>
   <v>       0.00666667 </v>
   <v>       0.00666667 </v>
   <v>       0.00666667 </v>
   <v>       0.00666667 </v>
   <v>       0.00666667 </v>
   <v>       0.00666667 </v>
   <v>       0.00666667 </v>
   <v>       0.00666667 </v>
   <v>       0.00666667 </v>
   <v>       0.00666667 </v>
   <v>       0.00666667 </v>
   <v>       0.00666667 </v>
   <v>       0.00666667 </v>
   <v>       0.00666667 </v>
   <v>       0.00666667 </v>
   <v>       0.00666667 </v>
   <v>       0.00666667 </v>
   <v>       0.00666667 </v>
   <v>       0.00666667 </v>
   <v>       0.00666667 </v>
   <v>       0.00666667 </v>
   <v>       0.00666667 </v>
   <v>       0.00666667 </v>
   <v>       0.00666667 </v>
   <v>       0.00666667 </v>
   <v>       0.00666667 </v>
   <v>       0.00666667 </v>
   <v>       0.00666667 </v>
   <v>       0.00666667 </v>
   <v>       0.00666667 </v>
   <v>       0.00666667 </v>
   <v>       0.00666667 </v>
   <v>       0.00666667 </v>
   <v>       0.00666667 </v>
   <v>       0.00666667 </v>
   <v>       0.00666667 </v>
   <v>       0.00666667 </v>
   <v>       0.00666667 </v>
   <v>       0.00666667 </v>
   <v>       0.00666667 </v>
   <v>       0.00666667 </v>
   <v>       0.00666667 </v>
   <v>       0.00666667 </v>
   <v>       0.00666667 </v>
   <v>       0.00666667 </v>
   <v>       0.00666667 </v>
   <v>       0.00666667 </v>
   <v>       0.00666667 </v>
   <v>       0.00666667 </v>
   <v>       0.00666667 </v>
   <v>       0.00666667 </v>
   <v>       0.00666667 </v>
   <v>       0.00666667 </v>
   <v>       0.00666667 </v>
   <v>       0.00666667 </v>
   <v>       0.00666667 </v>
   <v>       0.00666667 </v>
   <v>       0.00666667 </v>
   <v>       0.00666667 </v>
   <v>       0.00666667 </v>
   <v>       0.00666667 </v>
   <v>       0.00666667 </v>
   <v>       0.00666667 </v>
   <v>       0.00666667 </v>
   <v>       0.00666667 </v>
   <v>       0.00666667 </v>
   <v>       0.00666667 </v>
   <v>       0.00666667 </v>
   <v>       0.00666667 </v>
   <v>       0.00666667 </v>
   <v>       0.00666667 </v>
   <v>       0.00666667 </v>
   <v>       0.00666667 </v>
   <v>       0.00666667 </v>
  </varray>
 </kpoints>
 <parameters>
  <separator name="general" >
   <i type="string" name="SYSTEM">W-1, se-2</i>
   <i type="logical" name="LCOMPAT"> F  </i>
  </separator>
  <separator name="electronic" >
   <i type="string" name="PREC">accura</i>
   <i name="ENMAX">    800.00000000</i>
   <i name="ENAUG">    446.84200000</i>
   <i name="EDIFF">      0.00000001</i>
   <i type="int" name="IALGO">    38</i>
   <i type="int" name="IWAVPR">    10</i>
   <i type="int" name="NBANDS">    18</i>
   <i name="NELECT">     18.00000000</i>
   <i type="int" name="TURBO">     0</i>
   <i type="int" name="IRESTART">     0</i>
   <i type="int" name="NREBOOT">     0</i>
   <i type="int" name="NMIN">     0</i>
   <i name="EREF">      0.00000000</i>
   <separator name="electronic smearing" >
    <i type="int" name="ISMEAR">     0</i>
    <i name="SIGMA">      0.01000000</i>
    <i name="KSPACING">      0.50000000</i>
    <i type="logical" name="KGAMMA"> T  </i>
   </separator>
   <separator name="electronic projectors" >
    <i type="logical" name="LREAL"> F  </i>
    <v name="ROPT">      0.00000000      0.00000000</v>
    <i type="int" name="LMAXPAW">  -100</i>
    <i type="int" name="LMAXMIX">     2</i>
    <i type="logical" name="NLSPLINE"> F  </i>
   </separator>
   <separator name="electronic startup" >
    <i type="int" name="ISTART">     0</i>
    <i type="int" name="ICHARG">    11</i>
    <i type="int" name="INIWAV">     1</i>
   </separator>
   <separator name="electronic spin" >
    <i type="int" name="ISPIN">     1</i>
    <i type="logical" name="LNONCOLLINEAR"> F  </i>
    <v name="MAGMOM">      1.00000000      1.00000000      1.00000000</v>
    <i name="NUPDOWN">     -1.00000000</i>
    <i type="logical" name="LSORBIT"> F  </i>
    <v name="SAXIS">      0.00000000      0.00000000      1.00000000</v>
    <i type="logical" name="LSPIRAL"> F  </i>
    <v name="QSPIRAL">      0.00000000      0.00000000      0.00000000</v>
    <i type="logical" name="LZEROZ"> F  </i>
   </separator>
   <separator name="electronic exchange-correlation" >
    <i type="logical" name="LASPH"> F  </i>
    <i type="logical" name="LMETAGGA"> F  </i>
   </separator>
   <separator name="electronic convergence" >
    <i type="int" name="NELM">    60</i>
    <i type="int" name="NELMDL">    -5</i>
    <i type="int" name="NELMIN">     5</i>
    <i name="ENINI">    800.00000000</i>
    <separator name="electronic convergence detail" >
     <i type="logical" name="LDIAG"> T  </i>
     <i type="logical" name="LSUBROT"> F  </i>
     <i name="WEIMIN">      0.00000000</i>
     <i name="EBREAK">      0.00000000</i>
     <i name="DEPER">      0.30000000</i>
     <i type="int" name="NRMM">     4</i>
     <i name="TIME">      0.40000000</i>
    </separator>
   </separator>
   <separator name="electronic mixer" >
    <i name="AMIX">      0.40000000</i>
    <i name="BMIX">      1.00000000</i>
    <i name="AMIN">      0.01000000</i>
    <i name="AMIX_MAG">      1.60000000</i>
    <i name="BMIX_MAG">      1.00000000</i>
    <separator name="electronic mixer details" >
     <i type="int" name="IMIX">     4</i>
     <i type="logical" name="MIXFIRST"> F  </i>
     <i type="int" name="MAXMIX">   -45</i>
     <i name="WC">    100.00000000</i>
     <i type="int" name="INIMIX">     1</i>
     <i type="int" name="MIXPRE">     1</i>
     <i type="int" name="MREMOVE">     5</i>
    </separator>
   </separator>
   <separator name="electronic dipolcorrection" >
    <i type="logical" name="LDIPOL"> F  </i>
    <i type="logical" name="LMONO"> F  </i>
    <i type="int" name="IDIPOL">     0</i>
    <i name="EPSILON">      1.00000000</i>
    <v name="DIPOL">   -100.00000000   -100.00000000   -100.00000000</v>
    <i name="EFIELD">      0.00000000</i>
   </separator>
  </separator>
  <separator name="grids" >
   <i type="int" name="NGX">    30</i>
   <i type="int" name="NGY">    30</i>
   <i type="int" name="NGZ">   192</i>
   <i type="int" name="NGXF">    60</i>
   <i type="int" name="NGYF">    60</i>
   <i type="int" name="NGZF">   384</i>
   <i type="logical" name="ADDGRID"> T  </i>
  </separator>
  <separator name="ionic" >
   <i type="int" name="NSW">     0</i>
   <i type="int" name="IBRION">    -1</i>
   <i type="int" name="MDALGO">     0</i>
   <i type="int" name="ISIF">     2</i>
   <i name="PSTRESS">      0.00000000</i>
   <i name="EDIFFG">     -0.00000001</i>
   <i type="int" name="NFREE">     0</i>
   <i name="POTIM">      0.50000000</i>
   <i name="SMASS">     -3.00000000</i>
   <i name="SCALEE">      1.00000000</i>
  </separator>
  <separator name="ionic md" >
   <i name="TEBEG">      0.00010000</i>
   <i name="TEEND">      0.00010000</i>
   <i type="int" name="NBLOCK">     1</i>
   <i type="int" name="KBLOCK">     1</i>
   <i type="int" name="NPACO">   256</i>
   <i name="APACO">     16.00000000</i>
  </separator>
  <separator name="symmetry" >
   <i type="int" name="ISYM">     2</i>
   <i name="SYMPREC">      0.00010000</i>
  </separator>
  <separator name="dos" >
   <i type="int" name="LORBIT">     0</i>
   <v name="RWIGS">     -1.00000000     -1.00000000</v>
   <i type="int" name="NEDOS">   301</i>
   <i name="EMIN">     10.00000000</i>
   <i name="EMAX">    -10.00000000</i>
   <i name="EFERMI">      0.00000000</i>
  </separator>
  <separator name="writing" >
   <i type="int" name="NWRITE">     2</i>
   <i type="logical" name="LWAVE"> F  </i>
   <i type="logical" name="LDOWNSAMPLE"> F  </i>
   <i type="logical" name="LCHARG"> F  </i>
   <i type="logical" name="LPARD"> F  </i>
   <i type="logical" name="LVTOT"> F  </i>
   <i type="logical" name="LVHAR"> F  </i>
   <i type="logical" name="LELF"> F  </i>
   <i type="logical" name="LOPTICS"> F  </i>
   <v name="STM">      0.00000000      0.00000000      0.00000000      0.00000000      0.00000000      0.00000000      0.00000000</v>
  </separator>
  <separator name="performance" >
   <i type="int" name="NPAR">     6</i>
   <i type="int" name="NSIM">     4</i>
   <i type="int" name="NBLK">    -1</i>
   <i type="logical" name="LPLANE"> T  </i>
   <i type="logical" name="LSCALAPACK"> T  </i>
   <i type="logical" name="LSCAAWARE"> F  </i>
   <i type="logical" name="LSCALU"> F  </i>
   <i type="logical" name="LASYNC"> F  </i>
   <i type="logical" name="LORBITALREAL"> F  </i>
  </separator>
  <separator name="miscellaneous" >
   <i type="int" name="IDIOT">     3</i>
   <i type="int" name="ISPECIAL">     0</i>
   <i type="logical" name="LMUSIC"> F  </i>
   <v name="POMASS">    183.85000000     78.96000000</v>
   <v name="DARWINR">      0.00000000      0.00000000</v>
   <v name="DARWINV">      1.00000000      1.00000000</v>
   <i type="logical" name="LCORR"> T  </i>
  </separator>
  <i type="logical" name="GGA_COMPAT"> T  </i>
  <i type="logical" name="LBERRY"> F  </i>
  <i type="int" name="ICORELEVEL">     0</i>
  <i type="logical" name="LDAU"> F  </i>
  <i type="int" name="I_CONSTRAINED_M">     0</i>
  <separator name="electronic exchange-correlation" >
   <i type="string" name="GGA">--</i>
   <i type="int" name="VOSKOWN">     0</i>
   <i type="logical" name="LHFCALC"> F  </i>
   <i type="string" name="PRECFOCK"></i>
   <i type="logical" name="LSYMGRAD"> F  </i>
   <i type="logical" name="LHFONE"> F  </i>
   <i type="logical" name="LRHFCALC"> F  </i>
   <i type="logical" name="LTHOMAS"> F  </i>
   <i type="logical" name="LMODELHF"> F  </i>
   <i name="ENCUT4O">     -1.00000000</i>
   <i type="int" name="EXXOEP">     0</i>
   <i type="int" name="FOURORBIT">     0</i>
   <i name="AEXX">      0.00000000</i>
   <i name="HFALPHA">      0.00000000</i>
   <i name="MCALPHA">      0.00000000</i>
   <i name="ALDAX">      1.00000000</i>
   <i name="AGGAX">      1.00000000</i>
   <i name="ALDAC">      1.00000000</i>
   <i name="AGGAC">      1.00000000</i>
   <i type="int" name="NKREDX">     1</i>
   <i type="int" name="NKREDY">     1</i>
   <i type="int" name="NKREDZ">     1</i>
   <i type="logical" name="SHIFTRED"> F  </i>
   <i type="logical" name="ODDONLY"> F  </i>
   <i type="logical" name="EVENONLY"> F  </i>
   <i type="int" name="LMAXFOCK">     0</i>
   <i type="int" name="NMAXFOCKAE">     0</i>
   <i type="logical" name="LFOCKAEDFT"> F  </i>
   <i name="HFSCREEN">      0.00000000</i>
   <i name="HFSCREENC">      0.00000000</i>
   <i type="int" name="NBANDSGWLOW">     0</i>
  </separator>
  <separator name="vdW DFT" >
   <i type="logical" name="LUSE_VDW"> F  </i>
   <i name="Zab_VDW">     -0.84910000</i>
   <i name="PARAM1">      0.12340000</i>
   <i name="PARAM2">      1.00000000</i>
   <i name="PARAM3">      0.00000000</i>
  </separator>
  <separator name="model GW" >
   <i type="int" name="MODEL_GW">     0</i>
   <i name="MODEL_EPS0">     37.28982144</i>
   <i name="MODEL_ALPHA">      1.00000000</i>
  </separator>
  <separator name="linear response parameters" >
   <i type="logical" name="LEPSILON"> F  </i>
   <i type="logical" name="LRPA"> F  </i>
   <i type="logical" name="LNABLA"> F  </i>
   <i type="logical" name="LVEL"> F  </i>
   <i type="int" name="KINTER">     0</i>
   <i name="CSHIFT">      0.10000000</i>
   <i name="OMEGAMAX">     -1.00000000</i>
   <i name="DEG_THRESHOLD">      0.00200000</i>
   <i name="RTIME">     -0.10000000</i>
   <i name="WPLASMAI">      0.00000000</i>
   <v name="DFIELD">      0.00000000      0.00000000      0.00000000</v>
   <v name="WPLASMA">      0.00000000      0.00000000      0.00000000      0.00000000      0.00000000      0.00000000      0.00000000      0.00000000      0.00000000</v>
  </separator>
  <separator name="orbital magnetization" >
   <i type="logical" name="NUCIND"> F  </i>
   <v name="MAGPOS">      0.00000000      0.00000000      0.00000000</v>
   <i type="logical" name="LNICSALL"> T  </i>
   <i type="logical" name="ORBITALMAG"> F  </i>
   <i type="logical" name="LMAGBLOCH"> F  </i>
   <i type="logical" name="LCHIMAG"> F  </i>
   <i type="logical" name="LGAUGE"> T  </i>
   <i type="int" name="MAGATOM">     0</i>
   <v name="MAGDIPOL">      0.00000000      0.00000000      0.00000000</v>
   <v name="AVECCONST">      0.00000000      0.00000000      0.00000000</v>
  </separator>
  <separator name="response functions" >
   <i type="logical" name="LADDER"> F  </i>
   <i type="logical" name="LRPAFORCE"> F  </i>
   <i type="logical" name="LFXC"> F  </i>
   <i type="logical" name="LHARTREE"> T  </i>
   <i type="int" name="IBSE">     0</i>
   <v type="int" name="KPOINT">    -1     0     0     0</v>
   <i type="logical" name="LTCTE"> F  </i>
   <i type="logical" name="LTETE"> F  </i>
   <i type="logical" name="LTRIPLET"> F  </i>
   <i type="logical" name="LFXCEPS"> F  </i>
   <i type="logical" name="LFXHEG"> F  </i>
   <i type="int" name="NATURALO">     2</i>
   <i type="logical" name="L2ORDER"> F  </i>
   <i type="logical" name="LMP2LT"> F  </i>
   <i type="logical" name="LUSEW"> F  </i>
   <i name="ENCUTGW">     -2.00000000</i>
   <i name="ENCUTGWSOFT">     -2.00000000</i>
   <i name="ENCUTLF">     -1.00000000</i>
   <i type="int" name="LMAXMP2">    -1</i>
   <i name="SCISSOR">      0.00000000</i>
   <i type="int" name="NOMEGA">     0</i>
   <i type="int" name="NOMEGAR">     0</i>
   <i type="int" name="NBANDSGW">    -1</i>
   <i type="int" name="NBANDSO">    -1</i>
   <i type="int" name="NBANDSV">    -1</i>
   <i type="int" name="NELM">     1</i>
   <i type="int" name="NELMHF">     1</i>
   <i type="int" name="DIM">     3</i>
   <i type="int" name="ANTIRES">     0</i>
   <i name="OMEGAMAX">    -30.00000000</i>
   <i name="OMEGAMIN">    -30.00000000</i>
   <i name="OMEGATL">   -200.00000000</i>
   <i type="int" name="OMEGAGRID">   140</i>
   <i name="CSHIFT">     -0.10000000</i>
   <i type="logical" name="SELFENERGY"> F  </i>
   <i type="logical" name="LSPECTRAL"> F  </i>
   <i type="logical" name="LSPECTRALGW"> F  </i>
   <i type="logical" name="LSINGLES"> F  </i>
   <i type="logical" name="LFERMIGW"> F  </i>
   <i type="logical" name="ODDONLYGW"> F  </i>
   <i type="logical" name="EVENONLYGW"> F  </i>
   <i type="int" name="NKREDLFX">     1</i>
   <i type="int" name="NKREDLFY">     1</i>
   <i type="int" name="NKREDLFZ">     1</i>
   <i type="int" name="MAXMEM">  2800</i>
   <i type="int" name="TELESCOPE">     0</i>
   <i type="int" name="TAUPAR">     1</i>
   <i type="int" name="OMEGAPAR">    -1</i>
   <i name="LAMBDA">      1.00000000</i>
  </separator>
  <separator name="External order field" >
   <i name="OFIELD_KAPPA">      0.00000000</i>
   <v name="OFIELD_K">      0.00000000      0.00000000      0.00000000</v>
   <i name="OFIELD_Q6_NEAR">      0.00000000</i>
   <i name="OFIELD_Q6_FAR">      0.00000000</i>
   <i name="OFIELD_A">      0.00000000</i>
  </separator>
 </parameters>
 <atominfo>
  <atoms>       3 </atoms>
  <types>       2 </types>
  <array name="atoms" >
   <dimension dim="1">ion</dimension>
   <field type="string">element</field>
   <field type="int">atomtype</field>
   <set>
    <rc><c>W </c><c>   1</c></rc>
    <rc><c>Se</c><c>   2</c></rc>
    <rc><c>Se</c><c>   2</c></rc>
   </set>
  </array>
  <array name="atomtypes" >
   <dimension dim="1">type</dimension>
   <field type="int">atomspertype</field>
   <field type="string">element</field>
   <field>mass</field>
   <field>valence</field>
   <field type="string">pseudopotential</field>
   <set>
    <rc><c>   1</c><c>W </c><c>    183.85000000</c><c>      6.00000000</c><c> PAW_PBE W 08Apr2002                    </c></rc>
    <rc><c>   2</c><c>Se</c><c>     78.96000000</c><c>      6.00000000</c><c> PAW_PBE Se 06Sep2000                   </c></rc>
   </set>
  </array>
 </atominfo>
 <structure name="initialpos" >
  <crystal>
   <varray name="basis" >
    <v>       3.28200000       0.00000000       0.00000000 </v>
    <v>       1.64100000       2.84048000       0.00000000 </v>
    <v>       0.00000000       0.00000000      20.00000000 </v>
   </varray>
   <i name="volume">    186.44910720 </i>
   <varray name="rec_basis" >
    <v>       0.30469226      -0.17602659       0.00000000 </v>
    <v>       0.00000000       0.35205317       0.00000000 </v>
    <v>       0.00000000       0.00000000       0.05000000 </v>
   </varray>
  </crystal>
  <varray name="positions" >
   <v>       0.99990000       0.00020000       0.00000000 </v>
   <v>       0.33327700       0.33344600       0.91545900 </v>
   <v>       0.33327700       0.33344600       0.08454100 </v>
  </varray>
 </structure>
 <calculation>
  <scstep>
   <time name="dav">    1.78    1.79</time>
   <time name="total">    1.84    1.86</time>
   <energy>
    <i name="alphaZ">     22.94334738 </i>
    <i name="ewald">   2158.26868162 </i>
    <i name="hartreedc">  -2831.72882871 </i>
    <i name="XCdc">    -47.72554305 </i>
    <i name="pawpsdc">    466.06334086 </i>
    <i name="pawaedc">   -380.94912685 </i>
    <i name="eentropy">     -0.00011764 </i>
    <i name="bandstr">     13.78448316 </i>
    <i name="atom">    718.53809099 </i>
    <i name="e_fr_energy">    119.19432776 </i>
    <i name="e_wo_entrp">    119.19444539 </i>
    <i name="e_0_energy">    119.19438657 </i>
   </energy>
  </scstep>
  <scstep>
   <time name="dav">    2.47    2.47</time>
   <time name="total">    2.47    2.48</time>
   <energy>
    <i name="e_fr_energy">     -9.44478691 </i>
    <i name="e_wo_entrp">     -9.44478691 </i>
    <i name="e_0_energy">     -9.44478691 </i>
   </energy>
  </scstep>
  <scstep>
   <time name="dav">    2.20    2.20</time>
   <time name="total">    2.20    2.20</time>
   <energy>
    <i name="e_fr_energy">    -21.05255670 </i>
    <i name="e_wo_entrp">    -21.05255670 </i>
    <i name="e_0_energy">    -21.05255670 </i>
   </energy>
  </scstep>
  <scstep>
   <time name="dav">    2.23    2.24</time>
   <time name="total">    2.23    2.24</time>
   <energy>
    <i name="e_fr_energy">    -21.24325405 </i>
    <i name="e_wo_entrp">    -21.24325405 </i>
    <i name="e_0_energy">    -21.24325405 </i>
   </energy>
  </scstep>
  <scstep>
   <time name="dav">    2.25    2.25</time>
   <time name="total">    2.25    2.25</time>
   <energy>
    <i name="e_fr_energy">    -21.24541707 </i>
    <i name="e_wo_entrp">    -21.24541707 </i>
    <i name="e_0_energy">    -21.24541707 </i>
   </energy>
  </scstep>
  <scstep>
   <time name="dav">    2.23    2.24</time>
   <time name="total">    2.23    2.24</time>
   <energy>
    <i name="e_fr_energy">    -21.24543395 </i>
    <i name="e_wo_entrp">    -21.24543395 </i>
    <i name="e_0_energy">    -21.24543395 </i>
   </energy>
  </scstep>
  <scstep>
   <time name="dav">    2.26    2.26</time>
   <time name="total">    2.26    2.26</time>
   <energy>
    <i name="e_fr_energy">    -21.24543406 </i>
    <i name="e_wo_entrp">    -21.24543406 </i>
    <i name="e_0_energy">    -21.24543406 </i>
   </energy>
  </scstep>
  <scstep>
   <time name="dav">    2.22    2.22</time>
   <time name="total">    2.22    2.22</time>
   <energy>
    <i name="alphaZ">     22.94334738 </i>
    <i name="ewald">   2158.26868162 </i>
    <i name="hartreedc">  -2831.72882871 </i>
    <i name="XCdc">    -47.72554305 </i>
    <i name="pawpsdc">    466.06334086 </i>
    <i name="pawaedc">   -380.94912685 </i>
    <i name="eentropy">     -0.00000000 </i>
    <i name="bandstr">   -126.65539630 </i>
    <i name="atom">    718.53809099 </i>
    <i name="e_fr_energy">    -21.24543406 </i>
    <i name="e_wo_entrp">    -21.24543406 </i>
    <i name="e_0_energy">    -21.24543406 </i>
   </energy>
  </scstep>
  <structure>
   <crystal>
    <varray name="basis" >
     <v>       3.28200000       0.00000000       0.00000000 </v>
     <v>       1.64100000       2.84048000       0.00000000 </v>
     <v>       0.00000000       0.00000000      20.00000000 </v>
    </varray>
    <i name="volume">    186.44910720 </i>
    <varray name="rec_basis" >
     <v>       0.30469226      -0.17602659       0.00000000 </v>
     <v>       0.00000000       0.35205317       0.00000000 </v>
     <v>       0.00000000       0.00000000       0.05000000 </v>
    </varray>
   </crystal>
   <varray name="positions" >
    <v>       0.99990000       0.00020000       0.00000000 </v>
    <v>       0.33327700       0.33344600       0.91545900 </v>
    <v>       0.33327700       0.33344600       0.08454100 </v>
   </varray>
  </structure>
  <varray name="forces" >
   <v>       0.00000000       0.05995847       0.00000000 </v>
   <v>      -0.00000000      -0.02997924      -0.03178476 </v>
   <v>      -0.00000000      -0.02997924       0.03178476 </v>
  </varray>
  <varray name="stress" >
   <v>       9.55814834       0.00000000       0.00000000 </v>
   <v>       0.00000000       2.41207046       0.00000000 </v>
   <v>       0.00000000       0.00000000       6.98941668 </v>
  </varray>
  <energy>
   <i name="e_fr_energy">    -21.24543406 </i>
   <i name="e_wo_entrp">    -21.24543406 </i>
   <i name="e_0_energy">     -0.00000000 </i>
  </energy>
  <time name="totalsc">   19.96   20.07</time>
  <eigenvalues>
   <array>
    <dimension dim="1">band</dimension>
    <dimension dim="2">kpoint</dimension>
    <dimension dim="3">spin</dimension>
    <field>eigene</field>
    <field>occ</field>
    <set>
     <set comment="spin 1">
      <set comment="kpoint 1">
       <r>  -16.5475    1.0000 </r>
       <r>  -15.3661    1.0000 </r>
       <r>   -8.0051    1.0000 </r>
       <r>   -4.0500    1.0000 </r>
       <r>   -4.0474    1.0000 </r>
       <r>   -4.0402    1.0000 </r>
       <r>   -2.9127    1.0000 </r>
       <r>   -2.9078    1.0000 </r>
       <r>   -2.2405    1.0000 </r>
       <r>    1.2311    0.0000 </r>
       <r>    1.2347    0.0000 </r>
       <r>    1.3699    0.0000 </r>
       <r>    1.3764    0.0000 </r>
       <r>    2.4993    0.0000 </r>
       <r>    2.9597    0.0000 </r>
       <r>    3.4450    0.0000 </r>
       <r>    4.1621    0.0000 </r>
       <r>    4.9138    0.0000 </r>
      </set>
      <set comment="kpoint 2">
       <r>  -16.5459    1.0000 </r>
       <r>  -15.3652    1.0000 </r>
       <r>   -8.0031    1.0000 </r>
       <r>   -4.0535    1.0000 </r>
       <r>   -4.0515    1.0000 </r>
       <r>   -4.0395    1.0000 </r>
       <r>   -2.9136    1.0000 </r>
       <r>   -2.9092    1.0000 </r>
       <r>   -2.2407    1.0000 </r>
       <r>    1.2268    0.0000 </r>
       <r>    1.2369    0.0000 </r>
       <r>    1.3609    0.0000 </r>
       <r>    1.3732    0.0000 </r>
       <r>    2.5065    0.0000 </r>
       <r>    2.9619    0.0000 </r>
       <r>    3.4498    0.0000 </r>
       <r>    4.1664    0.0000 </r>
       <r>    4.9159    0.0000 </r>
      </set>
      <set comment="kpoint 3">
       <r>  -16.5412    1.0000 </r>
       <r>  -15.3626    1.0000 </r>
       <r>   -7.9969    1.0000 </r>
       <r>   -4.0659    1.0000 </r>
       <r>   -4.0638    1.0000 </r>
       <r>   -4.0354    1.0000 </r>
       <r>   -2.9209    1.0000 </r>
       <r>   -2.9089    1.0000 </r>
       <r>   -2.2413    1.0000 </r>
       <r>    1.2124    0.0000 </r>
       <r>    1.2453    0.0000 </r>
       <r>    1.3323    0.0000 </r>
       <r>    1.3662    0.0000 </r>
       <r>    2.5271    0.0000 </r>
       <r>    2.9685    0.0000 </r>
       <r>    3.4641    0.0000 </r>
       <r>    4.1793    0.0000 </r>
       <r>    4.9220    0.0000 </r>
      </set>
      <set comment="kpoint 4">
       <r>  -16.5334    1.0000 </r>
       <r>  -15.3583    1.0000 </r>
       <r>   -7.9866    1.0000 </r>
       <r>   -4.0906    1.0000 </r>
       <r>   -4.0808    1.0000 </r>
       <r>   -4.0277    1.0000 </r>
       <r>   -2.9349    1.0000 </r>
       <r>   -2.9067    1.0000 </r>
       <r>   -2.2424    1.0000 </r>
       <r>    1.1891    0.0000 </r>
       <r>    1.2595    0.0000 </r>
       <r>    1.2869    0.0000 </r>
       <r>    1.3551    0.0000 </r>
       <r>    2.5588    0.0000 </r>
       <r>    2.9795    0.0000 </r>
       <r>    3.4876    0.0000 </r>
       <r>    4.2012    0.0000 </r>
       <r>    4.9322    0.0000 </r>
      </set>
      <set comment="kpoint 5">
       <r>  -16.5225    1.0000 </r>
       <r>  -15.3522    1.0000 </r>
       <r>   -7.9722    1.0000 </r>
       <r>   -4.1250    1.0000 </r>
       <r>   -4.1040    1.0000 </r>
       <r>   -4.0168    1.0000 </r>
       <r>   -2.9545    1.0000 </r>
       <r>   -2.9042    1.0000 </r>
       <r>   -2.2441    1.0000 </r>
       <r>    1.1581    0.0000 </r>
       <r>    1.2281    0.0000 </r>
       <r>    1.2790    0.0000 </r>
       <r>    1.3399    0.0000 </r>
       <r>    2.5986    0.0000 </r>
       <r>    2.9948    0.0000 </r>
       <r>    3.5194    0.0000 </r>
       <r>    4.2324    0.0000 </r>
       <r>    4.9463    0.0000 </r>
      </set>
      <set comment="kpoint 6">
       <r>  -16.5086    1.0000 </r>
       <r>  -15.3445    1.0000 </r>
       <r>   -7.9538    1.0000 </r>
       <r>   -4.1685    1.0000 </r>
       <r>   -4.1332    1.0000 </r>
       <r>   -4.0028    1.0000 </r>
       <r>   -2.9794    1.0000 </r>
       <r>   -2.9021    1.0000 </r>
       <r>   -2.2465    1.0000 </r>
       <r>    1.1210    0.0000 </r>
       <r>    1.1591    0.0000 </r>
       <r>    1.3036    0.0000 </r>
       <r>    1.3208    0.0000 </r>
       <r>    2.6437    0.0000 </r>
       <r>    3.0142    0.0000 </r>
       <r>    3.5587    0.0000 </r>
       <r>    4.2731    0.0000 </r>
       <r>    4.9643    0.0000 </r>
      </set>
      <set comment="kpoint 7">
       <r>  -16.4915    1.0000 </r>
       <r>  -15.3350    1.0000 </r>
       <r>   -7.9314    1.0000 </r>
       <r>   -4.2207    1.0000 </r>
       <r>   -4.1676    1.0000 </r>
       <r>   -3.9858    1.0000 </r>
       <r>   -3.0090    1.0000 </r>
       <r>   -2.9013    1.0000 </r>
       <r>   -2.2498    1.0000 </r>
       <r>    1.0795    0.0000 </r>
       <r>    1.0827    0.0000 </r>
       <r>    1.2980    0.0000 </r>
       <r>    1.3329    0.0000 </r>
       <r>    2.6920    0.0000 </r>
       <r>    3.0377    0.0000 </r>
       <r>    3.6041    0.0000 </r>
       <r>    4.3239    0.0000 </r>
       <r>    4.9862    0.0000 </r>
      </set>
      <set comment="kpoint 8">
       <r>  -16.4714    1.0000 </r>
       <r>  -15.3239    1.0000 </r>
       <r>   -7.9051    1.0000 </r>
       <r>   -4.2810    1.0000 </r>
       <r>   -4.2070    1.0000 </r>
       <r>   -3.9658    1.0000 </r>
       <r>   -3.0432    1.0000 </r>
       <r>   -2.9024    1.0000 </r>
       <r>   -2.2543    1.0000 </r>
       <r>    1.0014    0.0000 </r>
       <r>    1.0354    0.0000 </r>
       <r>    1.2718    0.0000 </r>
       <r>    1.3665    0.0000 </r>
       <r>    2.7420    0.0000 </r>
       <r>    3.0651    0.0000 </r>
       <r>    3.6544    0.0000 </r>
       <r>    4.3849    0.0000 </r>
       <r>    5.0118    0.0000 </r>
      </set>
      <set comment="kpoint 9">
       <r>  -16.4484    1.0000 </r>
       <r>  -15.3112    1.0000 </r>
       <r>   -7.8750    1.0000 </r>
       <r>   -4.3490    1.0000 </r>
       <r>   -4.2509    1.0000 </r>
       <r>   -3.9429    1.0000 </r>
       <r>   -3.0816    1.0000 </r>
       <r>   -2.9063    1.0000 </r>
       <r>   -2.2602    1.0000 </r>
       <r>    0.9172    0.0000 </r>
       <r>    0.9906    0.0000 </r>
       <r>    1.2425    0.0000 </r>
       <r>    1.4040    0.0000 </r>
       <r>    2.7929    0.0000 </r>
       <r>    3.0964    0.0000 </r>
       <r>    3.7080    0.0000 </r>
       <r>    4.4559    0.0000 </r>
       <r>    5.0411    0.0000 </r>
      </set>
      <set comment="kpoint 10">
       <r>  -16.4224    1.0000 </r>
       <r>  -15.2968    1.0000 </r>
       <r>   -7.8411    1.0000 </r>
       <r>   -4.4239    1.0000 </r>
       <r>   -4.2989    1.0000 </r>
       <r>   -3.9172    1.0000 </r>
       <r>   -3.1236    1.0000 </r>
       <r>   -2.9135    1.0000 </r>
       <r>   -2.2679    1.0000 </r>
       <r>    0.8317    0.0000 </r>
       <r>    0.9468    0.0000 </r>
       <r>    1.2104    0.0000 </r>
       <r>    1.4448    0.0000 </r>
       <r>    2.8443    0.0000 </r>
       <r>    3.1314    0.0000 </r>
       <r>    3.7637    0.0000 </r>
       <r>    4.5363    0.0000 </r>
       <r>    5.0740    0.0000 </r>
      </set>
      <set comment="kpoint 11">
       <r>  -16.3935    1.0000 </r>
       <r>  -15.2808    1.0000 </r>
       <r>   -7.8037    1.0000 </r>
       <r>   -4.5051    1.0000 </r>
       <r>   -4.3506    1.0000 </r>
       <r>   -3.8889    1.0000 </r>
       <r>   -3.1690    1.0000 </r>
       <r>   -2.9248    1.0000 </r>
       <r>   -2.2776    1.0000 </r>
       <r>    0.7464    0.0000 </r>
       <r>    0.9056    0.0000 </r>
       <r>    1.1759    0.0000 </r>
       <r>    1.4885    0.0000 </r>
       <r>    2.8961    0.0000 </r>
       <r>    3.1702    0.0000 </r>
       <r>    3.8208    0.0000 </r>
       <r>    4.6250    0.0000 </r>
       <r>    5.1105    0.0000 </r>
      </set>
      <set comment="kpoint 12">
       <r>  -16.3617    1.0000 </r>
       <r>  -15.2632    1.0000 </r>
       <r>   -7.7627    1.0000 </r>
       <r>   -4.5920    1.0000 </r>
       <r>   -4.4057    1.0000 </r>
       <r>   -3.8579    1.0000 </r>
       <r>   -3.2172    1.0000 </r>
       <r>   -2.9405    1.0000 </r>
       <r>   -2.2898    1.0000 </r>
       <r>    0.6627    0.0000 </r>
       <r>    0.8685    0.0000 </r>
       <r>    1.1395    0.0000 </r>
       <r>    1.5346    0.0000 </r>
       <r>    2.9484    0.0000 </r>
       <r>    3.2127    0.0000 </r>
       <r>    3.8787    0.0000 </r>
       <r>    4.7201    0.0000 </r>
       <r>    5.1505    0.0000 </r>
      </set>
      <set comment="kpoint 13">
       <r>  -16.3272    1.0000 </r>
       <r>  -15.2442    1.0000 </r>
       <r>   -7.7184    1.0000 </r>
       <r>   -4.6839    1.0000 </r>
       <r>   -4.4641    1.0000 </r>
       <r>   -3.8244    1.0000 </r>
       <r>   -3.2680    1.0000 </r>
       <r>   -2.9609    1.0000 </r>
       <r>   -2.3047    1.0000 </r>
       <r>    0.5816    0.0000 </r>
       <r>    0.8367    0.0000 </r>
       <r>    1.1015    0.0000 </r>
       <r>    1.5827    0.0000 </r>
       <r>    3.0015    0.0000 </r>
       <r>    3.2587    0.0000 </r>
       <r>    3.9372    0.0000 </r>
       <r>    4.8196    0.0000 </r>
       <r>    5.1939    0.0000 </r>
      </set>
      <set comment="kpoint 14">
       <r>  -16.2899    1.0000 </r>
       <r>  -15.2236    1.0000 </r>
       <r>   -7.6709    1.0000 </r>
       <r>   -4.7803    1.0000 </r>
       <r>   -4.5256    1.0000 </r>
       <r>   -3.7885    1.0000 </r>
       <r>   -3.3208    1.0000 </r>
       <r>   -2.9860    1.0000 </r>
       <r>   -2.3228    1.0000 </r>
       <r>    0.5044    0.0000 </r>
       <r>    0.8111    0.0000 </r>
       <r>    1.0622    0.0000 </r>
       <r>    1.6321    0.0000 </r>
       <r>    3.0556    0.0000 </r>
       <r>    3.3083    0.0000 </r>
       <r>    3.9963    0.0000 </r>
       <r>    4.9210    0.0000 </r>
       <r>    5.2406    0.0000 </r>
      </set>
      <set comment="kpoint 15">
       <r>  -16.2501    1.0000 </r>
       <r>  -15.2016    1.0000 </r>
       <r>   -7.6205    1.0000 </r>
       <r>   -4.8805    1.0000 </r>
       <r>   -4.5901    1.0000 </r>
       <r>   -3.7505    1.0000 </r>
       <r>   -3.3753    1.0000 </r>
       <r>   -3.0159    1.0000 </r>
       <r>   -2.3443    1.0000 </r>
       <r>    0.4319    0.0000 </r>
       <r>    0.7923    0.0000 </r>
       <r>    1.0222    0.0000 </r>
       <r>    1.6826    0.0000 </r>
       <r>    3.1109    0.0000 </r>
       <r>    3.3614    0.0000 </r>
       <r>    4.0561    0.0000 </r>
       <r>    5.0213    0.0000 </r>
       <r>    5.2906    0.0000 </r>
      </set>
      <set comment="kpoint 16">
       <r>  -16.2076    1.0000 </r>
       <r>  -15.1783    1.0000 </r>
       <r>   -7.5674    1.0000 </r>
       <r>   -4.9839    1.0000 </r>
       <r>   -4.6574    1.0000 </r>
       <r>   -3.7104    1.0000 </r>
       <r>   -3.4312    1.0000 </r>
       <r>   -3.0501    1.0000 </r>
       <r>   -2.3695    1.0000 </r>
       <r>    0.3651    0.0000 </r>
       <r>    0.7809    0.0000 </r>
       <r>    0.9818    0.0000 </r>
       <r>    1.7336    0.0000 </r>
       <r>    3.1675    0.0000 </r>
       <r>    3.4180    0.0000 </r>
       <r>    4.1168    0.0000 </r>
       <r>    5.1180    0.0000 </r>
       <r>    5.3437    0.0000 </r>
      </set>
      <set comment="kpoint 17">
       <r>  -16.1627    1.0000 </r>
       <r>  -15.1536    1.0000 </r>
       <r>   -7.5119    1.0000 </r>
       <r>   -5.0900    1.0000 </r>
       <r>   -4.7275    1.0000 </r>
       <r>   -3.6684    1.0000 </r>
       <r>   -3.4882    1.0000 </r>
       <r>   -3.0884    1.0000 </r>
       <r>   -2.3986    1.0000 </r>
       <r>    0.3048    0.0000 </r>
       <r>    0.7769    0.0000 </r>
       <r>    0.9413    0.0000 </r>
       <r>    1.7848    0.0000 </r>
       <r>    3.2257    0.0000 </r>
       <r>    3.4779    0.0000 </r>
       <r>    4.1787    0.0000 </r>
       <r>    5.2081    0.0000 </r>
       <r>    5.3999    0.0000 </r>
      </set>
      <set comment="kpoint 18">
       <r>  -16.1154    1.0000 </r>
       <r>  -15.1276    1.0000 </r>
       <r>   -7.4543    1.0000 </r>
       <r>   -5.1981    1.0000 </r>
       <r>   -4.8003    1.0000 </r>
       <r>   -3.6247    1.0000 </r>
       <r>   -3.5458    1.0000 </r>
       <r>   -3.1301    1.0000 </r>
       <r>   -2.4315    1.0000 </r>
       <r>    0.2515    0.0000 </r>
       <r>    0.7805    0.0000 </r>
       <r>    0.9012    0.0000 </r>
       <r>    1.8358    0.0000 </r>
       <r>    3.2853    0.0000 </r>
       <r>    3.5411    0.0000 </r>
       <r>    4.2417    0.0000 </r>
       <r>    5.2892    0.0000 </r>
       <r>    5.4588    0.0000 </r>
      </set>
      <set comment="kpoint 19">
       <r>  -16.0659    1.0000 </r>
       <r>  -15.1005    1.0000 </r>
       <r>   -7.3951    1.0000 </r>
       <r>   -5.3076    1.0000 </r>
       <r>   -4.8758    1.0000 </r>
       <r>   -3.6038    1.0000 </r>
       <r>   -3.5795    1.0000 </r>
       <r>   -3.1747    1.0000 </r>
       <r>   -2.4682    1.0000 </r>
       <r>    0.2058    0.0000 </r>
       <r>    0.7913    0.0000 </r>
       <r>    0.8618    0.0000 </r>
       <r>    1.8862    0.0000 </r>
       <r>    3.3466    0.0000 </r>
       <r>    3.6075    0.0000 </r>
       <r>    4.3060    0.0000 </r>
       <r>    5.3593    0.0000 </r>
       <r>    5.5204    0.0000 </r>
      </set>
      <set comment="kpoint 20">
       <r>  -16.0142    1.0000 </r>
       <r>  -15.0722    1.0000 </r>
       <r>   -7.3347    1.0000 </r>
       <r>   -5.4180    1.0000 </r>
       <r>   -4.9539    1.0000 </r>
       <r>   -3.6620    1.0000 </r>
       <r>   -3.5330    1.0000 </r>
       <r>   -3.2214    1.0000 </r>
       <r>   -2.5085    1.0000 </r>
       <r>    0.1680    0.0000 </r>
       <r>    0.8092    0.0000 </r>
       <r>    0.8234    0.0000 </r>
       <r>    1.9358    0.0000 </r>
       <r>    3.4094    0.0000 </r>
       <r>    3.6770    0.0000 </r>
       <r>    4.3717    0.0000 </r>
       <r>    5.4168    0.0000 </r>
       <r>    5.5844    0.0000 </r>
      </set>
      <set comment="kpoint 21">
       <r>  -15.9605    1.0000 </r>
       <r>  -15.0429    1.0000 </r>
       <r>   -7.2738    1.0000 </r>
       <r>   -5.5284    1.0000 </r>
       <r>   -5.0344    1.0000 </r>
       <r>   -3.7200    1.0000 </r>
       <r>   -3.4855    1.0000 </r>
       <r>   -3.2695    1.0000 </r>
       <r>   -2.5519    1.0000 </r>
       <r>    0.1381    0.0000 </r>
       <r>    0.7864    0.0000 </r>
       <r>    0.8335    0.0000 </r>
       <r>    1.9843    0.0000 </r>
       <r>    3.4738    0.0000 </r>
       <r>    3.7495    0.0000 </r>
       <r>    4.4385    0.0000 </r>
       <r>    5.4608    0.0000 </r>
       <r>    5.6503    0.0000 </r>
      </set>
      <set comment="kpoint 22">
       <r>  -15.9049    1.0000 </r>
       <r>  -15.0127    1.0000 </r>
       <r>   -7.2131    1.0000 </r>
       <r>   -5.6382    1.0000 </r>
       <r>   -5.1173    1.0000 </r>
       <r>   -3.7776    1.0000 </r>
       <r>   -3.4372    1.0000 </r>
       <r>   -3.3183    1.0000 </r>
       <r>   -2.5979    1.0000 </r>
       <r>    0.1162    0.0000 </r>
       <r>    0.7512    0.0000 </r>
       <r>    0.8638    0.0000 </r>
       <r>    2.0314    0.0000 </r>
       <r>    3.5395    0.0000 </r>
       <r>    3.8248    0.0000 </r>
       <r>    4.5064    0.0000 </r>
       <r>    5.4909    0.0000 </r>
       <r>    5.7176    0.0000 </r>
      </set>
      <set comment="kpoint 23">
       <r>  -15.8475    1.0000 </r>
       <r>  -14.9816    1.0000 </r>
       <r>   -7.1537    1.0000 </r>
       <r>   -5.7463    1.0000 </r>
       <r>   -5.2023    1.0000 </r>
       <r>   -3.8347    1.0000 </r>
       <r>   -3.3883    1.0000 </r>
       <r>   -3.3672    1.0000 </r>
       <r>   -2.6457    1.0000 </r>
       <r>    0.1020    0.0000 </r>
       <r>    0.7179    0.0000 </r>
       <r>    0.8995    0.0000 </r>
       <r>    2.0770    0.0000 </r>
       <r>    3.6063    0.0000 </r>
       <r>    3.9029    0.0000 </r>
       <r>    4.5750    0.0000 </r>
       <r>    5.5072    0.0000 </r>
       <r>    5.7857    0.0000 </r>
      </set>
      <set comment="kpoint 24">
       <r>  -15.7886    1.0000 </r>
       <r>  -14.9496    1.0000 </r>
       <r>   -7.0969    1.0000 </r>
       <r>   -5.8513    1.0000 </r>
       <r>   -5.2892    1.0000 </r>
       <r>   -3.8911    1.0000 </r>
       <r>   -3.4156    1.0000 </r>
       <r>   -3.3391    1.0000 </r>
       <r>   -2.6946    1.0000 </r>
       <r>    0.0953    0.0000 </r>
       <r>    0.6868    0.0000 </r>
       <r>    0.9400    0.0000 </r>
       <r>    2.1209    0.0000 </r>
       <r>    3.6741    0.0000 </r>
       <r>    3.9834    0.0000 </r>
       <r>    4.6436    0.0000 </r>
       <r>    5.5105    0.0000 </r>
       <r>    5.8533    0.0000 </r>
      </set>
      <set comment="kpoint 25">
       <r>  -15.7282    1.0000 </r>
       <r>  -14.9171    1.0000 </r>
       <r>   -7.0447    1.0000 </r>
       <r>   -5.9516    1.0000 </r>
       <r>   -5.3777    1.0000 </r>
       <r>   -3.9464    1.0000 </r>
       <r>   -3.4630    1.0000 </r>
       <r>   -3.2898    1.0000 </r>
       <r>   -2.7436    1.0000 </r>
       <r>    0.0956    0.0000 </r>
       <r>    0.6583    0.0000 </r>
       <r>    0.9846    0.0000 </r>
       <r>    2.1629    0.0000 </r>
       <r>    3.7424    0.0000 </r>
       <r>    4.0663    0.0000 </r>
       <r>    4.7113    0.0000 </r>
       <r>    5.5019    0.0000 </r>
       <r>    5.9189    0.0000 </r>
      </set>
      <set comment="kpoint 26">
       <r>  -15.6666    1.0000 </r>
       <r>  -14.8840    1.0000 </r>
       <r>   -6.9998    1.0000 </r>
       <r>   -6.0445    1.0000 </r>
       <r>   -5.4676    1.0000 </r>
       <r>   -4.0006    1.0000 </r>
       <r>   -3.5090    1.0000 </r>
       <r>   -3.2408    1.0000 </r>
       <r>   -2.7919    1.0000 </r>
       <r>    0.1025    0.0000 </r>
       <r>    0.6325    0.0000 </r>
       <r>    1.0328    0.0000 </r>
       <r>    2.2029    0.0000 </r>
       <r>    3.8109    0.0000 </r>
       <r>    4.1512    0.0000 </r>
       <r>    4.7761    0.0000 </r>
       <r>    5.4837    0.0000 </r>
       <r>    5.9799    0.0000 </r>
      </set>
      <set comment="kpoint 27">
       <r>  -15.6039    1.0000 </r>
       <r>  -14.8504    1.0000 </r>
       <r>   -6.9659    1.0000 </r>
       <r>   -6.1263    1.0000 </r>
       <r>   -5.5584    1.0000 </r>
       <r>   -4.0536    1.0000 </r>
       <r>   -3.5532    1.0000 </r>
       <r>   -3.1922    1.0000 </r>
       <r>   -2.8386    1.0000 </r>
       <r>    0.1156    0.0000 </r>
       <r>    0.6096    0.0000 </r>
       <r>    1.0840    0.0000 </r>
       <r>    2.2409    0.0000 </r>
       <r>    3.8789    0.0000 </r>
       <r>    4.2378    0.0000 </r>
       <r>    4.8350    0.0000 </r>
       <r>    5.4599    0.0000 </r>
       <r>    6.0324    0.0000 </r>
      </set>
      <set comment="kpoint 28">
       <r>  -15.5404    1.0000 </r>
       <r>  -14.8165    1.0000 </r>
       <r>   -6.9482    1.0000 </r>
       <r>   -6.1925    1.0000 </r>
       <r>   -5.6498    1.0000 </r>
       <r>   -4.1051    1.0000 </r>
       <r>   -3.5953    1.0000 </r>
       <r>   -3.1444    1.0000 </r>
       <r>   -2.8826    1.0000 </r>
       <r>    0.1342    0.0000 </r>
       <r>    0.5898    0.0000 </r>
       <r>    1.1374    0.0000 </r>
       <r>    2.2768    0.0000 </r>
       <r>    3.9455    0.0000 </r>
       <r>    4.3258    0.0000 </r>
       <r>    4.8824    0.0000 </r>
       <r>    5.4368    0.0000 </r>
       <r>    6.0708    0.0000 </r>
      </set>
      <set comment="kpoint 29">
       <r>  -15.4763    1.0000 </r>
       <r>  -14.7825    1.0000 </r>
       <r>   -6.9515    1.0000 </r>
       <r>   -6.2380    1.0000 </r>
       <r>   -5.7412    1.0000 </r>
       <r>   -4.1551    1.0000 </r>
       <r>   -3.6353    1.0000 </r>
       <r>   -3.0977    1.0000 </r>
       <r>   -2.9231    1.0000 </r>
       <r>    0.1579    0.0000 </r>
       <r>    0.5732    0.0000 </r>
       <r>    1.1925    0.0000 </r>
       <r>    2.3106    0.0000 </r>
       <r>    4.0096    0.0000 </r>
       <r>    4.4147    0.0000 </r>
       <r>    4.9099    0.0000 </r>
       <r>    5.4245    0.0000 </r>
       <r>    6.0895    0.0000 </r>
      </set>
      <set comment="kpoint 30">
       <r>  -15.4118    1.0000 </r>
       <r>  -14.7484    1.0000 </r>
       <r>   -6.9785    1.0000 </r>
       <r>   -6.2607    1.0000 </r>
       <r>   -5.8324    1.0000 </r>
       <r>   -4.2034    1.0000 </r>
       <r>   -3.6730    1.0000 </r>
       <r>   -3.0522    1.0000 </r>
       <r>   -2.9592    1.0000 </r>
       <r>    0.1861    0.0000 </r>
       <r>    0.5599    0.0000 </r>
       <r>    1.2487    0.0000 </r>
       <r>    2.3423    0.0000 </r>
       <r>    4.0692    0.0000 </r>
       <r>    4.5039    0.0000 </r>
       <r>    4.9092    0.0000 </r>
       <r>    5.4337    0.0000 </r>
       <r>    6.0863    0.0000 </r>
      </set>
      <set comment="kpoint 31">
       <r>  -15.3472    1.0000 </r>
       <r>  -14.7144    1.0000 </r>
       <r>   -7.0274    1.0000 </r>
       <r>   -6.2623    1.0000 </r>
       <r>   -5.9228    1.0000 </r>
       <r>   -4.2500    1.0000 </r>
       <r>   -3.7082    1.0000 </r>
       <r>   -3.0084    1.0000 </r>
       <r>   -2.9902    1.0000 </r>
       <r>    0.2184    0.0000 </r>
       <r>    0.5500    0.0000 </r>
       <r>    1.3055    0.0000 </r>
       <r>    2.3718    0.0000 </r>
       <r>    4.1211    0.0000 </r>
       <r>    4.5927    0.0000 </r>
       <r>    4.8799    0.0000 </r>
       <r>    5.4689    0.0000 </r>
       <r>    6.0653    0.0000 </r>
      </set>
      <set comment="kpoint 32">
       <r>  -15.2827    1.0000 </r>
       <r>  -14.6807    1.0000 </r>
       <r>   -7.0930    1.0000 </r>
       <r>   -6.2484    1.0000 </r>
       <r>   -6.0119    1.0000 </r>
       <r>   -4.2946    1.0000 </r>
       <r>   -3.7411    1.0000 </r>
       <r>   -3.0158    1.0000 </r>
       <r>   -2.9661    1.0000 </r>
       <r>    0.2544    0.0000 </r>
       <r>    0.5433    0.0000 </r>
       <r>    1.3623    0.0000 </r>
       <r>    2.3992    0.0000 </r>
       <r>    4.1603    0.0000 </r>
       <r>    4.6802    0.0000 </r>
       <r>    4.8323    0.0000 </r>
       <r>    5.5261    0.0000 </r>
       <r>    6.0343    0.0000 </r>
      </set>
      <set comment="kpoint 33">
       <r>  -15.2187    1.0000 </r>
       <r>  -14.6474    1.0000 </r>
       <r>   -7.1697    1.0000 </r>
       <r>   -6.2246    1.0000 </r>
       <r>   -6.0994    1.0000 </r>
       <r>   -4.3373    1.0000 </r>
       <r>   -3.7715    1.0000 </r>
       <r>   -3.0350    1.0000 </r>
       <r>   -2.9259    1.0000 </r>
       <r>    0.2935    0.0000 </r>
       <r>    0.5399    0.0000 </r>
       <r>    1.4185    0.0000 </r>
       <r>    2.4246    0.0000 </r>
       <r>    4.1781    0.0000 </r>
       <r>    4.7652    0.0000 </r>
       <r>    4.7829    0.0000 </r>
       <r>    5.5988    0.0000 </r>
       <r>    6.0011    0.0000 </r>
      </set>
      <set comment="kpoint 34">
       <r>  -15.1554    1.0000 </r>
       <r>  -14.6147    1.0000 </r>
       <r>   -7.2526    1.0000 </r>
       <r>   -6.1958    1.0000 </r>
       <r>   -6.1847    1.0000 </r>
       <r>   -4.3780    1.0000 </r>
       <r>   -3.7996    1.0000 </r>
       <r>   -3.0477    1.0000 </r>
       <r>   -2.8878    1.0000 </r>
       <r>    0.3355    0.0000 </r>
       <r>    0.5395    0.0000 </r>
       <r>    1.4737    0.0000 </r>
       <r>    2.4480    0.0000 </r>
       <r>    4.1639    0.0000 </r>
       <r>    4.7487    0.0000 </r>
       <r>    4.8464    0.0000 </r>
       <r>    5.6820    0.0000 </r>
       <r>    5.9717    0.0000 </r>
      </set>
      <set comment="kpoint 35">
       <r>  -15.0932    1.0000 </r>
       <r>  -14.5827    1.0000 </r>
       <r>   -7.3385    1.0000 </r>
       <r>   -6.2674    1.0000 </r>
       <r>   -6.1653    1.0000 </r>
       <r>   -4.4165    1.0000 </r>
       <r>   -3.8254    1.0000 </r>
       <r>   -3.0538    1.0000 </r>
       <r>   -2.8519    1.0000 </r>
       <r>    0.3798    0.0000 </r>
       <r>    0.5421    0.0000 </r>
       <r>    1.5273    0.0000 </r>
       <r>    2.4695    0.0000 </r>
       <r>    4.1114    0.0000 </r>
       <r>    4.7405    0.0000 </r>
       <r>    4.9220    0.0000 </r>
       <r>    5.7727    0.0000 </r>
       <r>    5.9504    0.0000 </r>
      </set>
      <set comment="kpoint 36">
       <r>  -15.0324    1.0000 </r>
       <r>  -14.5516    1.0000 </r>
       <r>   -7.4249    1.0000 </r>
       <r>   -6.3470    1.0000 </r>
       <r>   -6.1351    1.0000 </r>
       <r>   -4.4528    1.0000 </r>
       <r>   -3.8489    1.0000 </r>
       <r>   -3.0534    1.0000 </r>
       <r>   -2.8185    1.0000 </r>
       <r>    0.4263    0.0000 </r>
       <r>    0.5475    0.0000 </r>
       <r>    1.5789    0.0000 </r>
       <r>    2.4891    0.0000 </r>
       <r>    4.0251    0.0000 </r>
       <r>    4.7573    0.0000 </r>
       <r>    4.9905    0.0000 </r>
       <r>    5.8691    0.0000 </r>
       <r>    5.9404    0.0000 </r>
      </set>
      <set comment="kpoint 37">
       <r>  -14.9733    1.0000 </r>
       <r>  -14.5217    1.0000 </r>
       <r>   -7.5103    1.0000 </r>
       <r>   -6.4232    1.0000 </r>
       <r>   -6.1066    1.0000 </r>
       <r>   -4.4869    1.0000 </r>
       <r>   -3.8703    1.0000 </r>
       <r>   -3.0467    1.0000 </r>
       <r>   -2.7875    1.0000 </r>
       <r>    0.4744    0.0000 </r>
       <r>    0.5552    0.0000 </r>
       <r>    1.6281    0.0000 </r>
       <r>    2.5070    0.0000 </r>
       <r>    3.9154    0.0000 </r>
       <r>    4.7912    0.0000 </r>
       <r>    5.0502    0.0000 </r>
       <r>    5.9438    0.0000 </r>
       <r>    5.9702    0.0000 </r>
      </set>
      <set comment="kpoint 38">
       <r>  -14.9165    1.0000 </r>
       <r>  -14.4931    1.0000 </r>
       <r>   -7.5933    1.0000 </r>
       <r>   -6.4955    1.0000 </r>
       <r>   -6.0807    1.0000 </r>
       <r>   -4.5186    1.0000 </r>
       <r>   -3.8897    1.0000 </r>
       <r>   -3.0342    1.0000 </r>
       <r>   -2.7590    1.0000 </r>
       <r>    0.5239    0.0000 </r>
       <r>    0.5650    0.0000 </r>
       <r>    1.6746    0.0000 </r>
       <r>    2.5231    0.0000 </r>
       <r>    3.7919    0.0000 </r>
       <r>    4.8349    0.0000 </r>
       <r>    5.1001    0.0000 </r>
       <r>    5.9615    0.0000 </r>
       <r>    6.0752    0.0000 </r>
      </set>
      <set comment="kpoint 39">
       <r>  -14.8621    1.0000 </r>
       <r>  -14.4659    1.0000 </r>
       <r>   -7.6729    1.0000 </r>
       <r>   -6.5636    1.0000 </r>
       <r>   -6.0577    1.0000 </r>
       <r>   -4.5480    1.0000 </r>
       <r>   -3.9071    1.0000 </r>
       <r>   -3.0167    1.0000 </r>
       <r>   -2.7331    1.0000 </r>
       <r>    0.5733    0.0000 </r>
       <r>    0.5776    0.0000 </r>
       <r>    1.7179    0.0000 </r>
       <r>    2.5375    0.0000 </r>
       <r>    3.6610    0.0000 </r>
       <r>    4.8838    0.0000 </r>
       <r>    5.1405    0.0000 </r>
       <r>    5.9928    0.0000 </r>
       <r>    6.1832    0.0000 </r>
      </set>
      <set comment="kpoint 40">
       <r>  -14.8108    1.0000 </r>
       <r>  -14.4403    1.0000 </r>
       <r>   -7.7482    1.0000 </r>
       <r>   -6.6271    1.0000 </r>
       <r>   -6.0379    1.0000 </r>
       <r>   -4.5750    1.0000 </r>
       <r>   -3.9226    1.0000 </r>
       <r>   -2.9950    1.0000 </r>
       <r>   -2.7097    1.0000 </r>
       <r>    0.5888    0.0000 </r>
       <r>    0.6261    0.0000 </r>
       <r>    1.7578    0.0000 </r>
       <r>    2.5505    0.0000 </r>
       <r>    3.5275    0.0000 </r>
       <r>    4.9351    0.0000 </r>
       <r>    5.1723    0.0000 </r>
       <r>    6.0356    0.0000 </r>
       <r>    6.2933    0.0000 </r>
      </set>
      <set comment="kpoint 41">
       <r>  -14.7627    1.0000 </r>
       <r>  -14.4166    1.0000 </r>
       <r>   -7.8187    1.0000 </r>
       <r>   -6.6856    1.0000 </r>
       <r>   -6.0211    1.0000 </r>
       <r>   -4.5995    1.0000 </r>
       <r>   -3.9364    1.0000 </r>
       <r>   -2.9702    1.0000 </r>
       <r>   -2.6888    1.0000 </r>
       <r>    0.6023    0.0000 </r>
       <r>    0.6776    0.0000 </r>
       <r>    1.7941    0.0000 </r>
       <r>    2.5619    0.0000 </r>
       <r>    3.3947    0.0000 </r>
       <r>    4.9869    0.0000 </r>
       <r>    5.1974    0.0000 </r>
       <r>    6.0867    0.0000 </r>
       <r>    6.4042    0.0000 </r>
      </set>
      <set comment="kpoint 42">
       <r>  -14.7184    1.0000 </r>
       <r>  -14.3949    1.0000 </r>
       <r>   -7.8835    1.0000 </r>
       <r>   -6.7389    1.0000 </r>
       <r>   -6.0072    1.0000 </r>
       <r>   -4.6216    1.0000 </r>
       <r>   -3.9484    1.0000 </r>
       <r>   -2.9433    1.0000 </r>
       <r>   -2.6703    1.0000 </r>
       <r>    0.6160    0.0000 </r>
       <r>    0.7289    0.0000 </r>
       <r>    1.8267    0.0000 </r>
       <r>    2.5719    0.0000 </r>
       <r>    3.2652    0.0000 </r>
       <r>    5.0380    0.0000 </r>
       <r>    5.2177    0.0000 </r>
       <r>    6.1424    0.0000 </r>
       <r>    6.5139    0.0000 </r>
      </set>
      <set comment="kpoint 43">
       <r>  -14.6782    1.0000 </r>
       <r>  -14.3753    1.0000 </r>
       <r>   -7.9422    1.0000 </r>
       <r>   -6.7866    1.0000 </r>
       <r>   -5.9959    1.0000 </r>
       <r>   -4.6411    1.0000 </r>
       <r>   -3.9589    1.0000 </r>
       <r>   -2.9158    1.0000 </r>
       <r>   -2.6542    1.0000 </r>
       <r>    0.6295    0.0000 </r>
       <r>    0.7793    0.0000 </r>
       <r>    1.8554    0.0000 </r>
       <r>    2.5806    0.0000 </r>
       <r>    3.1418    0.0000 </r>
       <r>    5.0873    0.0000 </r>
       <r>    5.2346    0.0000 </r>
       <r>    6.1988    0.0000 </r>
       <r>    6.6193    0.0000 </r>
      </set>
      <set comment="kpoint 44">
       <r>  -14.6424    1.0000 </r>
       <r>  -14.3580    1.0000 </r>
       <r>   -7.9941    1.0000 </r>
       <r>   -6.8285    1.0000 </r>
       <r>   -5.9870    1.0000 </r>
       <r>   -4.6581    1.0000 </r>
       <r>   -3.9678    1.0000 </r>
       <r>   -2.8887    1.0000 </r>
       <r>   -2.6405    1.0000 </r>
       <r>    0.6423    0.0000 </r>
       <r>    0.8279    0.0000 </r>
       <r>    1.8802    0.0000 </r>
       <r>    2.5880    0.0000 </r>
       <r>    3.0267    0.0000 </r>
       <r>    5.1338    0.0000 </r>
       <r>    5.2492    0.0000 </r>
       <r>    6.2528    0.0000 </r>
       <r>    6.7155    0.0000 </r>
      </set>
      <set comment="kpoint 45">
       <r>  -14.6115    1.0000 </r>
       <r>  -14.3431    1.0000 </r>
       <r>   -8.0390    1.0000 </r>
       <r>   -6.8643    1.0000 </r>
       <r>   -5.9800    1.0000 </r>
       <r>   -4.6725    1.0000 </r>
       <r>   -3.9752    1.0000 </r>
       <r>   -2.8633    1.0000 </r>
       <r>   -2.6290    1.0000 </r>
       <r>    0.6540    0.0000 </r>
       <r>    0.8734    0.0000 </r>
       <r>    1.9011    0.0000 </r>
       <r>    2.5941    0.0000 </r>
       <r>    2.9225    0.0000 </r>
       <r>    5.1764    0.0000 </r>
       <r>    5.2621    0.0000 </r>
       <r>    6.3012    0.0000 </r>
       <r>    6.7962    0.0000 </r>
      </set>
      <set comment="kpoint 46">
       <r>  -14.5858    1.0000 </r>
       <r>  -14.3307    1.0000 </r>
       <r>   -8.0762    1.0000 </r>
       <r>   -6.8939    1.0000 </r>
       <r>   -5.9748    1.0000 </r>
       <r>   -4.6843    1.0000 </r>
       <r>   -3.9812    1.0000 </r>
       <r>   -2.8407    1.0000 </r>
       <r>   -2.6198    1.0000 </r>
       <r>    0.6642    0.0000 </r>
       <r>    0.9146    0.0000 </r>
       <r>    1.9181    0.0000 </r>
       <r>    2.5991    0.0000 </r>
       <r>    2.8317    0.0000 </r>
       <r>    5.2138    0.0000 </r>
       <r>    5.2732    0.0000 </r>
       <r>    6.3420    0.0000 </r>
       <r>    6.8558    0.0000 </r>
      </set>
      <set comment="kpoint 47">
       <r>  -14.5655    1.0000 </r>
       <r>  -14.3210    1.0000 </r>
       <r>   -8.1056    1.0000 </r>
       <r>   -6.9171    1.0000 </r>
       <r>   -5.9711    1.0000 </r>
       <r>   -4.6935    1.0000 </r>
       <r>   -3.9858    1.0000 </r>
       <r>   -2.8220    1.0000 </r>
       <r>   -2.6126    1.0000 </r>
       <r>    0.6725    0.0000 </r>
       <r>    0.9495    0.0000 </r>
       <r>    1.9313    0.0000 </r>
       <r>    2.6029    0.0000 </r>
       <r>    2.7571    0.0000 </r>
       <r>    5.2447    0.0000 </r>
       <r>    5.2824    0.0000 </r>
       <r>    6.3740    0.0000 </r>
       <r>    6.8930    0.0000 </r>
      </set>
      <set comment="kpoint 48">
       <r>  -14.5508    1.0000 </r>
       <r>  -14.3140    1.0000 </r>
       <r>   -8.1267    1.0000 </r>
       <r>   -6.9338    1.0000 </r>
       <r>   -5.9686    1.0000 </r>
       <r>   -4.7001    1.0000 </r>
       <r>   -3.9891    1.0000 </r>
       <r>   -2.8080    1.0000 </r>
       <r>   -2.6075    1.0000 </r>
       <r>    0.6787    0.0000 </r>
       <r>    0.9764    0.0000 </r>
       <r>    1.9406    0.0000 </r>
       <r>    2.6057    0.0000 </r>
       <r>    2.7013    0.0000 </r>
       <r>    5.2680    0.0000 </r>
       <r>    5.2894    0.0000 </r>
       <r>    6.3966    0.0000 </r>
       <r>    6.9122    0.0000 </r>
      </set>
      <set comment="kpoint 49">
       <r>  -14.5419    1.0000 </r>
       <r>  -14.3097    1.0000 </r>
       <r>   -8.1395    1.0000 </r>
       <r>   -6.9439    1.0000 </r>
       <r>   -5.9671    1.0000 </r>
       <r>   -4.7040    1.0000 </r>
       <r>   -3.9910    1.0000 </r>
       <r>   -2.7993    1.0000 </r>
       <r>   -2.6045    1.0000 </r>
       <r>    0.6825    0.0000 </r>
       <r>    0.9935    0.0000 </r>
       <r>    1.9462    0.0000 </r>
       <r>    2.6073    0.0000 </r>
       <r>    2.6667    0.0000 </r>
       <r>    5.2825    0.0000 </r>
       <r>    5.2938    0.0000 </r>
       <r>    6.4099    0.0000 </r>
       <r>    6.9204    0.0000 </r>
      </set>
      <set comment="kpoint 50">
       <r>  -14.5389    1.0000 </r>
       <r>  -14.3083    1.0000 </r>
       <r>   -8.1438    1.0000 </r>
       <r>   -6.9472    1.0000 </r>
       <r>   -5.9667    1.0000 </r>
       <r>   -4.7053    1.0000 </r>
       <r>   -3.9917    1.0000 </r>
       <r>   -2.7964    1.0000 </r>
       <r>   -2.6035    1.0000 </r>
       <r>    0.6838    0.0000 </r>
       <r>    0.9993    0.0000 </r>
       <r>    1.9481    0.0000 </r>
       <r>    2.6078    0.0000 </r>
       <r>    2.6550    0.0000 </r>
       <r>    5.2874    0.0000 </r>
       <r>    5.2953    0.0000 </r>
       <r>    6.4143    0.0000 </r>
       <r>    6.9225    0.0000 </r>
      </set>
      <set comment="kpoint 51">
       <r>  -14.5389    1.0000 </r>
       <r>  -14.3083    1.0000 </r>
       <r>   -8.1438    1.0000 </r>
       <r>   -6.9472    1.0000 </r>
       <r>   -5.9667    1.0000 </r>
       <r>   -4.7053    1.0000 </r>
       <r>   -3.9917    1.0000 </r>
       <r>   -2.7964    1.0000 </r>
       <r>   -2.6035    1.0000 </r>
       <r>    0.6838    0.0000 </r>
       <r>    0.9993    0.0000 </r>
       <r>    1.9481    0.0000 </r>
       <r>    2.6078    0.0000 </r>
       <r>    2.6550    0.0000 </r>
       <r>    5.2874    0.0000 </r>
       <r>    5.2953    0.0000 </r>
       <r>    6.4143    0.0000 </r>
       <r>    6.9225    0.0000 </r>
      </set>
      <set comment="kpoint 52">
       <r>  -14.5387    1.0000 </r>
       <r>  -14.3082    1.0000 </r>
       <r>   -8.1431    1.0000 </r>
       <r>   -6.9472    1.0000 </r>
       <r>   -5.9664    1.0000 </r>
       <r>   -4.7063    1.0000 </r>
       <r>   -3.9914    1.0000 </r>
       <r>   -2.8076    1.0000 </r>
       <r>   -2.5951    1.0000 </r>
       <r>    0.6835    0.0000 </r>
       <r>    0.9999    0.0000 </r>
       <r>    1.9494    0.0000 </r>
       <r>    2.6041    0.0000 </r>
       <r>    2.6563    0.0000 </r>
       <r>    5.2896    0.0000 </r>
       <r>    5.3004    0.0000 </r>
       <r>    6.4150    0.0000 </r>
       <r>    6.9235    0.0000 </r>
      </set>
      <set comment="kpoint 53">
       <r>  -14.5379    1.0000 </r>
       <r>  -14.3077    1.0000 </r>
       <r>   -8.1411    1.0000 </r>
       <r>   -6.9474    1.0000 </r>
       <r>   -5.9656    1.0000 </r>
       <r>   -4.7093    1.0000 </r>
       <r>   -3.9907    1.0000 </r>
       <r>   -2.8370    1.0000 </r>
       <r>   -2.5743    1.0000 </r>
       <r>    0.6829    0.0000 </r>
       <r>    1.0015    0.0000 </r>
       <r>    1.9533    0.0000 </r>
       <r>    2.5931    0.0000 </r>
       <r>    2.6600    0.0000 </r>
       <r>    5.2964    0.0000 </r>
       <r>    5.3154    0.0000 </r>
       <r>    6.4171    0.0000 </r>
       <r>    6.9267    0.0000 </r>
      </set>
      <set comment="kpoint 54">
       <r>  -14.5367    1.0000 </r>
       <r>  -14.3069    1.0000 </r>
       <r>   -8.1377    1.0000 </r>
       <r>   -6.9476    1.0000 </r>
       <r>   -5.9643    1.0000 </r>
       <r>   -4.7143    1.0000 </r>
       <r>   -3.9895    1.0000 </r>
       <r>   -2.8776    1.0000 </r>
       <r>   -2.5478    1.0000 </r>
       <r>    0.6818    0.0000 </r>
       <r>    1.0043    0.0000 </r>
       <r>    1.9599    0.0000 </r>
       <r>    2.5752    0.0000 </r>
       <r>    2.6663    0.0000 </r>
       <r>    5.3076    0.0000 </r>
       <r>    5.3401    0.0000 </r>
       <r>    6.4205    0.0000 </r>
       <r>    6.9320    0.0000 </r>
      </set>
      <set comment="kpoint 55">
       <r>  -14.5350    1.0000 </r>
       <r>  -14.3057    1.0000 </r>
       <r>   -8.1330    1.0000 </r>
       <r>   -6.9479    1.0000 </r>
       <r>   -5.9624    1.0000 </r>
       <r>   -4.7211    1.0000 </r>
       <r>   -3.9879    1.0000 </r>
       <r>   -2.9255    1.0000 </r>
       <r>   -2.5195    1.0000 </r>
       <r>    0.6801    0.0000 </r>
       <r>    1.0082    0.0000 </r>
       <r>    1.9690    0.0000 </r>
       <r>    2.5506    0.0000 </r>
       <r>    2.6749    0.0000 </r>
       <r>    5.3232    0.0000 </r>
       <r>    5.3739    0.0000 </r>
       <r>    6.4254    0.0000 </r>
       <r>    6.9394    0.0000 </r>
      </set>
      <set comment="kpoint 56">
       <r>  -14.5327    1.0000 </r>
       <r>  -14.3042    1.0000 </r>
       <r>   -8.1269    1.0000 </r>
       <r>   -6.9484    1.0000 </r>
       <r>   -5.9601    1.0000 </r>
       <r>   -4.7297    1.0000 </r>
       <r>   -3.9860    1.0000 </r>
       <r>   -2.9785    1.0000 </r>
       <r>   -2.4914    1.0000 </r>
       <r>    0.6780    0.0000 </r>
       <r>    1.0131    0.0000 </r>
       <r>    1.9806    0.0000 </r>
       <r>    2.5201    0.0000 </r>
       <r>    2.6859    0.0000 </r>
       <r>    5.3431    0.0000 </r>
       <r>    5.4163    0.0000 </r>
       <r>    6.4319    0.0000 </r>
       <r>    6.9489    0.0000 </r>
      </set>
      <set comment="kpoint 57">
       <r>  -14.5300    1.0000 </r>
       <r>  -14.3025    1.0000 </r>
       <r>   -8.1195    1.0000 </r>
       <r>   -6.9489    1.0000 </r>
       <r>   -5.9572    1.0000 </r>
       <r>   -4.7399    1.0000 </r>
       <r>   -3.9838    1.0000 </r>
       <r>   -3.0357    1.0000 </r>
       <r>   -2.4643    1.0000 </r>
       <r>    0.6753    0.0000 </r>
       <r>    1.0191    0.0000 </r>
       <r>    1.9946    0.0000 </r>
       <r>    2.4843    0.0000 </r>
       <r>    2.6992    0.0000 </r>
       <r>    5.3674    0.0000 </r>
       <r>    5.4664    0.0000 </r>
       <r>    6.4401    0.0000 </r>
       <r>    6.9604    0.0000 </r>
      </set>
      <set comment="kpoint 58">
       <r>  -14.5268    1.0000 </r>
       <r>  -14.3004    1.0000 </r>
       <r>   -8.1107    1.0000 </r>
       <r>   -6.9496    1.0000 </r>
       <r>   -5.9539    1.0000 </r>
       <r>   -4.7517    1.0000 </r>
       <r>   -3.9815    1.0000 </r>
       <r>   -3.0964    1.0000 </r>
       <r>   -2.4386    1.0000 </r>
       <r>    0.6720    0.0000 </r>
       <r>    1.0260    0.0000 </r>
       <r>    2.0110    0.0000 </r>
       <r>    2.4438    0.0000 </r>
       <r>    2.7146    0.0000 </r>
       <r>    5.3957    0.0000 </r>
       <r>    5.5234    0.0000 </r>
       <r>    6.4501    0.0000 </r>
       <r>    6.9739    0.0000 </r>
      </set>
      <set comment="kpoint 59">
       <r>  -14.5231    1.0000 </r>
       <r>  -14.2980    1.0000 </r>
       <r>   -8.1006    1.0000 </r>
       <r>   -6.9504    1.0000 </r>
       <r>   -5.9500    1.0000 </r>
       <r>   -4.7648    1.0000 </r>
       <r>   -3.9791    1.0000 </r>
       <r>   -3.1603    1.0000 </r>
       <r>   -2.4143    1.0000 </r>
       <r>    0.6680    0.0000 </r>
       <r>    1.0339    0.0000 </r>
       <r>    2.0296    0.0000 </r>
       <r>    2.3995    0.0000 </r>
       <r>    2.7321    0.0000 </r>
       <r>    5.4280    0.0000 </r>
       <r>    5.5863    0.0000 </r>
       <r>    6.4623    0.0000 </r>
       <r>    6.9895    0.0000 </r>
      </set>
      <set comment="kpoint 60">
       <r>  -14.5190    1.0000 </r>
       <r>  -14.2952    1.0000 </r>
       <r>   -8.0893    1.0000 </r>
       <r>   -6.9514    1.0000 </r>
       <r>   -5.9458    1.0000 </r>
       <r>   -4.7791    1.0000 </r>
       <r>   -3.9767    1.0000 </r>
       <r>   -3.2270    1.0000 </r>
       <r>   -2.3916    1.0000 </r>
       <r>    0.6632    0.0000 </r>
       <r>    1.0428    0.0000 </r>
       <r>    2.0502    0.0000 </r>
       <r>    2.3522    0.0000 </r>
       <r>    2.7515    0.0000 </r>
       <r>    5.4641    0.0000 </r>
       <r>    5.6541    0.0000 </r>
       <r>    6.4769    0.0000 </r>
       <r>    7.0068    0.0000 </r>
      </set>
      <set comment="kpoint 61">
       <r>  -14.5144    1.0000 </r>
       <r>  -14.2922    1.0000 </r>
       <r>   -8.0766    1.0000 </r>
       <r>   -6.9526    1.0000 </r>
       <r>   -5.9411    1.0000 </r>
       <r>   -4.7945    1.0000 </r>
       <r>   -3.9743    1.0000 </r>
       <r>   -3.2963    1.0000 </r>
       <r>   -2.3702    1.0000 </r>
       <r>    0.6577    0.0000 </r>
       <r>    1.0525    0.0000 </r>
       <r>    2.0723    0.0000 </r>
       <r>    2.3028    0.0000 </r>
       <r>    2.7727    0.0000 </r>
       <r>    5.5038    0.0000 </r>
       <r>    5.7256    0.0000 </r>
       <r>    6.4944    0.0000 </r>
       <r>    7.0259    0.0000 </r>
      </set>
      <set comment="kpoint 62">
       <r>  -14.5094    1.0000 </r>
       <r>  -14.2890    1.0000 </r>
       <r>   -8.0626    1.0000 </r>
       <r>   -6.9540    1.0000 </r>
       <r>   -5.9360    1.0000 </r>
       <r>   -4.8108    1.0000 </r>
       <r>   -3.9722    1.0000 </r>
       <r>   -3.3681    1.0000 </r>
       <r>   -2.3502    1.0000 </r>
       <r>    0.6512    0.0000 </r>
       <r>    1.0632    0.0000 </r>
       <r>    2.0948    0.0000 </r>
       <r>    2.2528    0.0000 </r>
       <r>    2.7957    0.0000 </r>
       <r>    5.5468    0.0000 </r>
       <r>    5.7998    0.0000 </r>
       <r>    6.5156    0.0000 </r>
       <r>    7.0464    0.0000 </r>
      </set>
      <set comment="kpoint 63">
       <r>  -14.5040    1.0000 </r>
       <r>  -14.2854    1.0000 </r>
       <r>   -8.0473    1.0000 </r>
       <r>   -6.9556    1.0000 </r>
       <r>   -5.9305    1.0000 </r>
       <r>   -4.8278    1.0000 </r>
       <r>   -3.9703    1.0000 </r>
       <r>   -3.4421    1.0000 </r>
       <r>   -2.3313    1.0000 </r>
       <r>    0.6439    0.0000 </r>
       <r>    1.0747    0.0000 </r>
       <r>    2.1131    0.0000 </r>
       <r>    2.2074    0.0000 </r>
       <r>    2.8202    0.0000 </r>
       <r>    5.5930    0.0000 </r>
       <r>    5.8750    0.0000 </r>
       <r>    6.5411    0.0000 </r>
       <r>    7.0680    0.0000 </r>
      </set>
      <set comment="kpoint 64">
       <r>  -14.4981    1.0000 </r>
       <r>  -14.2816    1.0000 </r>
       <r>   -8.0308    1.0000 </r>
       <r>   -6.9575    1.0000 </r>
       <r>   -5.9246    1.0000 </r>
       <r>   -4.8454    1.0000 </r>
       <r>   -3.9688    1.0000 </r>
       <r>   -3.5180    1.0000 </r>
       <r>   -2.3135    1.0000 </r>
       <r>    0.6354    0.0000 </r>
       <r>    1.0870    0.0000 </r>
       <r>    2.1065    0.0000 </r>
       <r>    2.1877    0.0000 </r>
       <r>    2.8461    0.0000 </r>
       <r>    5.6418    0.0000 </r>
       <r>    5.9497    0.0000 </r>
       <r>    6.5723    0.0000 </r>
       <r>    7.0901    0.0000 </r>
      </set>
      <set comment="kpoint 65">
       <r>  -14.4919    1.0000 </r>
[...]
       <r>   -2.8958    1.0000 </r>
       <r>   -2.2490    1.0000 </r>
       <r>    1.0873    0.0000 </r>
       <r>    1.1007    0.0000 </r>
       <r>    1.3029    0.0000 </r>
       <r>    1.3277    0.0000 </r>
       <r>    2.6812    0.0000 </r>
       <r>    3.0320    0.0000 </r>
       <r>    3.5935    0.0000 </r>
       <r>    4.3116    0.0000 </r>
       <r>    4.9809    0.0000 </r>
      </set>
      <set comment="kpoint 146">
       <r>  -16.5143    1.0000 </r>
       <r>  -15.3477    1.0000 </r>
       <r>   -7.9613    1.0000 </r>
       <r>   -4.1523    1.0000 </r>
       <r>   -4.1214    1.0000 </r>
       <r>   -4.0070    1.0000 </r>
       <r>   -2.9710    1.0000 </r>
       <r>   -2.9011    1.0000 </r>
       <r>   -2.2455    1.0000 </r>
       <r>    1.1346    0.0000 </r>
       <r>    1.1857    0.0000 </r>
       <r>    1.2949    0.0000 </r>
       <r>    1.3291    0.0000 </r>
       <r>    2.6261    0.0000 </r>
       <r>    3.0063    0.0000 </r>
       <r>    3.5429    0.0000 </r>
       <r>    4.2564    0.0000 </r>
       <r>    4.9570    0.0000 </r>
      </set>
      <set comment="kpoint 147">
       <r>  -16.5288    1.0000 </r>
       <r>  -15.3557    1.0000 </r>
       <r>   -7.9804    1.0000 </r>
       <r>   -4.1069    1.0000 </r>
       <r>   -4.0909    1.0000 </r>
       <r>   -4.0214    1.0000 </r>
       <r>   -2.9431    1.0000 </r>
       <r>   -2.9058    1.0000 </r>
       <r>   -2.2431    1.0000 </r>
       <r>    1.1747    0.0000 </r>
       <r>    1.2599    0.0000 </r>
       <r>    1.2688    0.0000 </r>
       <r>    1.3497    0.0000 </r>
       <r>    2.5764    0.0000 </r>
       <r>    2.9861    0.0000 </r>
       <r>    3.5013    0.0000 </r>
       <r>    4.2145    0.0000 </r>
       <r>    4.9382    0.0000 </r>
      </set>
      <set comment="kpoint 148">
       <r>  -16.5392    1.0000 </r>
       <r>  -15.3615    1.0000 </r>
       <r>   -7.9941    1.0000 </r>
       <r>   -4.0740    1.0000 </r>
       <r>   -4.0684    1.0000 </r>
       <r>   -4.0318    1.0000 </r>
       <r>   -2.9234    1.0000 </r>
       <r>   -2.9095    1.0000 </r>
       <r>   -2.2416    1.0000 </r>
       <r>    1.2053    0.0000 </r>
       <r>    1.2500    0.0000 </r>
       <r>    1.3186    0.0000 </r>
       <r>    1.3645    0.0000 </r>
       <r>    2.5358    0.0000 </r>
       <r>    2.9715    0.0000 </r>
       <r>    3.4704    0.0000 </r>
       <r>    4.1851    0.0000 </r>
       <r>    4.9247    0.0000 </r>
      </set>
      <set comment="kpoint 149">
       <r>  -16.5454    1.0000 </r>
       <r>  -15.3649    1.0000 </r>
       <r>   -8.0024    1.0000 </r>
       <r>   -4.0546    1.0000 </r>
       <r>   -4.0541    1.0000 </r>
       <r>   -4.0381    1.0000 </r>
       <r>   -2.9119    1.0000 </r>
       <r>   -2.9117    1.0000 </r>
       <r>   -2.2408    1.0000 </r>
       <r>    1.2245    0.0000 </r>
       <r>    1.2385    0.0000 </r>
       <r>    1.3566    0.0000 </r>
       <r>    1.3734    0.0000 </r>
       <r>    2.5088    0.0000 </r>
       <r>    2.9626    0.0000 </r>
       <r>    3.4514    0.0000 </r>
       <r>    4.1678    0.0000 </r>
       <r>    4.9166    0.0000 </r>
      </set>
      <set comment="kpoint 150">
       <r>  -16.5475    1.0000 </r>
       <r>  -15.3661    1.0000 </r>
       <r>   -8.0051    1.0000 </r>
       <r>   -4.0500    1.0000 </r>
       <r>   -4.0474    1.0000 </r>
       <r>   -4.0402    1.0000 </r>
       <r>   -2.9127    1.0000 </r>
       <r>   -2.9078    1.0000 </r>
       <r>   -2.2405    1.0000 </r>
       <r>    1.2311    0.0000 </r>
       <r>    1.2347    0.0000 </r>
       <r>    1.3699    0.0000 </r>
       <r>    1.3764    0.0000 </r>
       <r>    2.4993    0.0000 </r>
       <r>    2.9597    0.0000 </r>
       <r>    3.4450    0.0000 </r>
       <r>    4.1621    0.0000 </r>
       <r>    4.9138    0.0000 </r>
      </set>
     </set>
    </set>
   </array>
  </eigenvalues>
  <separator name="orbital magnetization" >
   <v name="MAGDIPOLOUT">      0.00000000      0.00000000      0.00000000</v>
  </separator>
  <dos>
   <i name="efermi">     -1.67647641 </i>
   <total>
    <array>
     <dimension dim="1">gridpoints</dimension>
     <dimension dim="2">spin</dimension>
     <field>energy</field>
     <field>total</field>
     <field>integrated</field>
     <set>
      <set comment="spin 1">
       <r>   -17.7869     0.0000     0.0000 </r>
       <r>   -17.6960     0.0000     0.0000 </r>
       <r>   -17.6051     0.0000     0.0000 </r>
       <r>   -17.5142     0.0000     0.0000 </r>
       <r>   -17.4234     0.0000     0.0000 </r>
       <r>   -17.3325     0.0000     0.0000 </r>
       <r>   -17.2416     0.0000     0.0000 </r>
       <r>   -17.1507     0.0000     0.0000 </r>
       <r>   -17.0598     0.0000     0.0000 </r>
       <r>   -16.9689     0.0000     0.0000 </r>
       <r>   -16.8780     0.0000     0.0000 </r>
       <r>   -16.7871     0.0000     0.0000 </r>
       <r>   -16.6962     0.0000     0.0000 </r>
       <r>   -16.6053     0.0000     0.0000 </r>
       <r>   -16.5144     1.4003     0.1273 </r>
       <r>   -16.4235     0.9631     0.2343 </r>
       <r>   -16.3327     0.6091     0.3087 </r>
       <r>   -16.2418     0.5659     0.3714 </r>
       <r>   -16.1509     0.5389     0.4223 </r>
       <r>   -16.0600     0.4111     0.4640 </r>
       <r>   -15.9691     0.4474     0.5074 </r>
       <r>   -15.8782     0.2934     0.5467 </r>
       <r>   -15.7873     0.4087     0.5838 </r>
       <r>   -15.6964     0.2908     0.6264 </r>
       <r>   -15.6055     0.3536     0.6588 </r>
       <r>   -15.5146     0.2934     0.6933 </r>
       <r>   -15.4237     0.3143     0.7219 </r>
       <r>   -15.3329     2.2338     0.9370 </r>
       <r>   -15.2420     1.5560     1.1148 </r>
       <r>   -15.1511     1.4259     1.2503 </r>
       <r>   -15.0602     1.0467     1.3618 </r>
       <r>   -14.9693     1.1356     1.4767 </r>
       <r>   -14.8784     0.9942     1.5837 </r>
       <r>   -14.7875     0.9875     1.6899 </r>
       <r>   -14.6966     1.0257     1.7999 </r>
       <r>   -14.6057     1.2720     1.9292 </r>
       <r>   -14.5148     3.1857     2.2229 </r>
       <r>   -14.4239     2.4145     2.4996 </r>
       <r>   -14.3331     2.5643     2.7670 </r>
       <r>   -14.2422     6.9465     3.4326 </r>
       <r>   -14.1513     2.6623     3.7621 </r>
       <r>   -14.0604     2.1863     4.0000 </r>
       <r>   -13.9695     0.0000     4.0000 </r>
       <r>   -13.8786     0.0000     4.0000 </r>
       <r>   -13.7877     0.0000     4.0000 </r>
       <r>   -13.6968     0.0000     4.0000 </r>
       <r>   -13.6059     0.0000     4.0000 </r>
       <r>   -13.5150     0.0000     4.0000 </r>
       <r>   -13.4241     0.0000     4.0000 </r>
       <r>   -13.3333     0.0000     4.0000 </r>
       <r>   -13.2424     0.0000     4.0000 </r>
       <r>   -13.1515     0.0000     4.0000 </r>
       <r>   -13.0606     0.0000     4.0000 </r>
       <r>   -12.9697     0.0000     4.0000 </r>
       <r>   -12.8788     0.0000     4.0000 </r>
       <r>   -12.7879     0.0000     4.0000 </r>
       <r>   -12.6970     0.0000     4.0000 </r>
       <r>   -12.6061     0.0000     4.0000 </r>
       <r>   -12.5152     0.0000     4.0000 </r>
       <r>   -12.4243     0.0000     4.0000 </r>
       <r>   -12.3335     0.0000     4.0000 </r>
       <r>   -12.2426     0.0000     4.0000 </r>
       <r>   -12.1517     0.0000     4.0000 </r>
       <r>   -12.0608     0.0000     4.0000 </r>
       <r>   -11.9699     0.0000     4.0000 </r>
       <r>   -11.8790     0.0000     4.0000 </r>
       <r>   -11.7881     0.0000     4.0000 </r>
       <r>   -11.6972     0.0000     4.0000 </r>
       <r>   -11.6063     0.0000     4.0000 </r>
       <r>   -11.5154     0.0000     4.0000 </r>
       <r>   -11.4245     0.0000     4.0000 </r>
       <r>   -11.3337     0.0000     4.0000 </r>
       <r>   -11.2428     0.0000     4.0000 </r>
       <r>   -11.1519     0.0000     4.0000 </r>
       <r>   -11.0610     0.0000     4.0000 </r>
       <r>   -10.9701     0.0000     4.0000 </r>
       <r>   -10.8792     0.0000     4.0000 </r>
       <r>   -10.7883     0.0000     4.0000 </r>
       <r>   -10.6974     0.0000     4.0000 </r>
       <r>   -10.6065     0.0000     4.0000 </r>
       <r>   -10.5156     0.0000     4.0000 </r>
       <r>   -10.4247     0.0000     4.0000 </r>
       <r>   -10.3338     0.0000     4.0000 </r>
       <r>   -10.2430     0.0000     4.0000 </r>
       <r>   -10.1521     0.0000     4.0000 </r>
       <r>   -10.0612     0.0000     4.0000 </r>
       <r>    -9.9703     0.0000     4.0000 </r>
       <r>    -9.8794     0.0000     4.0000 </r>
       <r>    -9.7885     0.0000     4.0000 </r>
       <r>    -9.6976     0.0000     4.0000 </r>
       <r>    -9.6067     0.0000     4.0000 </r>
       <r>    -9.5158     0.0000     4.0000 </r>
       <r>    -9.4249     0.0000     4.0000 </r>
       <r>    -9.3340     0.0000     4.0000 </r>
       <r>    -9.2432     0.0000     4.0000 </r>
       <r>    -9.1523     0.0000     4.0000 </r>
       <r>    -9.0614     0.0000     4.0000 </r>
       <r>    -8.9705     0.0000     4.0000 </r>
       <r>    -8.8796     0.0000     4.0000 </r>
       <r>    -8.7887     0.0000     4.0000 </r>
       <r>    -8.6978     0.0000     4.0000 </r>
       <r>    -8.6069     0.0000     4.0000 </r>
       <r>    -8.5160     0.0000     4.0000 </r>
       <r>    -8.4251     0.0000     4.0000 </r>
       <r>    -8.3342     0.0000     4.0000 </r>
       <r>    -8.2434     0.0000     4.0000 </r>
       <r>    -8.1525     0.0615     4.0056 </r>
       <r>    -8.0616     1.9709     4.2206 </r>
       <r>    -7.9707     2.2358     4.4302 </r>
       <r>    -7.8798     1.5639     4.5957 </r>
       <r>    -7.7889     1.0815     4.7250 </r>
       <r>    -7.6980     1.0245     4.8265 </r>
       <r>    -7.6071     1.1362     4.9304 </r>
       <r>    -7.5162     0.8229     5.0085 </r>
       <r>    -7.4253     0.7601     5.1092 </r>
       <r>    -7.3344     0.8078     5.1934 </r>
       <r>    -7.2436     1.7496     5.3724 </r>
       <r>    -7.1527     2.7558     5.6247 </r>
       <r>    -7.0618     3.7414     6.0085 </r>
       <r>    -6.9709     3.4449     6.3813 </r>
       <r>    -6.8800     3.7912     6.7866 </r>
       <r>    -6.7891     0.7841     6.8714 </r>
       <r>    -6.6982     0.8848     6.9605 </r>
       <r>    -6.6073     0.4342     7.0000 </r>
       <r>    -6.5164     0.2936     7.0267 </r>
       <r>    -6.4255     0.3476     7.0583 </r>
       <r>    -6.3346     0.2875     7.0928 </r>
       <r>    -6.2438     1.2547     7.2074 </r>
       <r>    -6.1529     1.6172     7.3737 </r>
       <r>    -6.0620     1.9418     7.5769 </r>
       <r>    -5.9711     2.3681     7.8287 </r>
       <r>    -5.8802     3.6784     8.2564 </r>
       <r>    -5.7893     3.4748     8.6093 </r>
       <r>    -5.6984     1.1144     8.7147 </r>
       <r>    -5.6075     0.4374     8.7598 </r>
       <r>    -5.5166     0.5194     8.8072 </r>
       <r>    -5.4257     2.8039     9.0696 </r>
       <r>    -5.3348     0.9433     9.1796 </r>
       <r>    -5.2440     1.2058     9.3096 </r>
       <r>    -5.1531     2.1431     9.5681 </r>
       <r>    -5.0622     5.2058    10.0603 </r>
       <r>    -4.9713     1.9065    10.2537 </r>
       <r>    -4.8804     1.5925    10.4117 </r>
       <r>    -4.7895     1.4515    10.5720 </r>
       <r>    -4.6986     2.5031    10.8280 </r>
       <r>    -4.6077     1.8009    11.0180 </r>
       <r>    -4.5168     1.4174    11.1693 </r>
       <r>    -4.4259     1.3826    11.3130 </r>
       <r>    -4.3350     1.3676    11.4710 </r>
       <r>    -4.2441     1.2930    11.5975 </r>
       <r>    -4.1533     2.9379    11.8809 </r>
       <r>    -4.0624     3.7897    12.2782 </r>
       <r>    -3.9715     8.0061    13.0903 </r>
       <r>    -3.8806     2.3796    13.4568 </r>
       <r>    -3.7897     1.9830    13.6607 </r>
       <r>    -3.6988     1.9743    13.8601 </r>
       <r>    -3.6079     1.7427    14.0384 </r>
       <r>    -3.5170     2.0399    14.2401 </r>
       <r>    -3.4261     1.0116    14.3586 </r>
       <r>    -3.3352     0.9974    14.4778 </r>
       <r>    -3.2443     1.2819    14.6102 </r>
       <r>    -3.1535     1.4494    14.7585 </r>
       <r>    -3.0626     1.3982    14.9004 </r>
       <r>    -2.9717     3.1004    15.2428 </r>
       <r>    -2.8808     6.4972    15.8845 </r>
       <r>    -2.7899     1.8363    16.1403 </r>
       <r>    -2.6990     0.6269    16.2170 </r>
       <r>    -2.6081     1.1864    16.3478 </r>
       <r>    -2.5172     2.1218    16.5934 </r>
       <r>    -2.4263     1.5411    16.7667 </r>
       <r>    -2.3354     1.8213    16.9528 </r>
       <r>    -2.2445     3.7287    17.3128 </r>
       <r>    -2.1537     1.0540    17.5225 </r>
       <r>    -2.0628     0.9505    17.6198 </r>
       <r>    -1.9719     0.7276    17.7061 </r>
       <r>    -1.8810     0.8475    17.7973 </r>
       <r>    -1.7901     1.3476    17.9230 </r>
       <r>    -1.6992     0.4317    18.0000 </r>
       <r>    -1.6083     0.0000    18.0000 </r>
       <r>    -1.5174     0.0000    18.0000 </r>
       <r>    -1.4265     0.0000    18.0000 </r>
       <r>    -1.3356     0.0000    18.0000 </r>
       <r>    -1.2447     0.0000    18.0000 </r>
       <r>    -1.1539     0.0000    18.0000 </r>
       <r>    -1.0630     0.0000    18.0000 </r>
       <r>    -0.9721     0.0000    18.0000 </r>
       <r>    -0.8812     0.0000    18.0000 </r>
       <r>    -0.7903     0.0000    18.0000 </r>
       <r>    -0.6994     0.0000    18.0000 </r>
       <r>    -0.6085     0.0000    18.0000 </r>
       <r>    -0.5176     0.0000    18.0000 </r>
       <r>    -0.4267     0.0000    18.0000 </r>
       <r>    -0.3358     0.0000    18.0000 </r>
       <r>    -0.2449     0.0000    18.0000 </r>
       <r>    -0.1541     0.1863    18.0169 </r>
       <r>    -0.0632     1.8691    18.2105 </r>
       <r>     0.0277     1.3225    18.3607 </r>
       <r>     0.1186     1.9374    18.5496 </r>
       <r>     0.2095     1.8237    18.7393 </r>
       <r>     0.3004     1.8294    18.9398 </r>
       <r>     0.3913     0.9448    19.0592 </r>
       <r>     0.4822     1.0553    19.1626 </r>
       <r>     0.5731     2.5694    19.4069 </r>
       <r>     0.6640     4.0771    19.8243 </r>
       <r>     0.7549     4.0797    20.3070 </r>
       <r>     0.8458     3.3535    20.6382 </r>
       <r>     0.9366     2.8967    20.9040 </r>
       <r>     1.0275     6.0952    21.5018 </r>
       <r>     1.1184     4.6717    22.0122 </r>
       <r>     1.2093     3.2468    22.3490 </r>
       <r>     1.3002     4.4126    22.7881 </r>
       <r>     1.3911     4.2679    23.2151 </r>
       <r>     1.4820     1.8163    23.3927 </r>
       <r>     1.5729     1.4212    23.5562 </r>
       <r>     1.6638     1.3882    23.7395 </r>
       <r>     1.7547     2.3896    23.9781 </r>
       <r>     1.8456     1.0857    24.0858 </r>
       <r>     1.9364     1.1446    24.2107 </r>
       <r>     2.0273     2.0166    24.4252 </r>
       <r>     2.1182     1.1837    24.5609 </r>
       <r>     2.2091     0.8011    24.6461 </r>
       <r>     2.3000     1.0161    24.7590 </r>
       <r>     2.3909     1.0606    24.8832 </r>
       <r>     2.4818     1.3536    25.0300 </r>
       <r>     2.5727     2.8817    25.3288 </r>
       <r>     2.6636     3.2531    25.6694 </r>
       <r>     2.7545     2.1892    25.9065 </r>
       <r>     2.8454     1.6802    26.0731 </r>
       <r>     2.9362     1.4520    26.2390 </r>
       <r>     3.0271     3.1383    26.5392 </r>
       <r>     3.1180     2.1383    26.7811 </r>
       <r>     3.2089     2.6905    27.0583 </r>
       <r>     3.2998     1.3191    27.2533 </r>
       <r>     3.3907     0.9096    27.3627 </r>
       <r>     3.4816     2.0372    27.5586 </r>
       <r>     3.5725     1.6992    27.7422 </r>
       <r>     3.6634     1.4751    27.8941 </r>
       <r>     3.7543     1.3040    28.0390 </r>
       <r>     3.8452     1.3385    28.1883 </r>
       <r>     3.9360     1.9937    28.3945 </r>
       <r>     4.0269     1.6800    28.6077 </r>
       <r>     4.1178     1.3259    28.7338 </r>
       <r>     4.2087     2.2963    28.9689 </r>
       <r>     4.2996     1.1976    29.1089 </r>
       <r>     4.3905     1.4126    29.2490 </r>
       <r>     4.4814     1.0386    29.3477 </r>
       <r>     4.5723     1.0684    29.4571 </r>
       <r>     4.6632     0.9167    29.5500 </r>
       <r>     4.7541     1.9045    29.7465 </r>
       <r>     4.8450     2.4749    29.9863 </r>
       <r>     4.9358     3.2103    30.2918 </r>
       <r>     5.0267     1.7357    30.4911 </r>
       <r>     5.1176     2.0489    30.6941 </r>
       <r>     5.2085     2.3124    30.9303 </r>
       <r>     5.2994     3.9457    31.3187 </r>
       <r>     5.3903     2.0981    31.5509 </r>
       <r>     5.4812     2.5166    31.8155 </r>
       <r>     5.5721     1.9546    32.0444 </r>
       <r>     5.6630     2.0258    32.2384 </r>
       <r>     5.7539     1.4856    32.3754 </r>
       <r>     5.8448     1.8135    32.5653 </r>
       <r>     5.9356     1.2317    32.6994 </r>
       <r>     6.0265     2.0598    32.9211 </r>
       <r>     6.1174     1.9322    33.1356 </r>
       <r>     6.2083     1.3374    33.2683 </r>
       <r>     6.2992     1.3372    33.4017 </r>
       <r>     6.3901     1.2755    33.5432 </r>
       <r>     6.4810     2.5996    33.8100 </r>
       <r>     6.5719     1.5543    33.9683 </r>
       <r>     6.6628     1.2104    34.0967 </r>
       <r>     6.7537     1.4639    34.2399 </r>
       <r>     6.8446     2.4190    34.5000 </r>
       <r>     6.9355     2.7286    34.7974 </r>
       <r>     7.0263     1.4072    34.9818 </r>
       <r>     7.1172     1.1374    35.1036 </r>
       <r>     7.2081     0.8881    35.2012 </r>
       <r>     7.2990     0.4122    35.2508 </r>
       <r>     7.3899     0.5169    35.3004 </r>
       <r>     7.4808     0.2939    35.3335 </r>
       <r>     7.5717     0.7943    35.4058 </r>
       <r>     7.6626     0.3121    35.4417 </r>
       <r>     7.7535     0.7037    35.5174 </r>
       <r>     7.8444     1.0387    35.6145 </r>
       <r>     7.9353     0.5100    35.6732 </r>
       <r>     8.0261     0.6647    35.7409 </r>
       <r>     8.1170     0.6704    35.8082 </r>
       <r>     8.2079     0.9211    35.8971 </r>
       <r>     8.2988     0.8791    36.0000 </r>
       <r>     8.3897     0.0000    36.0000 </r>
       <r>     8.4806     0.0000    36.0000 </r>
       <r>     8.5715     0.0000    36.0000 </r>
       <r>     8.6624     0.0000    36.0000 </r>
       <r>     8.7533     0.0000    36.0000 </r>
       <r>     8.8442     0.0000    36.0000 </r>
       <r>     8.9351     0.0000    36.0000 </r>
       <r>     9.0259     0.0000    36.0000 </r>
       <r>     9.1168     0.0000    36.0000 </r>
       <r>     9.2077     0.0000    36.0000 </r>
       <r>     9.2986     0.0000    36.0000 </r>
       <r>     9.3895     0.0000    36.0000 </r>
       <r>     9.4804     0.0000    36.0000 </r>
      </set>
     </set>
    </array>
   </total>
  </dos>
 </calculation>
 <structure name="finalpos" >
  <crystal>
   <varray name="basis" >
    <v>       3.28200000       0.00000000       0.00000000 </v>
    <v>       1.64100000       2.84048000       0.00000000 </v>
    <v>       0.00000000       0.00000000      20.00000000 </v>
   </varray>
   <i name="volume">    186.44910720 </i>
   <varray name="rec_basis" >
    <v>       0.30469226      -0.17602659       0.00000000 </v>
    <v>       0.00000000       0.35205317       0.00000000 </v>
    <v>       0.00000000       0.00000000       0.05000000 </v>
   </varray>
  </crystal>
  <varray name="positions" >
   <v>       0.99990000       0.00020000       0.00000000 </v>
   <v>       0.33327700       0.33344600       0.91545900 </v>
   <v>       0.33327700       0.33344600       0.08454100 </v>
  </varray>
 </structure>
</modeling>
