  27  27   0   0
  0.6214970E+02  0.9846000E-09  0.9841284E-09  0.2000000E-08  0.5000000E-15
  1.000000000000000E-004
  CAR 
 W-1, se-2                               
      2.35218218    -17.44757861  301     -1.72326858      1.00000000
    -17.448  0.0000E+00  0.0000E+00
    -17.382  0.0000E+00  0.0000E+00
    -17.316  0.0000E+00  0.0000E+00
    -17.250  0.0000E+00  0.0000E+00
    -17.184  0.0000E+00  0.0000E+00
    -17.118  0.0000E+00  0.0000E+00
    -17.052  0.0000E+00  0.0000E+00
    -16.986  0.0000E+00  0.0000E+00
    -16.920  0.0000E+00  0.0000E+00
    -16.854  0.0000E+00  0.0000E+00
    -16.788  0.0000E+00  0.0000E+00
    -16.722  0.0000E+00  0.0000E+00
    -16.656  0.0000E+00  0.0000E+00
    -16.590  0.1178E-09  0.7776E-11
    -16.524  0.1582E+01  0.1044E+00
    -16.458  0.4366E+01  0.3926E+00
    -16.392  0.4587E+01  0.6956E+00
    -16.326  0.4199E+01  0.9731E+00
    -16.260  0.4915E+01  0.1298E+01
    -16.194  0.4725E+01  0.1610E+01
    -16.128  0.4741E+01  0.1923E+01
    -16.062  0.4905E+01  0.2247E+01
    -15.996  0.4644E+01  0.2554E+01
    -15.930  0.5258E+01  0.2901E+01
    -15.864  0.4486E+01  0.3198E+01
    -15.798  0.4803E+01  0.3515E+01
    -15.732  0.5316E+01  0.3867E+01
    -15.666  0.5942E+01  0.4259E+01
    -15.600  0.5804E+01  0.4642E+01
    -15.534  0.4934E+01  0.4968E+01
    -15.468  0.5687E+01  0.5343E+01
    -15.402  0.6573E+01  0.5777E+01
    -15.336  0.9865E+01  0.6429E+01
    -15.270  0.1373E+02  0.7336E+01
    -15.204  0.1505E+02  0.8330E+01
    -15.138  0.1584E+02  0.9375E+01
    -15.072  0.1621E+02  0.1045E+02
    -15.006  0.1576E+02  0.1149E+02
    -14.940  0.1749E+02  0.1264E+02
    -14.874  0.1879E+02  0.1388E+02
    -14.808  0.2031E+02  0.1522E+02
    -14.742  0.2119E+02  0.1662E+02
    -14.676  0.2227E+02  0.1809E+02
    -14.610  0.2672E+02  0.1986E+02
    -14.544  0.3221E+02  0.2199E+02
    -14.478  0.3839E+02  0.2452E+02
    -14.412  0.3121E+02  0.2658E+02
    -14.346  0.3704E+02  0.2903E+02
    -14.280  0.4724E+02  0.3215E+02
    -14.214  0.3104E+02  0.3420E+02
    -14.148  0.1986E+02  0.3552E+02
    -14.082  0.7316E+01  0.3600E+02
    -14.016  0.0000E+00  0.3600E+02
    -13.950  0.0000E+00  0.3600E+02
    -13.884  0.0000E+00  0.3600E+02
    -13.818  0.0000E+00  0.3600E+02
    -13.752  0.0000E+00  0.3600E+02
    -13.686  0.0000E+00  0.3600E+02
    -13.620  0.0000E+00  0.3600E+02
    -13.554  0.0000E+00  0.3600E+02
    -13.488  0.0000E+00  0.3600E+02
    -13.422  0.0000E+00  0.3600E+02
    -13.356  0.0000E+00  0.3600E+02
    -13.290  0.0000E+00  0.3600E+02
    -13.224  0.0000E+00  0.3600E+02
    -13.158  0.0000E+00  0.3600E+02
    -13.092  0.0000E+00  0.3600E+02
    -13.026  0.0000E+00  0.3600E+02
    -12.960  0.0000E+00  0.3600E+02
    -12.894  0.0000E+00  0.3600E+02
    -12.828  0.0000E+00  0.3600E+02
    -12.762  0.0000E+00  0.3600E+02
    -12.696  0.0000E+00  0.3600E+02
    -12.630  0.0000E+00  0.3600E+02
    -12.564  0.0000E+00  0.3600E+02
    -12.498  0.0000E+00  0.3600E+02
    -12.432  0.0000E+00  0.3600E+02
    -12.366  0.0000E+00  0.3600E+02
    -12.300  0.0000E+00  0.3600E+02
    -12.234  0.0000E+00  0.3600E+02
    -12.168  0.0000E+00  0.3600E+02
    -12.102  0.0000E+00  0.3600E+02
    -12.036  0.0000E+00  0.3600E+02
    -11.970  0.0000E+00  0.3600E+02
    -11.904  0.0000E+00  0.3600E+02
    -11.838  0.0000E+00  0.3600E+02
    -11.772  0.0000E+00  0.3600E+02
    -11.706  0.0000E+00  0.3600E+02
    -11.640  0.0000E+00  0.3600E+02
    -11.574  0.0000E+00  0.3600E+02
    -11.508  0.0000E+00  0.3600E+02
    -11.442  0.0000E+00  0.3600E+02
    -11.376  0.0000E+00  0.3600E+02
    -11.310  0.0000E+00  0.3600E+02
    -11.244  0.0000E+00  0.3600E+02
    -11.178  0.0000E+00  0.3600E+02
    -11.112  0.0000E+00  0.3600E+02
    -11.046  0.0000E+00  0.3600E+02
    -10.980  0.0000E+00  0.3600E+02
    -10.914  0.0000E+00  0.3600E+02
    -10.848  0.0000E+00  0.3600E+02
    -10.782  0.0000E+00  0.3600E+02
    -10.716  0.0000E+00  0.3600E+02
    -10.650  0.0000E+00  0.3600E+02
    -10.584  0.0000E+00  0.3600E+02
    -10.518  0.0000E+00  0.3600E+02
    -10.452  0.0000E+00  0.3600E+02
    -10.386  0.0000E+00  0.3600E+02
    -10.320  0.0000E+00  0.3600E+02
    -10.254  0.0000E+00  0.3600E+02
    -10.188  0.0000E+00  0.3600E+02
    -10.122  0.0000E+00  0.3600E+02
    -10.056  0.0000E+00  0.3600E+02
     -9.990  0.0000E+00  0.3600E+02
     -9.924  0.0000E+00  0.3600E+02
     -9.858  0.0000E+00  0.3600E+02
     -9.792  0.0000E+00  0.3600E+02
     -9.726  0.0000E+00  0.3600E+02
     -9.660  0.0000E+00  0.3600E+02
     -9.594  0.0000E+00  0.3600E+02
     -9.528  0.0000E+00  0.3600E+02
     -9.462  0.0000E+00  0.3600E+02
     -9.396  0.0000E+00  0.3600E+02
     -9.330  0.0000E+00  0.3600E+02
     -9.264  0.0000E+00  0.3600E+02
     -9.198  0.0000E+00  0.3600E+02
     -9.132  0.0000E+00  0.3600E+02
     -9.066  0.0000E+00  0.3600E+02
     -9.000  0.0000E+00  0.3600E+02
     -8.934  0.0000E+00  0.3600E+02
     -8.868  0.0000E+00  0.3600E+02
     -8.802  0.0000E+00  0.3600E+02
     -8.736  0.0000E+00  0.3600E+02
     -8.670  0.0000E+00  0.3600E+02
     -8.604  0.0000E+00  0.3600E+02
     -8.538  0.0000E+00  0.3600E+02
     -8.472  0.0000E+00  0.3600E+02
     -8.406  0.0000E+00  0.3600E+02
     -8.340  0.0000E+00  0.3600E+02
     -8.274  0.0000E+00  0.3600E+02
     -8.208  0.0000E+00  0.3600E+02
     -8.142  0.3951E+00  0.3603E+02
     -8.076  0.6604E+01  0.3646E+02
     -8.010  0.7789E+01  0.3698E+02
     -7.944  0.1051E+02  0.3767E+02
     -7.878  0.1091E+02  0.3839E+02
     -7.812  0.1126E+02  0.3914E+02
     -7.746  0.1040E+02  0.3982E+02
     -7.680  0.1265E+02  0.4066E+02
     -7.614  0.1287E+02  0.4151E+02
     -7.548  0.1366E+02  0.4241E+02
     -7.482  0.1272E+02  0.4325E+02
     -7.416  0.1280E+02  0.4410E+02
     -7.350  0.1730E+02  0.4524E+02
     -7.284  0.2209E+02  0.4670E+02
     -7.218  0.1862E+02  0.4793E+02
     -7.152  0.1602E+02  0.4899E+02
     -7.086  0.2281E+02  0.5049E+02
     -7.020  0.2587E+02  0.5220E+02
     -6.954  0.3118E+02  0.5426E+02
     -6.888  0.3933E+02  0.5686E+02
     -6.822  0.2403E+02  0.5845E+02
     -6.756  0.1953E+02  0.5974E+02
     -6.690  0.1148E+02  0.6050E+02
     -6.624  0.8967E+01  0.6109E+02
     -6.558  0.9131E+01  0.6169E+02
     -6.492  0.5855E+01  0.6208E+02
     -6.426  0.6475E+01  0.6251E+02
     -6.360  0.6581E+01  0.6294E+02
     -6.294  0.7669E+01  0.6345E+02
     -6.228  0.3142E+02  0.6552E+02
     -6.162  0.2336E+02  0.6707E+02
     -6.096  0.2347E+02  0.6862E+02
     -6.030  0.2540E+02  0.7029E+02
     -5.964  0.3947E+02  0.7290E+02
     -5.898  0.4214E+02  0.7568E+02
     -5.832  0.3714E+02  0.7814E+02
     -5.766  0.3474E+02  0.8043E+02
     -5.700  0.1005E+02  0.8110E+02
     -5.634  0.7437E+01  0.8159E+02
     -5.568  0.6145E+01  0.8199E+02
     -5.502  0.7596E+01  0.8250E+02
     -5.436  0.1287E+02  0.8335E+02
     -5.370  0.1125E+02  0.8409E+02
     -5.304  0.9104E+01  0.8469E+02
     -5.238  0.1398E+02  0.8561E+02
     -5.172  0.3232E+02  0.8775E+02
     -5.106  0.4438E+02  0.9068E+02
     -5.040  0.2826E+02  0.9255E+02
     -4.974  0.2229E+02  0.9402E+02
     -4.908  0.2413E+02  0.9561E+02
     -4.842  0.2090E+02  0.9699E+02
     -4.776  0.2038E+02  0.9834E+02
     -4.710  0.2781E+02  0.1002E+03
     -4.644  0.2343E+02  0.1017E+03
     -4.578  0.1809E+02  0.1029E+03
     -4.512  0.1884E+02  0.1042E+03
     -4.446  0.1489E+02  0.1051E+03
     -4.380  0.1199E+02  0.1059E+03
     -4.314  0.1622E+02  0.1070E+03
     -4.248  0.1298E+02  0.1079E+03
     -4.182  0.1074E+02  0.1086E+03
     -4.116  0.2244E+02  0.1101E+03
     -4.050  0.1766E+02  0.1112E+03
     -3.984  0.3033E+02  0.1132E+03
     -3.918  0.5327E+02  0.1167E+03
     -3.852  0.3320E+02  0.1189E+03
     -3.786  0.3645E+02  0.1214E+03
     -3.720  0.2842E+02  0.1232E+03
     -3.654  0.2810E+02  0.1251E+03
     -3.588  0.3238E+02  0.1272E+03
     -3.522  0.3230E+02  0.1294E+03
     -3.456  0.2788E+02  0.1312E+03
     -3.390  0.2367E+02  0.1328E+03
     -3.324  0.2190E+02  0.1342E+03
     -3.258  0.2406E+02  0.1358E+03
     -3.192  0.1653E+02  0.1369E+03
     -3.126  0.1983E+02  0.1382E+03
     -3.060  0.2138E+02  0.1396E+03
     -2.994  0.1934E+02  0.1409E+03
     -2.928  0.1934E+02  0.1422E+03
     -2.862  0.3022E+02  0.1442E+03
     -2.796  0.8932E+01  0.1448E+03
     -2.730  0.1064E+02  0.1455E+03
     -2.664  0.1555E+02  0.1465E+03
     -2.598  0.2613E+02  0.1482E+03
     -2.532  0.3456E+02  0.1505E+03
     -2.466  0.2966E+02  0.1525E+03
     -2.400  0.2794E+02  0.1543E+03
     -2.334  0.2696E+02  0.1561E+03
     -2.268  0.2482E+02  0.1577E+03
     -2.202  0.2307E+02  0.1592E+03
     -2.136  0.1134E+02  0.1600E+03
     -2.070  0.8761E+01  0.1606E+03
     -2.004  0.6714E+01  0.1610E+03
     -1.938  0.5261E+01  0.1614E+03
     -1.872  0.4387E+01  0.1617E+03
     -1.806  0.3738E+01  0.1619E+03
     -1.740  0.1525E+01  0.1620E+03
     -1.674  0.0000E+00  0.1620E+03
     -1.608  0.0000E+00  0.1620E+03
     -1.542  0.0000E+00  0.1620E+03
     -1.476  0.0000E+00  0.1620E+03
     -1.410  0.0000E+00  0.1620E+03
     -1.344  0.0000E+00  0.1620E+03
     -1.278  0.0000E+00  0.1620E+03
     -1.212  0.0000E+00  0.1620E+03
     -1.146  0.0000E+00  0.1620E+03
     -1.080  0.0000E+00  0.1620E+03
     -1.014  0.0000E+00  0.1620E+03
     -0.948  0.0000E+00  0.1620E+03
     -0.882  0.0000E+00  0.1620E+03
     -0.816  0.0000E+00  0.1620E+03
     -0.750  0.0000E+00  0.1620E+03
     -0.684  0.0000E+00  0.1620E+03
     -0.618  0.0000E+00  0.1620E+03
     -0.552  0.0000E+00  0.1620E+03
     -0.486  0.0000E+00  0.1620E+03
     -0.420  0.0000E+00  0.1620E+03
     -0.354  0.0000E+00  0.1620E+03
     -0.288  0.0000E+00  0.1620E+03
     -0.222  0.0000E+00  0.1620E+03
     -0.156  0.5411E+00  0.1620E+03
     -0.090  0.1280E+02  0.1629E+03
     -0.024  0.1770E+02  0.1640E+03
      0.042  0.2079E+02  0.1654E+03
      0.108  0.3014E+02  0.1674E+03
      0.174  0.2618E+02  0.1691E+03
      0.240  0.2304E+02  0.1707E+03
      0.306  0.2657E+02  0.1724E+03
      0.372  0.2156E+02  0.1738E+03
      0.438  0.1949E+02  0.1751E+03
      0.504  0.1557E+02  0.1762E+03
      0.570  0.2182E+02  0.1776E+03
      0.636  0.3806E+02  0.1801E+03
      0.702  0.6239E+02  0.1842E+03
      0.768  0.4611E+02  0.1873E+03
      0.834  0.4310E+02  0.1901E+03
      0.900  0.3745E+02  0.1926E+03
      0.966  0.3929E+02  0.1952E+03
      1.032  0.4739E+02  0.1983E+03
      1.098  0.3631E+02  0.2007E+03
      1.164  0.2575E+02  0.2024E+03
      1.230  0.1289E+02  0.2033E+03
      1.296  0.7147E+01  0.2038E+03
      1.362  0.2577E+01  0.2039E+03
      1.428  0.9857E+00  0.2040E+03
      1.494  0.6869E-01  0.2040E+03
      1.560  0.0000E+00  0.2040E+03
      1.626  0.0000E+00  0.2040E+03
      1.692  0.0000E+00  0.2040E+03
      1.758  0.0000E+00  0.2040E+03
      1.824  0.0000E+00  0.2040E+03
      1.890  0.0000E+00  0.2040E+03
      1.956  0.0000E+00  0.2040E+03
      2.022  0.0000E+00  0.2040E+03
      2.088  0.0000E+00  0.2040E+03
      2.154  0.0000E+00  0.2040E+03
      2.220  0.0000E+00  0.2040E+03
      2.286  0.0000E+00  0.2040E+03
      2.352  0.0000E+00  0.2040E+03
