       N       E                     dE             d eps       ncg     rms          rms(c)
DAV:   1     0.141501997882E+04    0.14150E+04   -0.68446E+04 45084   0.167E+03
DAV:   2     0.197077305256E+02   -0.13953E+04   -0.13485E+04 74436   0.255E+02
DAV:   3    -0.195064262901E+03   -0.21477E+03   -0.21314E+03 53460   0.105E+02
DAV:   4    -0.203871114015E+03   -0.88069E+01   -0.87562E+01 60444   0.242E+01
DAV:   5    -0.204168428987E+03   -0.29731E+00   -0.29683E+00 69516   0.379E+00    0.161E+01
DAV:   6    -0.196819881004E+03    0.73485E+01   -0.41409E+01 65658   0.148E+01    0.606E+00
DAV:   7    -0.195220737603E+03    0.15991E+01   -0.82564E+00 62958   0.781E+00    0.383E+00
DAV:   8    -0.194746869862E+03    0.47387E+00   -0.15682E+00 53844   0.328E+00    0.799E-01
DAV:   9    -0.194730828689E+03    0.16041E-01   -0.26223E-01 65838   0.129E+00    0.480E-01
DAV:  10    -0.194702514558E+03    0.28314E-01   -0.10240E-01 64788   0.771E-01    0.259E-01
DAV:  11    -0.194696818523E+03    0.56960E-02   -0.71793E-03 65964   0.279E-01    0.186E-01
DAV:  12    -0.194692441199E+03    0.43773E-02   -0.83279E-03 66444   0.220E-01    0.976E-02
DAV:  13    -0.194681574496E+03    0.10867E-01   -0.11762E-02 55656   0.206E-01    0.780E-02
DAV:  14    -0.194680263047E+03    0.13114E-02   -0.13417E-03 62196   0.993E-02    0.641E-02
DAV:  15    -0.194674800560E+03    0.54625E-02   -0.33409E-03 54804   0.111E-01    0.617E-02
DAV:  16    -0.194675287164E+03   -0.48660E-03   -0.55765E-04 55728   0.617E-02    0.478E-02
DAV:  17    -0.194682224032E+03   -0.69369E-02   -0.22726E-03 57732   0.780E-02    0.462E-02
DAV:  18    -0.194686781654E+03   -0.45576E-02   -0.84659E-04 58380   0.663E-02    0.313E-02
DAV:  19    -0.194689208784E+03   -0.24271E-02   -0.39585E-04 58656   0.428E-02    0.184E-02
DAV:  20    -0.194690488737E+03   -0.12800E-02   -0.15277E-04 59076   0.292E-02    0.862E-03
DAV:  21    -0.194690924046E+03   -0.43531E-03   -0.28981E-05 57936   0.133E-02    0.696E-03
DAV:  22    -0.194691091938E+03   -0.16789E-03   -0.82725E-06 58620   0.717E-03    0.350E-03
DAV:  23    -0.194691201566E+03   -0.10963E-03   -0.60729E-06 55944   0.460E-03    0.164E-03
DAV:  24    -0.194691228433E+03   -0.26867E-04   -0.13628E-06 58404   0.244E-03    0.576E-04
DAV:  25    -0.194691234362E+03   -0.59289E-05   -0.19530E-07 58824   0.941E-04    0.419E-04
DAV:  26    -0.194691236412E+03   -0.20503E-05   -0.31253E-08 57480   0.444E-04    0.250E-04
DAV:  27    -0.194691238100E+03   -0.16878E-05   -0.37057E-08 55620   0.326E-04    0.730E-05
DAV:  28    -0.194691238577E+03   -0.47683E-06   -0.37642E-09 49260   0.137E-04    0.462E-05
DAV:  29    -0.194691238811E+03   -0.23402E-06    0.17104E-09 45852   0.848E-05    0.172E-05
DAV:  30    -0.194691238852E+03   -0.41498E-07    0.60740E-09 40200   0.376E-05    0.133E-05
DAV:  31    -0.194691238868E+03   -0.15529E-07    0.63026E-09 37056   0.202E-05    0.980E-06
DAV:  32    -0.194691238877E+03   -0.91941E-08    0.63575E-09 38460   0.147E-05
   1 F= -.19469124E+03 E0= -.19469124E+03  d E =-.801012E-16
