 vasp.5.4.4.18Apr17-6-g9f103f2a35 (build May 31 2018 21:15:54) complex          
  
 executed on          c7_intel_O1 date 2020.08.12  21:18:52
 running on   36 total cores
 distrk:  each k-point on   36 cores,    1 groups
 distr:  one band on NCORES_PER_BAND=   6 cores,    6 groups


--------------------------------------------------------------------------------------------------------


 INCAR:
 POTCAR:   PAW_PBE W 08Apr2002                    
 POTCAR:   PAW_PBE Se 06Sep2000                   
 POTCAR:   PAW_PBE W 08Apr2002                    
   VRHFIN =W : 6s5d                                                             
   LEXCH  = PE                                                                  
   EATOM  =   204.6100 eV,   15.0384 Ry                                         
                                                                                
   TITEL  = PAW_PBE W 08Apr2002                                                 
   LULTRA =        F    use ultrasoft PP ?                                      
   IUNSCR =        1    unscreen: 0-lin 1-nonlin 2-no                           
   RPACOR =    2.330    partial core radius                                     
   POMASS =  183.850; ZVAL   =    6.000    mass and valenz                      
   RCORE  =    2.750    outmost cutoff radius                                   
   RWIGS  =    2.750; RWIGS  =    1.455    wigner-seitz radius (au A)           
   ENMAX  =  223.057; ENMIN  =  167.293 eV                                      
   RCLOC  =    2.147    cutoff for local pot                                    
   LCOR   =        T    correct aug charges                                     
   LPAW   =        T    paw PP                                                  
   EAUG   =  373.438                                                            
   DEXC   =    -.060                                                            
   RMAX   =    3.087    core radius for proj-oper                               
   RAUG   =    1.300    factor for augmentation sphere                          
   RDEP   =    2.886    radius for radial grids                                 
   QCUT   =   -4.049; QGAM   =    8.098    optimization parameters              
                                                                                
   Description                                                                  
     l     E      TYP  RCUT    TYP  RCUT                                        
     2   .000     23  2.500                                                     
     2   .000     23  2.500                                                     
     0   .000     23  2.500                                                     
     0   .000     23  2.500                                                     
     1   .200     23  2.750                                                     
     1  2.000     23  2.750                                                     
     3   .000      7   .000                                                     
  local pseudopotential read in
  partial core-charges read in
  atomic valenz-charges read in
  non local Contribution for L=           2  read in
    real space projection operators read in
  non local Contribution for L=           2  read in
    real space projection operators read in
  non local Contribution for L=           0  read in
    real space projection operators read in
  non local Contribution for L=           0  read in
    real space projection operators read in
  non local Contribution for L=           1  read in
    real space projection operators read in
  non local Contribution for L=           1  read in
    real space projection operators read in
    PAW grid and wavefunctions read in
 
   number of l-projection  operators is LMAX  =           6
   number of lm-projection operators is LMMAX =          18
 
 POTCAR:   PAW_PBE Se 06Sep2000                   
   VRHFIN =Se: s2p4                                                             
   LEXCH  = PE                                                                  
   EATOM  =   256.9644 eV,   18.8864 Ry                                         
                                                                                
   TITEL  = PAW_PBE Se 06Sep2000                                                
   LULTRA =        F    use ultrasoft PP ?                                      
   IUNSCR =        1    unscreen: 0-lin 1-nonlin 2-no                           
   RPACOR =    1.900    partial core radius                                     
   POMASS =   78.960; ZVAL   =    6.000    mass and valenz                      
   RCORE  =    2.100    outmost cutoff radius                                   
   RWIGS  =    2.200; RWIGS  =    1.164    wigner-seitz radius (au A)           
   ENMAX  =  211.534; ENMIN  =  158.651 eV                                      
   ICORE  =        3    local potential                                         
   LCOR   =        T    correct aug charges                                     
   LPAW   =        T    paw PP                                                  
   EAUG   =  446.842                                                            
   DEXC   =    -.031                                                            
   RMAX   =    3.170    core radius for proj-oper                               
   RAUG   =    1.300    factor for augmentation sphere                          
   RDEP   =    2.177    radius for radial grids                                 
   QCUT   =   -3.943; QGAM   =    7.886    optimization parameters              
                                                                                
   Description                                                                  
     l     E      TYP  RCUT    TYP  RCUT                                        
     0   .000     23  2.100                                                     
     0   .000     23  2.100                                                     
     1   .000     23  2.100                                                     
     1   .000     23  2.100                                                     
     2   .000     23  2.100                                                     
     3  -.100      7  2.100                                                     
  local pseudopotential read in
  partial core-charges read in
  atomic valenz-charges read in
  non local Contribution for L=           0  read in
    real space projection operators read in
  non local Contribution for L=           0  read in
    real space projection operators read in
  non local Contribution for L=           1  read in
    real space projection operators read in
  non local Contribution for L=           1  read in
    real space projection operators read in
  non local Contribution for L=           2  read in
    real space projection operators read in
    PAW grid and wavefunctions read in
 
   number of l-projection  operators is LMAX  =           5
   number of lm-projection operators is LMMAX =          13
 

 ----------------------------------------------------------------------------- 
|                                                                             |
|  ADVICE TO THIS USER RUNNING 'VASP/VAMP'   (HEAR YOUR MASTER'S VOICE ...):  |
|                                                                             |
|      You have a (more or less) 'large supercell' and for larger cells       |
|      it might be more efficient to use real space projection operators      |
|      So try LREAL= Auto  in the INCAR   file.                               |
|      Mind: If you want to do a very accurate calculations keep the          |
|      reciprocal projection scheme          (i.e. LREAL=.FALSE.)             |
|                                                                             |
 ----------------------------------------------------------------------------- 

 WARNING: PSMAXN for non-local potential too small
          PSMAXN should be >   14.4904333269122       NTYP=           1
 PAW_PBE W 08Apr2002                    :
 energy of atom  1       EATOM= -204.6100
 kinetic energy error for atom=    0.0002 (will be added to EATOM!!)
 PAW_PBE Se 06Sep2000                   :
 energy of atom  2       EATOM= -256.9644
 kinetic energy error for atom=    0.0002 (will be added to EATOM!!)
 
 
 POSCAR: generated by phonopy                    
  positions in direct lattice
  No initial velocities read in
 exchange correlation table for  LEXCH =        8
   RHO(1)=    0.500       N(1)  =     2000
   RHO(2)=  100.500       N(2)  =     4000
 


--------------------------------------------------------------------------------------------------------


 ion  position               nearest neighbor table
   1  0.333  0.000  0.000-  17 2.54  26 2.54  20 2.54  11 2.54  19 2.54  10 2.54   4 3.28   6 3.28
                             8 3.28   7 3.28   2 3.28   3 3.28
   2  0.667  0.000  0.000-  18 2.54  27 2.54  20 2.54  11 2.54  21 2.54  12 2.54   4 3.28   5 3.28
                             8 3.28   9 3.28   1 3.28   3 3.28
   3  1.000  0.000  0.000-  10 2.53  16 2.54  25 2.54  19 2.54  21 2.54  12 2.54   6 3.28   7 3.28
                             5 3.28   9 3.28   1 3.28   2 3.28
   4  0.333  0.333  0.000-  11 2.54  20 2.54  14 2.54  13 2.54  22 2.54  23 2.54   1 3.28   2 3.28
                             7 3.28   9 3.28   5 3.28   6 3.28
   5  0.667  0.333  0.000-  12 2.54  21 2.54  14 2.54  23 2.54  15 2.54  24 2.54   2 3.28   7 3.28
                             8 3.28   3 3.28   4 3.28   6 3.28
   6  1.000  0.333  0.000-  19 2.54  13 2.54  22 2.54  15 2.54  24 2.54  10 2.55   3 3.28   1 3.28
                             9 3.28   8 3.28   4 3.28   5 3.28
   7  0.333  0.667  0.000-  14 2.54  23 2.54  17 2.54  26 2.54  25 2.54  16 2.54   5 3.28   4 3.28
                             3 3.28   1 3.28   8 3.28   9 3.28
   8  0.667  0.667  0.000-  15 2.54  24 2.54  17 2.54  26 2.54  18 2.54  27 2.54   5 3.28   1 3.28
                             6 3.28   2 3.28   7 3.28   9 3.28
   9  1.000  0.667  0.000-  13 2.54  22 2.54  16 2.54  25 2.54  18 2.54  27 2.54   4 3.28   6 3.28
                             2 3.28   3 3.28   7 3.28   8 3.28
  10  0.111  0.110  0.915-   3 2.53   1 2.54   6 2.55
  11  0.444  0.111  0.915-   4 2.54   2 2.54   1 2.54
  12  0.778  0.111  0.915-   5 2.54   3 2.54   2 2.54
  13  0.111  0.444  0.915-   9 2.54   6 2.54   4 2.54
  14  0.444  0.444  0.915-   7 2.54   5 2.54   4 2.54
  15  0.778  0.444  0.915-   8 2.54   6 2.54   5 2.54
  16  0.111  0.778  0.915-   3 2.54   9 2.54   7 2.54
  17  0.444  0.778  0.915-   1 2.54   8 2.54   7 2.54
  18  0.778  0.778  0.915-   2 2.54   9 2.54   8 2.54
  19  0.111  0.111  0.085-   6 2.54   3 2.54   1 2.54
  20  0.444  0.111  0.085-   4 2.54   2 2.54   1 2.54
  21  0.778  0.111  0.085-   5 2.54   3 2.54   2 2.54
  22  0.111  0.444  0.085-   9 2.54   6 2.54   4 2.54
  23  0.444  0.444  0.085-   7 2.54   5 2.54   4 2.54
  24  0.778  0.444  0.085-   8 2.54   6 2.54   5 2.54
  25  0.111  0.778  0.085-   3 2.54   9 2.54   7 2.54
  26  0.444  0.778  0.085-   1 2.54   8 2.54   7 2.54
  27  0.778  0.778  0.085-   2 2.54   9 2.54   8 2.54
 
  LATTYP: Found a base centered orthorhombic cell.
 ALAT       =     9.8460000000
 B/A-ratio  =     1.7309445460
 C/A-ratio  =     2.0312817388
  
  Lattice vectors:
  
 A1 = (  -4.9230000000,  -8.5214400000,   0.0000000000)
 A2 = (  -4.9230000000,   8.5214400000,   0.0000000000)
 A3 = (   0.0000000000,   0.0000000000, -20.0000000000)


Analysis of symmetry for initial positions (statically):
=====================================================================
 Subroutine PRICEL returns:
 Original cell was already a primitive cell.
 

 Routine SETGRP: Setting up the symmetry group for a 
 base centered orthorhombic supercell.


 Subroutine GETGRP returns: Found  1 space group operations
 (whereof  1 operations were pure point group operations)
 out of a pool of  8 trial point group operations.


The static configuration has the point symmetry C_1 .


Analysis of symmetry for dynamics (positions and initial velocities):
=====================================================================
 Subroutine PRICEL returns:
 Original cell was already a primitive cell.
 

 Routine SETGRP: Setting up the symmetry group for a 
 base centered orthorhombic supercell.


 Subroutine GETGRP returns: Found  1 space group operations
 (whereof  1 operations were pure point group operations)
 out of a pool of  8 trial point group operations.


The dynamic configuration has the point symmetry C_1 .


 Subroutine INISYM returns: Found  1 space group operations
 (whereof  1 operations are pure point group operations),
 and found     1 'primitive' translations

 
 
 KPOINTS: W-1, Se-2                               

Automatic generation of k-mesh.
Space group operators:
 irot       det(A)        alpha          n_x          n_y          n_z        tau_x        tau_y        tau_z
    1     1.000000     0.000000     1.000000     0.000000     0.000000     0.000000     0.000000     0.000000
 
 Subroutine IBZKPT returns following result:
 ===========================================
 
 Found    221 irreducible k-points:
 
 Following reciprocal coordinates:
            Coordinates               Weight
  0.000000  0.000000  0.000000      1.000000
  0.047619  0.000000  0.000000      2.000000
  0.095238  0.000000  0.000000      2.000000
  0.142857  0.000000  0.000000      2.000000
  0.190476  0.000000  0.000000      2.000000
  0.238095  0.000000  0.000000      2.000000
  0.285714  0.000000  0.000000      2.000000
  0.333333  0.000000  0.000000      2.000000
  0.380952  0.000000  0.000000      2.000000
  0.428571  0.000000  0.000000      2.000000
  0.476190  0.000000  0.000000      2.000000
  0.000000  0.047619  0.000000      2.000000
  0.047619  0.047619  0.000000      2.000000
  0.095238  0.047619  0.000000      2.000000
  0.142857  0.047619  0.000000      2.000000
  0.190476  0.047619  0.000000      2.000000
  0.238095  0.047619  0.000000      2.000000
  0.285714  0.047619  0.000000      2.000000
  0.333333  0.047619  0.000000      2.000000
  0.380952  0.047619  0.000000      2.000000
  0.428571  0.047619  0.000000      2.000000
  0.476190  0.047619  0.000000      2.000000
 -0.476190  0.047619  0.000000      2.000000
 -0.428571  0.047619  0.000000      2.000000
 -0.380952  0.047619  0.000000      2.000000
 -0.333333  0.047619  0.000000      2.000000
 -0.285714  0.047619  0.000000      2.000000
 -0.238095  0.047619  0.000000      2.000000
 -0.190476  0.047619  0.000000      2.000000
 -0.142857  0.047619  0.000000      2.000000
 -0.095238  0.047619  0.000000      2.000000
 -0.047619  0.047619  0.000000      2.000000
  0.000000  0.095238  0.000000      2.000000
  0.047619  0.095238  0.000000      2.000000
  0.095238  0.095238  0.000000      2.000000
  0.142857  0.095238  0.000000      2.000000
  0.190476  0.095238  0.000000      2.000000
  0.238095  0.095238  0.000000      2.000000
  0.285714  0.095238  0.000000      2.000000
  0.333333  0.095238  0.000000      2.000000
  0.380952  0.095238  0.000000      2.000000
  0.428571  0.095238  0.000000      2.000000
  0.476190  0.095238  0.000000      2.000000
 -0.476190  0.095238  0.000000      2.000000
 -0.428571  0.095238  0.000000      2.000000
 -0.380952  0.095238  0.000000      2.000000
 -0.333333  0.095238  0.000000      2.000000
 -0.285714  0.095238  0.000000      2.000000
 -0.238095  0.095238  0.000000      2.000000
 -0.190476  0.095238  0.000000      2.000000
 -0.142857  0.095238  0.000000      2.000000
 -0.095238  0.095238  0.000000      2.000000
 -0.047619  0.095238  0.000000      2.000000
  0.000000  0.142857  0.000000      2.000000
  0.047619  0.142857  0.000000      2.000000
  0.095238  0.142857  0.000000      2.000000
  0.142857  0.142857  0.000000      2.000000
  0.190476  0.142857  0.000000      2.000000
  0.238095  0.142857  0.000000      2.000000
  0.285714  0.142857  0.000000      2.000000
  0.333333  0.142857  0.000000      2.000000
  0.380952  0.142857  0.000000      2.000000
  0.428571  0.142857  0.000000      2.000000
  0.476190  0.142857  0.000000      2.000000
 -0.476190  0.142857  0.000000      2.000000
 -0.428571  0.142857  0.000000      2.000000
 -0.380952  0.142857  0.000000      2.000000
 -0.333333  0.142857  0.000000      2.000000
 -0.285714  0.142857  0.000000      2.000000
 -0.238095  0.142857  0.000000      2.000000
 -0.190476  0.142857  0.000000      2.000000
 -0.142857  0.142857  0.000000      2.000000
 -0.095238  0.142857  0.000000      2.000000
 -0.047619  0.142857  0.000000      2.000000
  0.000000  0.190476  0.000000      2.000000
  0.047619  0.190476  0.000000      2.000000
  0.095238  0.190476  0.000000      2.000000
  0.142857  0.190476  0.000000      2.000000
  0.190476  0.190476  0.000000      2.000000
  0.238095  0.190476  0.000000      2.000000
  0.285714  0.190476  0.000000      2.000000
  0.333333  0.190476  0.000000      2.000000
  0.380952  0.190476  0.000000      2.000000
  0.428571  0.190476  0.000000      2.000000
  0.476190  0.190476  0.000000      2.000000
 -0.476190  0.190476  0.000000      2.000000
 -0.428571  0.190476  0.000000      2.000000
 -0.380952  0.190476  0.000000      2.000000
 -0.333333  0.190476  0.000000      2.000000
 -0.285714  0.190476  0.000000      2.000000
 -0.238095  0.190476  0.000000      2.000000
 -0.190476  0.190476  0.000000      2.000000
 -0.142857  0.190476  0.000000      2.000000
 -0.095238  0.190476  0.000000      2.000000
 -0.047619  0.190476  0.000000      2.000000
  0.000000  0.238095  0.000000      2.000000
  0.047619  0.238095  0.000000      2.000000
  0.095238  0.238095  0.000000      2.000000
  0.142857  0.238095  0.000000      2.000000
  0.190476  0.238095  0.000000      2.000000
  0.238095  0.238095  0.000000      2.000000
  0.285714  0.238095  0.000000      2.000000
  0.333333  0.238095  0.000000      2.000000
  0.380952  0.238095  0.000000      2.000000
  0.428571  0.238095  0.000000      2.000000
  0.476190  0.238095  0.000000      2.000000
 -0.476190  0.238095  0.000000      2.000000
 -0.428571  0.238095  0.000000      2.000000
 -0.380952  0.238095  0.000000      2.000000
 -0.333333  0.238095  0.000000      2.000000
 -0.285714  0.238095  0.000000      2.000000
 -0.238095  0.238095  0.000000      2.000000
 -0.190476  0.238095  0.000000      2.000000
 -0.142857  0.238095  0.000000      2.000000
 -0.095238  0.238095  0.000000      2.000000
 -0.047619  0.238095  0.000000      2.000000
  0.000000  0.285714  0.000000      2.000000
  0.047619  0.285714  0.000000      2.000000
  0.095238  0.285714  0.000000      2.000000
  0.142857  0.285714  0.000000      2.000000
  0.190476  0.285714  0.000000      2.000000
  0.238095  0.285714  0.000000      2.000000
  0.285714  0.285714  0.000000      2.000000
  0.333333  0.285714  0.000000      2.000000
  0.380952  0.285714  0.000000      2.000000
  0.428571  0.285714  0.000000      2.000000
  0.476190  0.285714  0.000000      2.000000
 -0.476190  0.285714  0.000000      2.000000
 -0.428571  0.285714  0.000000      2.000000
 -0.380952  0.285714  0.000000      2.000000
 -0.333333  0.285714  0.000000      2.000000
 -0.285714  0.285714  0.000000      2.000000
 -0.238095  0.285714  0.000000      2.000000
 -0.190476  0.285714  0.000000      2.000000
 -0.142857  0.285714  0.000000      2.000000
 -0.095238  0.285714  0.000000      2.000000
 -0.047619  0.285714  0.000000      2.000000
  0.000000  0.333333  0.000000      2.000000
  0.047619  0.333333  0.000000      2.000000
  0.095238  0.333333  0.000000      2.000000
  0.142857  0.333333  0.000000      2.000000
  0.190476  0.333333  0.000000      2.000000
  0.238095  0.333333  0.000000      2.000000
  0.285714  0.333333  0.000000      2.000000
  0.333333  0.333333  0.000000      2.000000
  0.380952  0.333333  0.000000      2.000000
  0.428571  0.333333  0.000000      2.000000
  0.476190  0.333333  0.000000      2.000000
 -0.476190  0.333333  0.000000      2.000000
 -0.428571  0.333333  0.000000      2.000000
 -0.380952  0.333333  0.000000      2.000000
 -0.333333  0.333333  0.000000      2.000000
 -0.285714  0.333333  0.000000      2.000000
 -0.238095  0.333333  0.000000      2.000000
 -0.190476  0.333333  0.000000      2.000000
 -0.142857  0.333333  0.000000      2.000000
 -0.095238  0.333333  0.000000      2.000000
 -0.047619  0.333333  0.000000      2.000000
  0.000000  0.380952  0.000000      2.000000
  0.047619  0.380952  0.000000      2.000000
  0.095238  0.380952  0.000000      2.000000
  0.142857  0.380952  0.000000      2.000000
  0.190476  0.380952  0.000000      2.000000
  0.238095  0.380952  0.000000      2.000000
  0.285714  0.380952  0.000000      2.000000
  0.333333  0.380952  0.000000      2.000000
  0.380952  0.380952  0.000000      2.000000
  0.428571  0.380952  0.000000      2.000000
  0.476190  0.380952  0.000000      2.000000
 -0.476190  0.380952  0.000000      2.000000
 -0.428571  0.380952  0.000000      2.000000
 -0.380952  0.380952  0.000000      2.000000
 -0.333333  0.380952  0.000000      2.000000
 -0.285714  0.380952  0.000000      2.000000
 -0.238095  0.380952  0.000000      2.000000
 -0.190476  0.380952  0.000000      2.000000
 -0.142857  0.380952  0.000000      2.000000
 -0.095238  0.380952  0.000000      2.000000
 -0.047619  0.380952  0.000000      2.000000
  0.000000  0.428571  0.000000      2.000000
  0.047619  0.428571  0.000000      2.000000
  0.095238  0.428571  0.000000      2.000000
  0.142857  0.428571  0.000000      2.000000
  0.190476  0.428571  0.000000      2.000000
  0.238095  0.428571  0.000000      2.000000
  0.285714  0.428571  0.000000      2.000000
  0.333333  0.428571  0.000000      2.000000
  0.380952  0.428571  0.000000      2.000000
  0.428571  0.428571  0.000000      2.000000
  0.476190  0.428571  0.000000      2.000000
 -0.476190  0.428571  0.000000      2.000000
 -0.428571  0.428571  0.000000      2.000000
 -0.380952  0.428571  0.000000      2.000000
 -0.333333  0.428571  0.000000      2.000000
 -0.285714  0.428571  0.000000      2.000000
 -0.238095  0.428571  0.000000      2.000000
 -0.190476  0.428571  0.000000      2.000000
 -0.142857  0.428571  0.000000      2.000000
 -0.095238  0.428571  0.000000      2.000000
 -0.047619  0.428571  0.000000      2.000000
  0.000000  0.476190  0.000000      2.000000
  0.047619  0.476190  0.000000      2.000000
  0.095238  0.476190  0.000000      2.000000
  0.142857  0.476190  0.000000      2.000000
  0.190476  0.476190  0.000000      2.000000
  0.238095  0.476190  0.000000      2.000000
  0.285714  0.476190  0.000000      2.000000
  0.333333  0.476190  0.000000      2.000000
  0.380952  0.476190  0.000000      2.000000
  0.428571  0.476190  0.000000      2.000000
  0.476190  0.476190  0.000000      2.000000
 -0.476190  0.476190  0.000000      2.000000
 -0.428571  0.476190  0.000000      2.000000
 -0.380952  0.476190  0.000000      2.000000
 -0.333333  0.476190  0.000000      2.000000
 -0.285714  0.476190  0.000000      2.000000
 -0.238095  0.476190  0.000000      2.000000
 -0.190476  0.476190  0.000000      2.000000
 -0.142857  0.476190  0.000000      2.000000
 -0.095238  0.476190  0.000000      2.000000
 -0.047619  0.476190  0.000000      2.000000
 
 Following cartesian coordinates:
            Coordinates               Weight
  0.000000  0.000000  0.000000      1.000000
  0.004836 -0.002794  0.000000      2.000000
  0.009673 -0.005588  0.000000      2.000000
  0.014509 -0.008382  0.000000      2.000000
  0.019346 -0.011176  0.000000      2.000000
  0.024182 -0.013970  0.000000      2.000000
  0.029018 -0.016764  0.000000      2.000000
  0.033855 -0.019559  0.000000      2.000000
  0.038691 -0.022353  0.000000      2.000000
  0.043527 -0.025147  0.000000      2.000000
  0.048364 -0.027941  0.000000      2.000000
  0.000000  0.005588  0.000000      2.000000
  0.004836  0.002794  0.000000      2.000000
  0.009673  0.000000  0.000000      2.000000
  0.014509 -0.002794  0.000000      2.000000
  0.019346 -0.005588  0.000000      2.000000
  0.024182 -0.008382  0.000000      2.000000
  0.029018 -0.011176  0.000000      2.000000
  0.033855 -0.013970  0.000000      2.000000
  0.038691 -0.016764  0.000000      2.000000
  0.043527 -0.019559  0.000000      2.000000
  0.048364 -0.022353  0.000000      2.000000
 -0.048364  0.033529  0.000000      2.000000
 -0.043527  0.030735  0.000000      2.000000
 -0.038691  0.027941  0.000000      2.000000
 -0.033855  0.025147  0.000000      2.000000
 -0.029018  0.022353  0.000000      2.000000
 -0.024182  0.019559  0.000000      2.000000
 -0.019346  0.016764  0.000000      2.000000
 -0.014509  0.013970  0.000000      2.000000
 -0.009673  0.011176  0.000000      2.000000
 -0.004836  0.008382  0.000000      2.000000
  0.000000  0.011176  0.000000      2.000000
  0.004836  0.008382  0.000000      2.000000
  0.009673  0.005588  0.000000      2.000000
  0.014509  0.002794  0.000000      2.000000
  0.019346 -0.000000  0.000000      2.000000
  0.024182 -0.002794  0.000000      2.000000
  0.029018 -0.005588  0.000000      2.000000
  0.033855 -0.008382  0.000000      2.000000
  0.038691 -0.011176  0.000000      2.000000
  0.043527 -0.013970  0.000000      2.000000
  0.048364 -0.016764  0.000000      2.000000
 -0.048364  0.039117  0.000000      2.000000
 -0.043527  0.036323  0.000000      2.000000
 -0.038691  0.033529  0.000000      2.000000
 -0.033855  0.030735  0.000000      2.000000
 -0.029018  0.027941  0.000000      2.000000
 -0.024182  0.025147  0.000000      2.000000
 -0.019346  0.022353  0.000000      2.000000
 -0.014509  0.019559  0.000000      2.000000
 -0.009673  0.016764  0.000000      2.000000
 -0.004836  0.013970  0.000000      2.000000
  0.000000  0.016764  0.000000      2.000000
  0.004836  0.013970  0.000000      2.000000
  0.009673  0.011176  0.000000      2.000000
  0.014509  0.008382  0.000000      2.000000
  0.019346  0.005588  0.000000      2.000000
  0.024182  0.002794  0.000000      2.000000
  0.029018  0.000000  0.000000      2.000000
  0.033855 -0.002794  0.000000      2.000000
  0.038691 -0.005588  0.000000      2.000000
  0.043527 -0.008382  0.000000      2.000000
  0.048364 -0.011176  0.000000      2.000000
 -0.048364  0.044705  0.000000      2.000000
 -0.043527  0.041911  0.000000      2.000000
 -0.038691  0.039117  0.000000      2.000000
 -0.033855  0.036323  0.000000      2.000000
 -0.029018  0.033529  0.000000      2.000000
 -0.024182  0.030735  0.000000      2.000000
 -0.019346  0.027941  0.000000      2.000000
 -0.014509  0.025147  0.000000      2.000000
 -0.009673  0.022353  0.000000      2.000000
 -0.004836  0.019559  0.000000      2.000000
  0.000000  0.022353  0.000000      2.000000
  0.004836  0.019559  0.000000      2.000000
  0.009673  0.016764  0.000000      2.000000
  0.014509  0.013970  0.000000      2.000000
  0.019346  0.011176  0.000000      2.000000
  0.024182  0.008382  0.000000      2.000000
  0.029018  0.005588  0.000000      2.000000
  0.033855  0.002794  0.000000      2.000000
  0.038691  0.000000  0.000000      2.000000
  0.043527 -0.002794  0.000000      2.000000
  0.048364 -0.005588  0.000000      2.000000
 -0.048364  0.050293  0.000000      2.000000
 -0.043527  0.047499  0.000000      2.000000
 -0.038691  0.044705  0.000000      2.000000
 -0.033855  0.041911  0.000000      2.000000
 -0.029018  0.039117  0.000000      2.000000
 -0.024182  0.036323  0.000000      2.000000
 -0.019346  0.033529  0.000000      2.000000
 -0.014509  0.030735  0.000000      2.000000
 -0.009673  0.027941  0.000000      2.000000
 -0.004836  0.025147  0.000000      2.000000
  0.000000  0.027941  0.000000      2.000000
  0.004836  0.025147  0.000000      2.000000
  0.009673  0.022353  0.000000      2.000000
  0.014509  0.019559  0.000000      2.000000
  0.019346  0.016764  0.000000      2.000000
  0.024182  0.013970  0.000000      2.000000
  0.029018  0.011176  0.000000      2.000000
  0.033855  0.008382  0.000000      2.000000
  0.038691  0.005588  0.000000      2.000000
  0.043527  0.002794  0.000000      2.000000
  0.048364  0.000000  0.000000      2.000000
 -0.048364  0.055881  0.000000      2.000000
 -0.043527  0.053087  0.000000      2.000000
 -0.038691  0.050293  0.000000      2.000000
 -0.033855  0.047499  0.000000      2.000000
 -0.029018  0.044705  0.000000      2.000000
 -0.024182  0.041911  0.000000      2.000000
 -0.019346  0.039117  0.000000      2.000000
 -0.014509  0.036323  0.000000      2.000000
 -0.009673  0.033529  0.000000      2.000000
 -0.004836  0.030735  0.000000      2.000000
  0.000000  0.033529  0.000000      2.000000
  0.004836  0.030735  0.000000      2.000000
  0.009673  0.027941  0.000000      2.000000
  0.014509  0.025147  0.000000      2.000000
  0.019346  0.022353  0.000000      2.000000
  0.024182  0.019559  0.000000      2.000000
  0.029018  0.016764  0.000000      2.000000
  0.033855  0.013970  0.000000      2.000000
  0.038691  0.011176  0.000000      2.000000
  0.043527  0.008382  0.000000      2.000000
  0.048364  0.005588  0.000000      2.000000
 -0.048364  0.061470  0.000000      2.000000
 -0.043527  0.058676  0.000000      2.000000
 -0.038691  0.055881  0.000000      2.000000
 -0.033855  0.053087  0.000000      2.000000
 -0.029018  0.050293  0.000000      2.000000
 -0.024182  0.047499  0.000000      2.000000
 -0.019346  0.044705  0.000000      2.000000
 -0.014509  0.041911  0.000000      2.000000
 -0.009673  0.039117  0.000000      2.000000
 -0.004836  0.036323  0.000000      2.000000
  0.000000  0.039117  0.000000      2.000000
  0.004836  0.036323  0.000000      2.000000
  0.009673  0.033529  0.000000      2.000000
  0.014509  0.030735  0.000000      2.000000
  0.019346  0.027941  0.000000      2.000000
  0.024182  0.025147  0.000000      2.000000
  0.029018  0.022353  0.000000      2.000000
  0.033855  0.019559  0.000000      2.000000
  0.038691  0.016764  0.000000      2.000000
  0.043527  0.013970  0.000000      2.000000
  0.048364  0.011176  0.000000      2.000000
 -0.048364  0.067058  0.000000      2.000000
 -0.043527  0.064264  0.000000      2.000000
 -0.038691  0.061470  0.000000      2.000000
 -0.033855  0.058676  0.000000      2.000000
 -0.029018  0.055881  0.000000      2.000000
 -0.024182  0.053087  0.000000      2.000000
 -0.019346  0.050293  0.000000      2.000000
 -0.014509  0.047499  0.000000      2.000000
 -0.009673  0.044705  0.000000      2.000000
 -0.004836  0.041911  0.000000      2.000000
  0.000000  0.044705  0.000000      2.000000
  0.004836  0.041911  0.000000      2.000000
  0.009673  0.039117  0.000000      2.000000
  0.014509  0.036323  0.000000      2.000000
  0.019346  0.033529  0.000000      2.000000
  0.024182  0.030735  0.000000      2.000000
  0.029018  0.027941  0.000000      2.000000
  0.033855  0.025147  0.000000      2.000000
  0.038691  0.022353  0.000000      2.000000
  0.043527  0.019559  0.000000      2.000000
  0.048364  0.016764  0.000000      2.000000
 -0.048364  0.072646  0.000000      2.000000
 -0.043527  0.069852  0.000000      2.000000
 -0.038691  0.067058  0.000000      2.000000
 -0.033855  0.064264  0.000000      2.000000
 -0.029018  0.061470  0.000000      2.000000
 -0.024182  0.058676  0.000000      2.000000
 -0.019346  0.055881  0.000000      2.000000
 -0.014509  0.053087  0.000000      2.000000
 -0.009673  0.050293  0.000000      2.000000
 -0.004836  0.047499  0.000000      2.000000
  0.000000  0.050293  0.000000      2.000000
  0.004836  0.047499  0.000000      2.000000
  0.009673  0.044705  0.000000      2.000000
  0.014509  0.041911  0.000000      2.000000
  0.019346  0.039117  0.000000      2.000000
  0.024182  0.036323  0.000000      2.000000
  0.029018  0.033529  0.000000      2.000000
  0.033855  0.030735  0.000000      2.000000
  0.038691  0.027941  0.000000      2.000000
  0.043527  0.025147  0.000000      2.000000
  0.048364  0.022353  0.000000      2.000000
 -0.048364  0.078234  0.000000      2.000000
 -0.043527  0.075440  0.000000      2.000000
 -0.038691  0.072646  0.000000      2.000000
 -0.033855  0.069852  0.000000      2.000000
 -0.029018  0.067058  0.000000      2.000000
 -0.024182  0.064264  0.000000      2.000000
 -0.019346  0.061470  0.000000      2.000000
 -0.014509  0.058676  0.000000      2.000000
 -0.009673  0.055881  0.000000      2.000000
 -0.004836  0.053087  0.000000      2.000000
  0.000000  0.055881  0.000000      2.000000
  0.004836  0.053087  0.000000      2.000000
  0.009673  0.050293  0.000000      2.000000
  0.014509  0.047499  0.000000      2.000000
  0.019346  0.044705  0.000000      2.000000
  0.024182  0.041911  0.000000      2.000000
  0.029018  0.039117  0.000000      2.000000
  0.033855  0.036323  0.000000      2.000000
  0.038691  0.033529  0.000000      2.000000
  0.043527  0.030735  0.000000      2.000000
  0.048364  0.027941  0.000000      2.000000
 -0.048364  0.083822  0.000000      2.000000
 -0.043527  0.081028  0.000000      2.000000
 -0.038691  0.078234  0.000000      2.000000
 -0.033855  0.075440  0.000000      2.000000
 -0.029018  0.072646  0.000000      2.000000
 -0.024182  0.069852  0.000000      2.000000
 -0.019346  0.067058  0.000000      2.000000
 -0.014509  0.064264  0.000000      2.000000
 -0.009673  0.061470  0.000000      2.000000
 -0.004836  0.058676  0.000000      2.000000
 


--------------------------------------------------------------------------------------------------------




 Dimension of arrays:
   k-points           NKPTS =    221   k-points in BZ     NKDIM =    221   number of bands    NBANDS=    102
   number of dos      NEDOS =    301   number of ions     NIONS =     27
   non local maximal  LDIM  =      6   non local SUM 2l+1 LMDIM =     18
   total plane-waves  NPLWV = ******
   max r-space proj   IRMAX =      1   max aug-charges    IRDMAX= 481671
   dimension x,y,z NGX =    96 NGY =   96 NGZ =  192
   dimension x,y,z NGXF=   192 NGYF=  192 NGZF=  384
   support grid    NGXF=   384 NGYF=  384 NGZF=  768
   ions per type =               9  18
   NGX,Y,Z   is equivalent  to a cutoff of  16.21, 16.22, 15.96 a.u.
   NGXF,Y,Z  is equivalent  to a cutoff of  32.42, 32.43, 31.92 a.u.

 SYSTEM =  W-1, se-2                               
 POSCAR =  generated by phonopy                    

 Startparameter for this run:
   NWRITE =      2    write-flag & timer
   PREC   = accura    normal or accurate (medium, high low for compatibility)
   ISTART =      0    job   : 0-new  1-cont  2-samecut
   ICHARG =      2    charge: 1-file 2-atom 10-const
   ISPIN  =      1    spin polarized calculation?
   LNONCOLLINEAR =      F non collinear calculations
   LSORBIT =      F    spin-orbit coupling
   INIWAV =      1    electr: 0-lowe 1-rand  2-diag
   LASPH  =      F    aspherical Exc in radial PAW
   METAGGA=      F    non-selfconsistent MetaGGA calc.

 Electronic Relaxation 1
   ENCUT  =  800.0 eV  58.80 Ry    7.67 a.u.  22.71 22.70 46.12*2*pi/ulx,y,z
   ENINI  =  800.0     initial cutoff
   ENAUG  =  446.8 eV  augmentation charge cutoff
   NELM   =     60;   NELMIN=  5; NELMDL= -5     # of ELM steps 
   EDIFF  = 0.1E-07   stopping-criterion for ELM
   LREAL  =      F    real-space projection
   NLSPLINE    = F    spline interpolate recip. space projectors
   LCOMPAT=      F    compatible to vasp.4.4
   GGA_COMPAT  = T    GGA compatible to vasp.4.4-vasp.4.6
   LMAXPAW     = -100 max onsite density
   LMAXMIX     =    2 max onsite mixed and CHGCAR
   VOSKOWN=      0    Vosko Wilk Nusair interpolation
   ROPT   =    0.00000   0.00000
 Ionic relaxation
   EDIFFG = -.1E-07   stopping-criterion for IOM
   NSW    =      0    number of steps for IOM
   NBLOCK =      1;   KBLOCK =      1    inner block; outer block 
   IBRION =     -1    ionic relax: 0-MD 1-quasi-New 2-CG
   NFREE  =      0    steps in history (QN), initial steepest desc. (CG)
   ISIF   =      2    stress and relaxation
   IWAVPR =     10    prediction:  0-non 1-charg 2-wave 3-comb
   ISYM   =      2    0-nonsym 1-usesym 2-fastsym
   LCORR  =      T    Harris-Foulkes like correction to forces

   POTIM  = 0.5000    time-step for ionic-motion
   TEIN   =    0.0    initial temperature
   TEBEG  =    0.0;   TEEND  =   0.0 temperature during run
   SMASS  =  -3.00    Nose mass-parameter (am)
   estimated Nose-frequenzy (Omega)   =  0.10E-29 period in steps =****** mass=  -0.222E-26a.u.
   SCALEE = 1.0000    scale energy and forces
   NPACO  =    256;   APACO  = 16.0  distance and # of slots for P.C.
   PSTRESS=    0.0 pullay stress

  Mass of Ions in am
   POMASS = 183.85 78.96
  Ionic Valenz
   ZVAL   =   6.00  6.00
  Atomic Wigner-Seitz radii
   RWIGS  =  -1.00 -1.00
  virtual crystal weights 
   VCA    =   1.00  1.00
   NELECT =     162.0000    total number of electrons
   NUPDOWN=      -1.0000    fix difference up-down

 DOS related values:
   EMIN   =  10.00;   EMAX   =-10.00  energy-range for DOS
   EFERMI =   0.00
   ISMEAR =     0;   SIGMA  =   0.01  broadening in eV -4-tet -1-fermi 0-gaus

 Electronic relaxation 2 (details)
   IALGO  =     38    algorithm
   LDIAG  =      T    sub-space diagonalisation (order eigenvalues)
   LSUBROT=      F    optimize rotation matrix (better conditioning)
   TURBO    =      0    0=normal 1=particle mesh
   IRESTART =      0    0=no restart 2=restart with 2 vectors
   NREBOOT  =      0    no. of reboots
   NMIN     =      0    reboot dimension
   EREF     =   0.00    reference energy to select bands
   IMIX   =      4    mixing-type and parameters
     AMIX     =   0.40;   BMIX     =  1.00
     AMIX_MAG =   1.60;   BMIX_MAG =  1.00
     AMIN     =   0.01
     WC   =   100.;   INIMIX=   1;  MIXPRE=   1;  MAXMIX= -45

 Intra band minimization:
   WEIMIN = 0.0000     energy-eigenvalue tresh-hold
   EBREAK =  0.25E-11  absolut break condition
   DEPER  =   0.30     relativ break condition  

   TIME   =   0.40     timestep for ELM

  volume/ion in A,a.u.               =      62.15       419.41
  Fermi-wavevector in a.u.,A,eV,Ry     =   0.751010  1.419203  7.673898  0.564016
  Thomas-Fermi vector in A             =   1.847892
 
 Write flags
   LWAVE        =      F    write WAVECAR
   LDOWNSAMPLE  =      F    k-point downsampling of WAVECAR
   LCHARG       =      F    write CHGCAR
   LVTOT        =      F    write LOCPOT, total local potential
   LVHAR        =      F    write LOCPOT, Hartree potential only
   LELF         =      F    write electronic localiz. function (ELF)
   LORBIT       =      0    0 simple, 1 ext, 2 COOP (PROOUT), +10 PAW based schemes


 Dipole corrections
   LMONO  =      F    monopole corrections only (constant potential shift)
   LDIPOL =      F    correct potential (dipole corrections)
   IDIPOL =      0    1-x, 2-y, 3-z, 4-all directions 
   EPSILON=  1.0000000 bulk dielectric constant

 Exchange correlation treatment:
   GGA     =    --    GGA type
   LEXCH   =     8    internal setting for exchange type
   VOSKOWN=      0    Vosko Wilk Nusair interpolation
   LHFCALC =     F    Hartree Fock is set to
   LHFONE  =     F    Hartree Fock one center treatment
   AEXX    =    0.0000 exact exchange contribution

 Linear response parameters
   LEPSILON=     F    determine dielectric tensor
   LRPA    =     F    only Hartree local field effects (RPA)
   LNABLA  =     F    use nabla operator in PAW spheres
   LVEL    =     F    velocity operator in full k-point grid
   LINTERFAST=   F  fast interpolation
   KINTER  =     0    interpolate to denser k-point grid
   CSHIFT  =0.1000    complex shift for real part using Kramers Kronig
   OMEGAMAX=  -1.0    maximum frequency
   DEG_THRESHOLD= 0.2000000E-02 threshold for treating states as degnerate
   RTIME   =   -0.100 relaxation time in fs
  (WPLASMAI=    0.000 imaginary part of plasma frequency in eV, 0.658/RTIME)
   DFIELD  = 0.0000000 0.0000000 0.0000000 field for delta impulse in time
 
 Orbital magnetization related:
   ORBITALMAG=     F  switch on orbital magnetization
   LCHIMAG   =     F  perturbation theory with respect to B field
   DQ        =  0.001000  dq finite difference perturbation B field
   LLRAUG    =     F  two centre corrections for induced B field



--------------------------------------------------------------------------------------------------------


 Static calculation
 charge density and potential will be updated during run
 non-spin polarized calculation
 Variant of blocked Davidson
 Davidson routine will perform the subspace rotation
 perform sub-space diagonalisation
    after iterative eigenvector-optimisation
 modified Broyden-mixing scheme, WC =      100.0
 initial mixing is a Kerker type mixing with AMIX =  0.4000 and BMIX =      1.0000
 Hartree-type preconditioning will be used
 using additional bands           21
 reciprocal scheme for non local part
 use partial core corrections
 calculate Harris-corrections to forces 
   (improved forces if not selfconsistent)
 use gradient corrections 
 use of overlap-Matrix (Vanderbilt PP)
 Gauss-broadening in eV      SIGMA  =   0.01


--------------------------------------------------------------------------------------------------------


  energy-cutoff  :      800.00
  volume of cell :     1678.04
      direct lattice vectors                 reciprocal lattice vectors
     9.846000000  0.000000000  0.000000000     0.101564087 -0.058675529  0.000000000
     4.923000000  8.521440000  0.000000000     0.000000000  0.117351058  0.000000000
     0.000000000  0.000000000 20.000000000     0.000000000  0.000000000  0.050000000

  length of vectors
     9.846000000  9.841283894 20.000000000     0.117294848  0.117351058  0.050000000


 
 k-points in units of 2pi/SCALE and weight: W-1, Se-2                               
   0.00000000  0.00000000  0.00000000       0.002
   0.00483639 -0.00279407  0.00000000       0.005
   0.00967277 -0.00558815  0.00000000       0.005
   0.01450916 -0.00838222  0.00000000       0.005
   0.01934554 -0.01117629  0.00000000       0.005
   0.02418193 -0.01397036  0.00000000       0.005
   0.02901831 -0.01676444  0.00000000       0.005
   0.03385470 -0.01955851  0.00000000       0.005
   0.03869108 -0.02235258  0.00000000       0.005
   0.04352747 -0.02514666  0.00000000       0.005
   0.04836385 -0.02794073  0.00000000       0.005
   0.00000000  0.00558815  0.00000000       0.005
   0.00483639  0.00279407  0.00000000       0.005
   0.00967277  0.00000000  0.00000000       0.005
   0.01450916 -0.00279407  0.00000000       0.005
   0.01934554 -0.00558815  0.00000000       0.005
   0.02418193 -0.00838222  0.00000000       0.005
   0.02901831 -0.01117629  0.00000000       0.005
   0.03385470 -0.01397036  0.00000000       0.005
   0.03869108 -0.01676444  0.00000000       0.005
   0.04352747 -0.01955851  0.00000000       0.005
   0.04836385 -0.02235258  0.00000000       0.005
  -0.04836385  0.03352887  0.00000000       0.005
  -0.04352747  0.03073480  0.00000000       0.005
  -0.03869108  0.02794073  0.00000000       0.005
  -0.03385470  0.02514666  0.00000000       0.005
  -0.02901831  0.02235258  0.00000000       0.005
  -0.02418193  0.01955851  0.00000000       0.005
  -0.01934554  0.01676444  0.00000000       0.005
  -0.01450916  0.01397036  0.00000000       0.005
  -0.00967277  0.01117629  0.00000000       0.005
  -0.00483639  0.00838222  0.00000000       0.005
   0.00000000  0.01117629  0.00000000       0.005
   0.00483639  0.00838222  0.00000000       0.005
   0.00967277  0.00558815  0.00000000       0.005
   0.01450916  0.00279407  0.00000000       0.005
   0.01934554 -0.00000000  0.00000000       0.005
   0.02418193 -0.00279407  0.00000000       0.005
   0.02901831 -0.00558815  0.00000000       0.005
   0.03385470 -0.00838222  0.00000000       0.005
   0.03869108 -0.01117629  0.00000000       0.005
   0.04352747 -0.01397036  0.00000000       0.005
   0.04836385 -0.01676444  0.00000000       0.005
  -0.04836385  0.03911702  0.00000000       0.005
  -0.04352747  0.03632295  0.00000000       0.005
  -0.03869108  0.03352887  0.00000000       0.005
  -0.03385470  0.03073480  0.00000000       0.005
  -0.02901831  0.02794073  0.00000000       0.005
  -0.02418193  0.02514666  0.00000000       0.005
  -0.01934554  0.02235258  0.00000000       0.005
  -0.01450916  0.01955851  0.00000000       0.005
  -0.00967277  0.01676444  0.00000000       0.005
  -0.00483639  0.01397036  0.00000000       0.005
   0.00000000  0.01676444  0.00000000       0.005
   0.00483639  0.01397036  0.00000000       0.005
   0.00967277  0.01117629  0.00000000       0.005
   0.01450916  0.00838222  0.00000000       0.005
   0.01934554  0.00558815  0.00000000       0.005
   0.02418193  0.00279407  0.00000000       0.005
   0.02901831  0.00000000  0.00000000       0.005
   0.03385470 -0.00279407  0.00000000       0.005
   0.03869108 -0.00558815  0.00000000       0.005
   0.04352747 -0.00838222  0.00000000       0.005
   0.04836385 -0.01117629  0.00000000       0.005
  -0.04836385  0.04470516  0.00000000       0.005
  -0.04352747  0.04191109  0.00000000       0.005
  -0.03869108  0.03911702  0.00000000       0.005
  -0.03385470  0.03632295  0.00000000       0.005
  -0.02901831  0.03352887  0.00000000       0.005
  -0.02418193  0.03073480  0.00000000       0.005
  -0.01934554  0.02794073  0.00000000       0.005
  -0.01450916  0.02514666  0.00000000       0.005
  -0.00967277  0.02235258  0.00000000       0.005
  -0.00483639  0.01955851  0.00000000       0.005
   0.00000000  0.02235258  0.00000000       0.005
   0.00483639  0.01955851  0.00000000       0.005
   0.00967277  0.01676444  0.00000000       0.005
   0.01450916  0.01397036  0.00000000       0.005
   0.01934554  0.01117629  0.00000000       0.005
   0.02418193  0.00838222  0.00000000       0.005
   0.02901831  0.00558815  0.00000000       0.005
   0.03385470  0.00279407  0.00000000       0.005
   0.03869108  0.00000000  0.00000000       0.005
   0.04352747 -0.00279407  0.00000000       0.005
   0.04836385 -0.00558815  0.00000000       0.005
  -0.04836385  0.05029331  0.00000000       0.005
  -0.04352747  0.04749924  0.00000000       0.005
  -0.03869108  0.04470516  0.00000000       0.005
  -0.03385470  0.04191109  0.00000000       0.005
  -0.02901831  0.03911702  0.00000000       0.005
  -0.02418193  0.03632295  0.00000000       0.005
  -0.01934554  0.03352887  0.00000000       0.005
  -0.01450916  0.03073480  0.00000000       0.005
  -0.00967277  0.02794073  0.00000000       0.005
  -0.00483639  0.02514666  0.00000000       0.005
   0.00000000  0.02794073  0.00000000       0.005
   0.00483639  0.02514666  0.00000000       0.005
   0.00967277  0.02235258  0.00000000       0.005
   0.01450916  0.01955851  0.00000000       0.005
   0.01934554  0.01676444  0.00000000       0.005
   0.02418193  0.01397036  0.00000000       0.005
   0.02901831  0.01117629  0.00000000       0.005
   0.03385470  0.00838222  0.00000000       0.005
   0.03869108  0.00558815  0.00000000       0.005
   0.04352747  0.00279407  0.00000000       0.005
   0.04836385  0.00000000  0.00000000       0.005
  -0.04836385  0.05588146  0.00000000       0.005
  -0.04352747  0.05308738  0.00000000       0.005
  -0.03869108  0.05029331  0.00000000       0.005
  -0.03385470  0.04749924  0.00000000       0.005
  -0.02901831  0.04470516  0.00000000       0.005
  -0.02418193  0.04191109  0.00000000       0.005
  -0.01934554  0.03911702  0.00000000       0.005
  -0.01450916  0.03632295  0.00000000       0.005
  -0.00967277  0.03352887  0.00000000       0.005
  -0.00483639  0.03073480  0.00000000       0.005
   0.00000000  0.03352887  0.00000000       0.005
   0.00483639  0.03073480  0.00000000       0.005
   0.00967277  0.02794073  0.00000000       0.005
   0.01450916  0.02514666  0.00000000       0.005
   0.01934554  0.02235258  0.00000000       0.005
   0.02418193  0.01955851  0.00000000       0.005
   0.02901831  0.01676444  0.00000000       0.005
   0.03385470  0.01397036  0.00000000       0.005
   0.03869108  0.01117629  0.00000000       0.005
   0.04352747  0.00838222  0.00000000       0.005
   0.04836385  0.00558815  0.00000000       0.005
  -0.04836385  0.06146960  0.00000000       0.005
  -0.04352747  0.05867553  0.00000000       0.005
  -0.03869108  0.05588146  0.00000000       0.005
  -0.03385470  0.05308738  0.00000000       0.005
  -0.02901831  0.05029331  0.00000000       0.005
  -0.02418193  0.04749924  0.00000000       0.005
  -0.01934554  0.04470516  0.00000000       0.005
  -0.01450916  0.04191109  0.00000000       0.005
  -0.00967277  0.03911702  0.00000000       0.005
  -0.00483639  0.03632295  0.00000000       0.005
   0.00000000  0.03911702  0.00000000       0.005
   0.00483639  0.03632295  0.00000000       0.005
   0.00967277  0.03352887  0.00000000       0.005
   0.01450916  0.03073480  0.00000000       0.005
   0.01934554  0.02794073  0.00000000       0.005
   0.02418193  0.02514666  0.00000000       0.005
   0.02901831  0.02235258  0.00000000       0.005
   0.03385470  0.01955851  0.00000000       0.005
   0.03869108  0.01676444  0.00000000       0.005
   0.04352747  0.01397036  0.00000000       0.005
   0.04836385  0.01117629  0.00000000       0.005
  -0.04836385  0.06705775  0.00000000       0.005
  -0.04352747  0.06426367  0.00000000       0.005
  -0.03869108  0.06146960  0.00000000       0.005
  -0.03385470  0.05867553  0.00000000       0.005
  -0.02901831  0.05588146  0.00000000       0.005
  -0.02418193  0.05308738  0.00000000       0.005
  -0.01934554  0.05029331  0.00000000       0.005
  -0.01450916  0.04749924  0.00000000       0.005
  -0.00967277  0.04470516  0.00000000       0.005
  -0.00483639  0.04191109  0.00000000       0.005
   0.00000000  0.04470516  0.00000000       0.005
   0.00483639  0.04191109  0.00000000       0.005
   0.00967277  0.03911702  0.00000000       0.005
   0.01450916  0.03632295  0.00000000       0.005
   0.01934554  0.03352887  0.00000000       0.005
   0.02418193  0.03073480  0.00000000       0.005
   0.02901831  0.02794073  0.00000000       0.005
   0.03385470  0.02514666  0.00000000       0.005
   0.03869108  0.02235258  0.00000000       0.005
   0.04352747  0.01955851  0.00000000       0.005
   0.04836385  0.01676444  0.00000000       0.005
  -0.04836385  0.07264589  0.00000000       0.005
  -0.04352747  0.06985182  0.00000000       0.005
  -0.03869108  0.06705775  0.00000000       0.005
  -0.03385470  0.06426367  0.00000000       0.005
  -0.02901831  0.06146960  0.00000000       0.005
  -0.02418193  0.05867553  0.00000000       0.005
  -0.01934554  0.05588146  0.00000000       0.005
  -0.01450916  0.05308738  0.00000000       0.005
  -0.00967277  0.05029331  0.00000000       0.005
  -0.00483639  0.04749924  0.00000000       0.005
   0.00000000  0.05029331  0.00000000       0.005
   0.00483639  0.04749924  0.00000000       0.005
   0.00967277  0.04470516  0.00000000       0.005
   0.01450916  0.04191109  0.00000000       0.005
   0.01934554  0.03911702  0.00000000       0.005
   0.02418193  0.03632295  0.00000000       0.005
   0.02901831  0.03352887  0.00000000       0.005
   0.03385470  0.03073480  0.00000000       0.005
   0.03869108  0.02794073  0.00000000       0.005
   0.04352747  0.02514666  0.00000000       0.005
   0.04836385  0.02235258  0.00000000       0.005
  -0.04836385  0.07823404  0.00000000       0.005
  -0.04352747  0.07543997  0.00000000       0.005
  -0.03869108  0.07264589  0.00000000       0.005
  -0.03385470  0.06985182  0.00000000       0.005
  -0.02901831  0.06705775  0.00000000       0.005
  -0.02418193  0.06426367  0.00000000       0.005
  -0.01934554  0.06146960  0.00000000       0.005
  -0.01450916  0.05867553  0.00000000       0.005
  -0.00967277  0.05588146  0.00000000       0.005
  -0.00483639  0.05308738  0.00000000       0.005
   0.00000000  0.05588146  0.00000000       0.005
   0.00483639  0.05308738  0.00000000       0.005
   0.00967277  0.05029331  0.00000000       0.005
   0.01450916  0.04749924  0.00000000       0.005
   0.01934554  0.04470516  0.00000000       0.005
   0.02418193  0.04191109  0.00000000       0.005
   0.02901831  0.03911702  0.00000000       0.005
   0.03385470  0.03632295  0.00000000       0.005
   0.03869108  0.03352887  0.00000000       0.005
   0.04352747  0.03073480  0.00000000       0.005
   0.04836385  0.02794073  0.00000000       0.005
  -0.04836385  0.08382218  0.00000000       0.005
  -0.04352747  0.08102811  0.00000000       0.005
  -0.03869108  0.07823404  0.00000000       0.005
  -0.03385470  0.07543997  0.00000000       0.005
  -0.02901831  0.07264589  0.00000000       0.005
  -0.02418193  0.06985182  0.00000000       0.005
  -0.01934554  0.06705775  0.00000000       0.005
  -0.01450916  0.06426367  0.00000000       0.005
  -0.00967277  0.06146960  0.00000000       0.005
  -0.00483639  0.05867553  0.00000000       0.005
 
 k-points in reciprocal lattice and weights: W-1, Se-2                               
   0.00000000  0.00000000  0.00000000       0.002
   0.04761905  0.00000000  0.00000000       0.005
   0.09523810  0.00000000  0.00000000       0.005
   0.14285714  0.00000000  0.00000000       0.005
   0.19047619  0.00000000  0.00000000       0.005
   0.23809524  0.00000000  0.00000000       0.005
   0.28571429  0.00000000  0.00000000       0.005
   0.33333333  0.00000000  0.00000000       0.005
   0.38095238  0.00000000  0.00000000       0.005
   0.42857143  0.00000000  0.00000000       0.005
   0.47619048  0.00000000  0.00000000       0.005
   0.00000000  0.04761905  0.00000000       0.005
   0.04761905  0.04761905  0.00000000       0.005
   0.09523810  0.04761905  0.00000000       0.005
   0.14285714  0.04761905  0.00000000       0.005
   0.19047619  0.04761905  0.00000000       0.005
   0.23809524  0.04761905  0.00000000       0.005
   0.28571429  0.04761905  0.00000000       0.005
   0.33333333  0.04761905  0.00000000       0.005
   0.38095238  0.04761905  0.00000000       0.005
   0.42857143  0.04761905  0.00000000       0.005
   0.47619048  0.04761905  0.00000000       0.005
  -0.47619048  0.04761905  0.00000000       0.005
  -0.42857143  0.04761905  0.00000000       0.005
  -0.38095238  0.04761905  0.00000000       0.005
  -0.33333333  0.04761905  0.00000000       0.005
  -0.28571429  0.04761905  0.00000000       0.005
  -0.23809524  0.04761905  0.00000000       0.005
  -0.19047619  0.04761905  0.00000000       0.005
  -0.14285714  0.04761905  0.00000000       0.005
  -0.09523810  0.04761905  0.00000000       0.005
  -0.04761905  0.04761905  0.00000000       0.005
   0.00000000  0.09523810  0.00000000       0.005
   0.04761905  0.09523810  0.00000000       0.005
   0.09523810  0.09523810  0.00000000       0.005
   0.14285714  0.09523810  0.00000000       0.005
   0.19047619  0.09523810  0.00000000       0.005
   0.23809524  0.09523810  0.00000000       0.005
   0.28571429  0.09523810  0.00000000       0.005
   0.33333333  0.09523810  0.00000000       0.005
   0.38095238  0.09523810  0.00000000       0.005
   0.42857143  0.09523810  0.00000000       0.005
   0.47619048  0.09523810  0.00000000       0.005
  -0.47619048  0.09523810  0.00000000       0.005
  -0.42857143  0.09523810  0.00000000       0.005
  -0.38095238  0.09523810  0.00000000       0.005
  -0.33333333  0.09523810  0.00000000       0.005
  -0.28571429  0.09523810  0.00000000       0.005
  -0.23809524  0.09523810  0.00000000       0.005
  -0.19047619  0.09523810  0.00000000       0.005
  -0.14285714  0.09523810  0.00000000       0.005
  -0.09523810  0.09523810  0.00000000       0.005
  -0.04761905  0.09523810  0.00000000       0.005
   0.00000000  0.14285714  0.00000000       0.005
   0.04761905  0.14285714  0.00000000       0.005
   0.09523810  0.14285714  0.00000000       0.005
   0.14285714  0.14285714  0.00000000       0.005
   0.19047619  0.14285714  0.00000000       0.005
   0.23809524  0.14285714  0.00000000       0.005
   0.28571429  0.14285714  0.00000000       0.005
   0.33333333  0.14285714  0.00000000       0.005
   0.38095238  0.14285714  0.00000000       0.005
   0.42857143  0.14285714  0.00000000       0.005
   0.47619048  0.14285714  0.00000000       0.005
  -0.47619048  0.14285714  0.00000000       0.005
  -0.42857143  0.14285714  0.00000000       0.005
  -0.38095238  0.14285714  0.00000000       0.005
  -0.33333333  0.14285714  0.00000000       0.005
  -0.28571429  0.14285714  0.00000000       0.005
  -0.23809524  0.14285714  0.00000000       0.005
  -0.19047619  0.14285714  0.00000000       0.005
  -0.14285714  0.14285714  0.00000000       0.005
  -0.09523810  0.14285714  0.00000000       0.005
  -0.04761905  0.14285714  0.00000000       0.005
   0.00000000  0.19047619  0.00000000       0.005
   0.04761905  0.19047619  0.00000000       0.005
   0.09523810  0.19047619  0.00000000       0.005
   0.14285714  0.19047619  0.00000000       0.005
   0.19047619  0.19047619  0.00000000       0.005
   0.23809524  0.19047619  0.00000000       0.005
   0.28571429  0.19047619  0.00000000       0.005
   0.33333333  0.19047619  0.00000000       0.005
   0.38095238  0.19047619  0.00000000       0.005
   0.42857143  0.19047619  0.00000000       0.005
   0.47619048  0.19047619  0.00000000       0.005
  -0.47619048  0.19047619  0.00000000       0.005
  -0.42857143  0.19047619  0.00000000       0.005
  -0.38095238  0.19047619  0.00000000       0.005
  -0.33333333  0.19047619  0.00000000       0.005
  -0.28571429  0.19047619  0.00000000       0.005
  -0.23809524  0.19047619  0.00000000       0.005
  -0.19047619  0.19047619  0.00000000       0.005
  -0.14285714  0.19047619  0.00000000       0.005
  -0.09523810  0.19047619  0.00000000       0.005
  -0.04761905  0.19047619  0.00000000       0.005
   0.00000000  0.23809524  0.00000000       0.005
   0.04761905  0.23809524  0.00000000       0.005
   0.09523810  0.23809524  0.00000000       0.005
   0.14285714  0.23809524  0.00000000       0.005
   0.19047619  0.23809524  0.00000000       0.005
   0.23809524  0.23809524  0.00000000       0.005
   0.28571429  0.23809524  0.00000000       0.005
   0.33333333  0.23809524  0.00000000       0.005
   0.38095238  0.23809524  0.00000000       0.005
   0.42857143  0.23809524  0.00000000       0.005
   0.47619048  0.23809524  0.00000000       0.005
  -0.47619048  0.23809524  0.00000000       0.005
  -0.42857143  0.23809524  0.00000000       0.005
  -0.38095238  0.23809524  0.00000000       0.005
  -0.33333333  0.23809524  0.00000000       0.005
  -0.28571429  0.23809524  0.00000000       0.005
  -0.23809524  0.23809524  0.00000000       0.005
  -0.19047619  0.23809524  0.00000000       0.005
  -0.14285714  0.23809524  0.00000000       0.005
  -0.09523810  0.23809524  0.00000000       0.005
  -0.04761905  0.23809524  0.00000000       0.005
   0.00000000  0.28571429  0.00000000       0.005
   0.04761905  0.28571429  0.00000000       0.005
   0.09523810  0.28571429  0.00000000       0.005
   0.14285714  0.28571429  0.00000000       0.005
   0.19047619  0.28571429  0.00000000       0.005
   0.23809524  0.28571429  0.00000000       0.005
   0.28571429  0.28571429  0.00000000       0.005
   0.33333333  0.28571429  0.00000000       0.005
   0.38095238  0.28571429  0.00000000       0.005
   0.42857143  0.28571429  0.00000000       0.005
   0.47619048  0.28571429  0.00000000       0.005
  -0.47619048  0.28571429  0.00000000       0.005
  -0.42857143  0.28571429  0.00000000       0.005
  -0.38095238  0.28571429  0.00000000       0.005
  -0.33333333  0.28571429  0.00000000       0.005
  -0.28571429  0.28571429  0.00000000       0.005
  -0.23809524  0.28571429  0.00000000       0.005
  -0.19047619  0.28571429  0.00000000       0.005
  -0.14285714  0.28571429  0.00000000       0.005
  -0.09523810  0.28571429  0.00000000       0.005
  -0.04761905  0.28571429  0.00000000       0.005
   0.00000000  0.33333333  0.00000000       0.005
   0.04761905  0.33333333  0.00000000       0.005
   0.09523810  0.33333333  0.00000000       0.005
   0.14285714  0.33333333  0.00000000       0.005
   0.19047619  0.33333333  0.00000000       0.005
   0.23809524  0.33333333  0.00000000       0.005
   0.28571429  0.33333333  0.00000000       0.005
   0.33333333  0.33333333  0.00000000       0.005
   0.38095238  0.33333333  0.00000000       0.005
   0.42857143  0.33333333  0.00000000       0.005
   0.47619048  0.33333333  0.00000000       0.005
  -0.47619048  0.33333333  0.00000000       0.005
  -0.42857143  0.33333333  0.00000000       0.005
  -0.38095238  0.33333333  0.00000000       0.005
  -0.33333333  0.33333333  0.00000000       0.005
  -0.28571429  0.33333333  0.00000000       0.005
  -0.23809524  0.33333333  0.00000000       0.005
  -0.19047619  0.33333333  0.00000000       0.005
  -0.14285714  0.33333333  0.00000000       0.005
  -0.09523810  0.33333333  0.00000000       0.005
  -0.04761905  0.33333333  0.00000000       0.005
   0.00000000  0.38095238  0.00000000       0.005
   0.04761905  0.38095238  0.00000000       0.005
   0.09523810  0.38095238  0.00000000       0.005
   0.14285714  0.38095238  0.00000000       0.005
   0.19047619  0.38095238  0.00000000       0.005
   0.23809524  0.38095238  0.00000000       0.005
   0.28571429  0.38095238  0.00000000       0.005
   0.33333333  0.38095238  0.00000000       0.005
   0.38095238  0.38095238  0.00000000       0.005
   0.42857143  0.38095238  0.00000000       0.005
   0.47619048  0.38095238  0.00000000       0.005
  -0.47619048  0.38095238  0.00000000       0.005
  -0.42857143  0.38095238  0.00000000       0.005
  -0.38095238  0.38095238  0.00000000       0.005
  -0.33333333  0.38095238  0.00000000       0.005
  -0.28571429  0.38095238  0.00000000       0.005
  -0.23809524  0.38095238  0.00000000       0.005
  -0.19047619  0.38095238  0.00000000       0.005
  -0.14285714  0.38095238  0.00000000       0.005
  -0.09523810  0.38095238  0.00000000       0.005
  -0.04761905  0.38095238  0.00000000       0.005
   0.00000000  0.42857143  0.00000000       0.005
   0.04761905  0.42857143  0.00000000       0.005
   0.09523810  0.42857143  0.00000000       0.005
   0.14285714  0.42857143  0.00000000       0.005
   0.19047619  0.42857143  0.00000000       0.005
   0.23809524  0.42857143  0.00000000       0.005
   0.28571429  0.42857143  0.00000000       0.005
   0.33333333  0.42857143  0.00000000       0.005
   0.38095238  0.42857143  0.00000000       0.005
   0.42857143  0.42857143  0.00000000       0.005
   0.47619048  0.42857143  0.00000000       0.005
  -0.47619048  0.42857143  0.00000000       0.005
  -0.42857143  0.42857143  0.00000000       0.005
  -0.38095238  0.42857143  0.00000000       0.005
  -0.33333333  0.42857143  0.00000000       0.005
  -0.28571429  0.42857143  0.00000000       0.005
  -0.23809524  0.42857143  0.00000000       0.005
  -0.19047619  0.42857143  0.00000000       0.005
  -0.14285714  0.42857143  0.00000000       0.005
  -0.09523810  0.42857143  0.00000000       0.005
  -0.04761905  0.42857143  0.00000000       0.005
   0.00000000  0.47619048  0.00000000       0.005
   0.04761905  0.47619048  0.00000000       0.005
   0.09523810  0.47619048  0.00000000       0.005
   0.14285714  0.47619048  0.00000000       0.005
   0.19047619  0.47619048  0.00000000       0.005
   0.23809524  0.47619048  0.00000000       0.005
   0.28571429  0.47619048  0.00000000       0.005
   0.33333333  0.47619048  0.00000000       0.005
   0.38095238  0.47619048  0.00000000       0.005
   0.42857143  0.47619048  0.00000000       0.005
   0.47619048  0.47619048  0.00000000       0.005
  -0.47619048  0.47619048  0.00000000       0.005
  -0.42857143  0.47619048  0.00000000       0.005
  -0.38095238  0.47619048  0.00000000       0.005
  -0.33333333  0.47619048  0.00000000       0.005
  -0.28571429  0.47619048  0.00000000       0.005
  -0.23809524  0.47619048  0.00000000       0.005
  -0.19047619  0.47619048  0.00000000       0.005
  -0.14285714  0.47619048  0.00000000       0.005
  -0.09523810  0.47619048  0.00000000       0.005
  -0.04761905  0.47619048  0.00000000       0.005
 
 position of ions in fractional coordinates (direct lattice) 
   0.33330000  0.00006700  0.00000000
   0.66663300  0.00006700  0.00000000
   0.99996700  0.00006700  0.00000000
   0.33330000  0.33340000  0.00000000
   0.66663300  0.33340000  0.00000000
   0.99996700  0.33340000  0.00000000
   0.33330000  0.66673300  0.00000000
   0.66663300  0.66673300  0.00000000
   0.99996700  0.66673300  0.00000000
   0.11109200  0.11013300  0.91545900
   0.44442600  0.11114900  0.91545900
   0.77775900  0.11114900  0.91545900
   0.11109200  0.44448200  0.91545900
   0.44442600  0.44448200  0.91545900
   0.77775900  0.44448200  0.91545900
   0.11109200  0.77781500  0.91545900
   0.44442600  0.77781500  0.91545900
   0.77775900  0.77781500  0.91545900
   0.11109200  0.11114900  0.08454100
   0.44442600  0.11114900  0.08454100
   0.77775900  0.11114900  0.08454100
   0.11109200  0.44448200  0.08454100
   0.44442600  0.44448200  0.08454100
   0.77775900  0.44448200  0.08454100
   0.11109200  0.77781500  0.08454100
   0.44442600  0.77781500  0.08454100
   0.77775900  0.77781500  0.08454100
 
 position of ions in cartesian coordinates  (Angst):
   3.28200164  0.00057094  0.00000000
   6.56399836  0.00057094  0.00000000
   9.84600492  0.00057094  0.00000000
   4.92300000  2.84104810  0.00000000
   8.20499672  2.84104810  0.00000000
  11.48700328  2.84104810  0.00000000
   6.56399836  5.68152526  0.00000000
   9.84599508  5.68152526  0.00000000
  13.12800164  5.68152526  0.00000000
   1.63599659  0.93849175 18.30918000
   4.92300492  0.94714953 18.30918000
   8.20500164  0.94714953 18.30918000
   3.28199672  3.78762669 18.30918000
   6.56400328  3.78762669 18.30918000
   9.84600000  3.78762669 18.30918000
   4.92299508  6.62810385 18.30918000
   8.20500164  6.62810385 18.30918000
  11.48699836  6.62810385 18.30918000
   1.64099836  0.94714953  1.69082000
   4.92300492  0.94714953  1.69082000
   8.20500164  0.94714953  1.69082000
   3.28199672  3.78762669  1.69082000
   6.56400328  3.78762669  1.69082000
   9.84600000  3.78762669  1.69082000
   4.92299508  6.62810385  1.69082000
   8.20500164  6.62810385  1.69082000
  11.48699836  6.62810385  1.69082000
 


--------------------------------------------------------------------------------------------------------


 k-point  1 :   0.0000 0.0000 0.0000  plane waves:   86201
 k-point  2 :   0.0476 0.0000 0.0000  plane waves:   86227
 k-point  3 :   0.0952 0.0000 0.0000  plane waves:   86283
 k-point  4 :   0.1429 0.0000 0.0000  plane waves:   86284
 k-point  5 :   0.1905 0.0000 0.0000  plane waves:   86267
 k-point  6 :   0.2381 0.0000 0.0000  plane waves:   86227
 k-point  7 :   0.2857 0.0000 0.0000  plane waves:   86214
 k-point  8 :   0.3333 0.0000 0.0000  plane waves:   86217
 k-point  9 :   0.3810 0.0000 0.0000  plane waves:   86191
 k-point 10 :   0.4286 0.0000 0.0000  plane waves:   86216
 k-point 11 :   0.4762 0.0000 0.0000  plane waves:   86214
 k-point 12 :   0.0000 0.0476 0.0000  plane waves:   86227
 k-point 13 :   0.0476 0.0476 0.0000  plane waves:   86227
 k-point 14 :   0.0952 0.0476 0.0000  plane waves:   86245
 k-point 15 :   0.1429 0.0476 0.0000  plane waves:   86285
 k-point 16 :   0.1905 0.0476 0.0000  plane waves:   86262
 k-point 17 :   0.2381 0.0476 0.0000  plane waves:   86205
 k-point 18 :   0.2857 0.0476 0.0000  plane waves:   86209
 k-point 19 :   0.3333 0.0476 0.0000  plane waves:   86197
 k-point 20 :   0.3810 0.0476 0.0000  plane waves:   86210
 k-point 21 :   0.4286 0.0476 0.0000  plane waves:   86200
 k-point 22 :   0.4762 0.0476 0.0000  plane waves:   86221
 k-point 23 :  -0.4762 0.0476 0.0000  plane waves:   86256
 k-point 24 :  -0.4286 0.0476 0.0000  plane waves:   86219
 k-point 25 :  -0.3810 0.0476 0.0000  plane waves:   86210
 k-point 26 :  -0.3333 0.0476 0.0000  plane waves:   86211
 k-point 27 :  -0.2857 0.0476 0.0000  plane waves:   86192
 k-point 28 :  -0.2381 0.0476 0.0000  plane waves:   86203
 k-point 29 :  -0.1905 0.0476 0.0000  plane waves:   86216
 k-point 30 :  -0.1429 0.0476 0.0000  plane waves:   86252
 k-point 31 :  -0.0952 0.0476 0.0000  plane waves:   86289
 k-point 32 :  -0.0476 0.0476 0.0000  plane waves:   86246
 k-point 33 :   0.0000 0.0952 0.0000  plane waves:   86271
 k-point 34 :   0.0476 0.0952 0.0000  plane waves:   86246
 k-point 35 :   0.0952 0.0952 0.0000  plane waves:   86283
 k-point 36 :   0.1429 0.0952 0.0000  plane waves:   86285
 k-point 37 :   0.1905 0.0952 0.0000  plane waves:   86243
 k-point 38 :   0.2381 0.0952 0.0000  plane waves:   86249
 k-point 39 :   0.2857 0.0952 0.0000  plane waves:   86208
 k-point 40 :   0.3333 0.0952 0.0000  plane waves:   86173
 k-point 41 :   0.3810 0.0952 0.0000  plane waves:   86209
 k-point 42 :   0.4286 0.0952 0.0000  plane waves:   86200
 k-point 43 :   0.4762 0.0952 0.0000  plane waves:   86182
 k-point 44 :  -0.4762 0.0952 0.0000  plane waves:   86212
 k-point 45 :  -0.4286 0.0952 0.0000  plane waves:   86220
 k-point 46 :  -0.3810 0.0952 0.0000  plane waves:   86202
 k-point 47 :  -0.3333 0.0952 0.0000  plane waves:   86186
 k-point 48 :  -0.2857 0.0952 0.0000  plane waves:   86204
 k-point 49 :  -0.2381 0.0952 0.0000  plane waves:   86167
 k-point 50 :  -0.1905 0.0952 0.0000  plane waves:   86195
 k-point 51 :  -0.1429 0.0952 0.0000  plane waves:   86247
 k-point 52 :  -0.0952 0.0952 0.0000  plane waves:   86256
 k-point 53 :  -0.0476 0.0952 0.0000  plane waves:   86287
 k-point 54 :   0.0000 0.1429 0.0000  plane waves:   86267
 k-point 55 :   0.0476 0.1429 0.0000  plane waves:   86287
 k-point 56 :   0.0952 0.1429 0.0000  plane waves:   86289
 k-point 57 :   0.1429 0.1429 0.0000  plane waves:   86284
 k-point 58 :   0.1905 0.1429 0.0000  plane waves:   86262
 k-point 59 :   0.2381 0.1429 0.0000  plane waves:   86249
 k-point 60 :   0.2857 0.1429 0.0000  plane waves:   86183
 k-point 61 :   0.3333 0.1429 0.0000  plane waves:   86209
 k-point 62 :   0.3810 0.1429 0.0000  plane waves:   86191
 k-point 63 :   0.4286 0.1429 0.0000  plane waves:   86194
 k-point 64 :   0.4762 0.1429 0.0000  plane waves:   86180
 k-point 65 :  -0.4762 0.1429 0.0000  plane waves:   86195
 k-point 66 :  -0.4286 0.1429 0.0000  plane waves:   86219
 k-point 67 :  -0.3810 0.1429 0.0000  plane waves:   86209
 k-point 68 :  -0.3333 0.1429 0.0000  plane waves:   86193
 k-point 69 :  -0.2857 0.1429 0.0000  plane waves:   86196
 k-point 70 :  -0.2381 0.1429 0.0000  plane waves:   86206
 k-point 71 :  -0.1905 0.1429 0.0000  plane waves:   86210
 k-point 72 :  -0.1429 0.1429 0.0000  plane waves:   86185
 k-point 73 :  -0.0952 0.1429 0.0000  plane waves:   86245
 k-point 74 :  -0.0476 0.1429 0.0000  plane waves:   86252
 k-point 75 :   0.0000 0.1905 0.0000  plane waves:   86253
 k-point 76 :   0.0476 0.1905 0.0000  plane waves:   86252
 k-point 77 :   0.0952 0.1905 0.0000  plane waves:   86256
 k-point 78 :   0.1429 0.1905 0.0000  plane waves:   86252
 k-point 79 :   0.1905 0.1905 0.0000  plane waves:   86267
 k-point 80 :   0.2381 0.1905 0.0000  plane waves:   86205
 k-point 81 :   0.2857 0.1905 0.0000  plane waves:   86208
 k-point 82 :   0.3333 0.1905 0.0000  plane waves:   86209
 k-point 83 :   0.3810 0.1905 0.0000  plane waves:   86215
 k-point 84 :   0.4286 0.1905 0.0000  plane waves:   86180
 k-point 85 :   0.4762 0.1905 0.0000  plane waves:   86161
 k-point 86 :  -0.4762 0.1905 0.0000  plane waves:   86224
 k-point 87 :  -0.4286 0.1905 0.0000  plane waves:   86217
 k-point 88 :  -0.3810 0.1905 0.0000  plane waves:   86212
 k-point 89 :  -0.3333 0.1905 0.0000  plane waves:   86211
 k-point 90 :  -0.2857 0.1905 0.0000  plane waves:   86174
 k-point 91 :  -0.2381 0.1905 0.0000  plane waves:   86186
 k-point 92 :  -0.1905 0.1905 0.0000  plane waves:   86217
 k-point 93 :  -0.1429 0.1905 0.0000  plane waves:   86220
 k-point 94 :  -0.0952 0.1905 0.0000  plane waves:   86181
 k-point 95 :  -0.0476 0.1905 0.0000  plane waves:   86213
 k-point 96 :   0.0000 0.2381 0.0000  plane waves:   86227
 k-point 97 :   0.0476 0.2381 0.0000  plane waves:   86213
 k-point 98 :   0.0952 0.2381 0.0000  plane waves:   86245
 k-point 99 :   0.1429 0.2381 0.0000  plane waves:   86247
 k-point ** :   0.1905 0.2381 0.0000  plane waves:   86216
 k-point ** :   0.2381 0.2381 0.0000  plane waves:   86227
 k-point ** :   0.2857 0.2381 0.0000  plane waves:   86209
 k-point ** :   0.3333 0.2381 0.0000  plane waves:   86173
 k-point ** :   0.3810 0.2381 0.0000  plane waves:   86191
 k-point ** :   0.4286 0.2381 0.0000  plane waves:   86180
 k-point ** :   0.4762 0.2381 0.0000  plane waves:   86171
 k-point ** :  -0.4762 0.2381 0.0000  plane waves:   86222
 k-point ** :  -0.4286 0.2381 0.0000  plane waves:   86226
 k-point ** :  -0.3810 0.2381 0.0000  plane waves:   86244
 k-point ** :  -0.3333 0.2381 0.0000  plane waves:   86242
 k-point ** :  -0.2857 0.2381 0.0000  plane waves:   86228
 k-point ** :  -0.2381 0.2381 0.0000  plane waves:   86179
 k-point ** :  -0.1905 0.2381 0.0000  plane waves:   86183
 k-point ** :  -0.1429 0.2381 0.0000  plane waves:   86218
 k-point ** :  -0.0952 0.2381 0.0000  plane waves:   86171
 k-point ** :  -0.0476 0.2381 0.0000  plane waves:   86219
 k-point ** :   0.0000 0.2857 0.0000  plane waves:   86219
 k-point ** :   0.0476 0.2857 0.0000  plane waves:   86219
 k-point ** :   0.0952 0.2857 0.0000  plane waves:   86181
 k-point ** :   0.1429 0.2857 0.0000  plane waves:   86185
 k-point ** :   0.1905 0.2857 0.0000  plane waves:   86195
 k-point ** :   0.2381 0.2857 0.0000  plane waves:   86203
 k-point ** :   0.2857 0.2857 0.0000  plane waves:   86214
 k-point ** :   0.3333 0.2857 0.0000  plane waves:   86197
 k-point ** :   0.3810 0.2857 0.0000  plane waves:   86209
 k-point ** :   0.4286 0.2857 0.0000  plane waves:   86194
 k-point ** :   0.4762 0.2857 0.0000  plane waves:   86161
 k-point ** :  -0.4762 0.2857 0.0000  plane waves:   86222
 k-point ** :  -0.4286 0.2857 0.0000  plane waves:   86239
 k-point ** :  -0.3810 0.2857 0.0000  plane waves:   86218
 k-point ** :  -0.3333 0.2857 0.0000  plane waves:   86226
 k-point ** :  -0.2857 0.2857 0.0000  plane waves:   86243
 k-point ** :  -0.2381 0.2857 0.0000  plane waves:   86236
 k-point ** :  -0.1905 0.2857 0.0000  plane waves:   86165
 k-point ** :  -0.1429 0.2857 0.0000  plane waves:   86197
 k-point ** :  -0.0952 0.2857 0.0000  plane waves:   86206
 k-point ** :  -0.0476 0.2857 0.0000  plane waves:   86201
 k-point ** :   0.0000 0.3333 0.0000  plane waves:   86205
 k-point ** :   0.0476 0.3333 0.0000  plane waves:   86201
 k-point ** :   0.0952 0.3333 0.0000  plane waves:   86171
 k-point ** :   0.1429 0.3333 0.0000  plane waves:   86220
 k-point ** :   0.1905 0.3333 0.0000  plane waves:   86210
 k-point ** :   0.2381 0.3333 0.0000  plane waves:   86167
 k-point ** :   0.2857 0.3333 0.0000  plane waves:   86192
 k-point ** :   0.3333 0.3333 0.0000  plane waves:   86217
 k-point ** :   0.3810 0.3333 0.0000  plane waves:   86210
 k-point ** :   0.4286 0.3333 0.0000  plane waves:   86200
 k-point ** :   0.4762 0.3333 0.0000  plane waves:   86180
 k-point ** :  -0.4762 0.3333 0.0000  plane waves:   86224
 k-point ** :  -0.4286 0.3333 0.0000  plane waves:   86226
 k-point ** :  -0.3810 0.3333 0.0000  plane waves:   86218
 k-point ** :  -0.3333 0.3333 0.0000  plane waves:   86171
 k-point ** :  -0.2857 0.3333 0.0000  plane waves:   86218
 k-point ** :  -0.2381 0.3333 0.0000  plane waves:   86230
 k-point ** :  -0.1905 0.3333 0.0000  plane waves:   86230
 k-point ** :  -0.1429 0.3333 0.0000  plane waves:   86183
 k-point ** :  -0.0952 0.3333 0.0000  plane waves:   86197
 k-point ** :  -0.0476 0.3333 0.0000  plane waves:   86214
 k-point ** :   0.0000 0.3810 0.0000  plane waves:   86184
 k-point ** :   0.0476 0.3810 0.0000  plane waves:   86214
 k-point ** :   0.0952 0.3810 0.0000  plane waves:   86206
 k-point ** :   0.1429 0.3810 0.0000  plane waves:   86218
 k-point ** :   0.1905 0.3810 0.0000  plane waves:   86217
 k-point ** :   0.2381 0.3810 0.0000  plane waves:   86206
 k-point ** :   0.2857 0.3810 0.0000  plane waves:   86204
 k-point ** :   0.3333 0.3810 0.0000  plane waves:   86211
 k-point ** :   0.3810 0.3810 0.0000  plane waves:   86191
 k-point ** :   0.4286 0.3810 0.0000  plane waves:   86200
 k-point ** :   0.4762 0.3810 0.0000  plane waves:   86182
 k-point ** :  -0.4762 0.3810 0.0000  plane waves:   86195
 k-point ** :  -0.4286 0.3810 0.0000  plane waves:   86217
 k-point ** :  -0.3810 0.3810 0.0000  plane waves:   86244
 k-point ** :  -0.3333 0.3810 0.0000  plane waves:   86226
 k-point ** :  -0.2857 0.3810 0.0000  plane waves:   86218
 k-point ** :  -0.2381 0.3810 0.0000  plane waves:   86228
 k-point ** :  -0.1905 0.3810 0.0000  plane waves:   86204
 k-point ** :  -0.1429 0.3810 0.0000  plane waves:   86197
 k-point ** :  -0.0952 0.3810 0.0000  plane waves:   86177
 k-point ** :  -0.0476 0.3810 0.0000  plane waves:   86198
 k-point ** :   0.0000 0.4286 0.0000  plane waves:   86208
 k-point ** :   0.0476 0.4286 0.0000  plane waves:   86198
 k-point ** :   0.0952 0.4286 0.0000  plane waves:   86197
 k-point ** :   0.1429 0.4286 0.0000  plane waves:   86197
 k-point ** :   0.1905 0.4286 0.0000  plane waves:   86183
 k-point ** :   0.2381 0.4286 0.0000  plane waves:   86186
 k-point ** :   0.2857 0.4286 0.0000  plane waves:   86196
 k-point ** :   0.3333 0.4286 0.0000  plane waves:   86186
 k-point ** :   0.3810 0.4286 0.0000  plane waves:   86210
 k-point ** :   0.4286 0.4286 0.0000  plane waves:   86216
 k-point ** :   0.4762 0.4286 0.0000  plane waves:   86221
 k-point ** :  -0.4762 0.4286 0.0000  plane waves:   86212
 k-point ** :  -0.4286 0.4286 0.0000  plane waves:   86219
 k-point ** :  -0.3810 0.4286 0.0000  plane waves:   86212
 k-point ** :  -0.3333 0.4286 0.0000  plane waves:   86242
 k-point ** :  -0.2857 0.4286 0.0000  plane waves:   86243
 k-point ** :  -0.2381 0.4286 0.0000  plane waves:   86230
 k-point ** :  -0.1905 0.4286 0.0000  plane waves:   86204
 k-point ** :  -0.1429 0.4286 0.0000  plane waves:   86202
 k-point ** :  -0.0952 0.4286 0.0000  plane waves:   86219
 k-point ** :  -0.0476 0.4286 0.0000  plane waves:   86209
 k-point ** :   0.0000 0.4762 0.0000  plane waves:   86210
 k-point ** :   0.0476 0.4762 0.0000  plane waves:   86209
 k-point ** :   0.0952 0.4762 0.0000  plane waves:   86177
 k-point ** :   0.1429 0.4762 0.0000  plane waves:   86183
 k-point ** :   0.1905 0.4762 0.0000  plane waves:   86165
 k-point ** :   0.2381 0.4762 0.0000  plane waves:   86179
 k-point ** :   0.2857 0.4762 0.0000  plane waves:   86174
 k-point ** :   0.3333 0.4762 0.0000  plane waves:   86193
 k-point ** :   0.3810 0.4762 0.0000  plane waves:   86202
 k-point ** :   0.4286 0.4762 0.0000  plane waves:   86219
 k-point ** :   0.4762 0.4762 0.0000  plane waves:   86214
 k-point ** :  -0.4762 0.4762 0.0000  plane waves:   86256
 k-point ** :  -0.4286 0.4762 0.0000  plane waves:   86220
 k-point ** :  -0.3810 0.4762 0.0000  plane waves:   86209
 k-point ** :  -0.3333 0.4762 0.0000  plane waves:   86211
 k-point ** :  -0.2857 0.4762 0.0000  plane waves:   86228
 k-point ** :  -0.2381 0.4762 0.0000  plane waves:   86236
 k-point ** :  -0.1905 0.4762 0.0000  plane waves:   86230
 k-point ** :  -0.1429 0.4762 0.0000  plane waves:   86197
 k-point ** :  -0.0952 0.4762 0.0000  plane waves:   86219
 k-point ** :  -0.0476 0.4762 0.0000  plane waves:   86236

 maximum and minimum number of plane-waves per node :     14418    14316

 maximum number of plane-waves:     86289
 maximum index in each direction: 
   IXMAX=   23   IYMAX=   22   IZMAX=   46
   IXMIN=  -23   IYMIN=  -23   IZMIN=  -46


 parallel 3D FFT for wavefunctions:
    minimum data exchange during FFTs selected (reduces bandwidth)
 parallel 3D FFT for charge:
    minimum data exchange during FFTs selected (reduces bandwidth)


 total amount of memory used by VASP MPI-rank0  1926232. kBytes
=======================================================================

   base      :      30000. kBytes
   nonl-proj :     921983. kBytes
   fftplans  :      67907. kBytes
   grid      :      36685. kBytes
   one-center:         77. kBytes
   wavefun   :     869580. kBytes
 
[...]
     49      -4.8099      2.00000
     50      -4.7357      2.00000
     51      -4.7289      2.00000
     52      -4.7004      2.00000
     53      -4.6501      2.00000
     54      -4.4735      2.00000
     55      -4.3661      2.00000
     56      -4.1769      2.00000
     57      -3.9837      2.00000
     58      -3.9299      2.00000
     59      -3.9042      2.00000
     60      -3.8782      2.00000
     61      -3.7478      2.00000
     62      -3.7026      2.00000
     63      -3.6876      2.00000
     64      -3.6489      2.00000
     65      -3.6229      2.00000
     66      -3.6122      2.00000
     67      -3.5502      2.00000
     68      -3.2064      2.00000
     69      -3.0724      2.00000
     70      -3.0303      2.00000
     71      -3.0162      2.00000
     72      -2.9615      2.00000
     73      -2.5893      2.00000
     74      -2.5295      2.00000
     75      -2.5042      2.00000
     76      -2.4331      2.00000
     77      -2.3839      2.00000
     78      -2.3427      2.00000
     79      -2.3002      2.00000
     80      -2.2751      2.00000
     81      -2.2285      2.00000
     82      -0.1461      0.00000
     83      -0.0959      0.00000
     84       0.2400      0.00000
     85       0.2798      0.00000
     86       0.3111      0.00000
     87       0.3234      0.00000
     88       0.4590      0.00000
     89       0.4708      0.00000
     90       0.6446      0.00000
     91       0.6802      0.00000
     92       0.7388      0.00000
     93       0.7520      0.00000
     94       0.7530      0.00000
     95       0.7558      0.00000
     96       0.8695      0.00000
     97       0.8939      0.00000
     98       0.9312      0.00000
     99       1.0036      0.00000
    100       1.0129      0.00000
    101       1.0484      0.00000
    102       1.0800      0.00000

 k-point   221 :      -0.0476    0.4762    0.0000
  band No.  band energies     occupation 
      1     -16.1456      2.00000
      2     -16.1428      2.00000
      3     -15.5403      2.00000
      4     -15.3636      2.00000
      5     -15.1444      2.00000
      6     -15.1420      2.00000
      7     -14.8149      2.00000
      8     -14.7199      2.00000
      9     -14.6042      2.00000
     10     -14.6029      2.00000
     11     -14.5417      2.00000
     12     -14.5405      2.00000
     13     -14.5351      2.00000
     14     -14.3213      2.00000
     15     -14.3203      2.00000
     16     -14.3045      2.00000
     17     -14.2919      2.00000
     18     -14.2911      2.00000
     19      -8.1382      2.00000
     20      -7.6402      2.00000
     21      -7.6398      2.00000
     22      -7.4896      2.00000
     23      -7.4877      2.00000
     24      -7.4845      2.00000
     25      -7.4845      2.00000
     26      -6.9492      2.00000
     27      -6.8369      2.00000
     28      -6.8356      2.00000
     29      -6.8073      2.00000
     30      -6.7347      2.00000
     31      -6.7332      2.00000
     32      -6.7266      2.00000
     33      -6.3036      2.00000
     34      -6.1691      2.00000
     35      -5.9638      2.00000
     36      -5.8645      2.00000
     37      -5.8636      2.00000
     38      -5.8625      2.00000
     39      -5.8609      2.00000
     40      -5.5872      2.00000
     41      -5.3562      2.00000
     42      -5.1306      2.00000
     43      -5.1297      2.00000
     44      -5.1275      2.00000
     45      -5.1265      2.00000
     46      -5.0660      2.00000
     47      -5.0651      2.00000
     48      -5.0272      2.00000
     49      -4.8497      2.00000
     50      -4.7518      2.00000
     51      -4.7506      2.00000
     52      -4.7206      2.00000
     53      -4.5088      2.00000
     54      -4.5080      2.00000
     55      -4.3603      2.00000
     56      -4.3592      2.00000
     57      -3.9878      2.00000
     58      -3.8562      2.00000
     59      -3.8551      2.00000
     60      -3.8336      2.00000
     61      -3.7718      2.00000
     62      -3.7707      2.00000
     63      -3.6715      2.00000
     64      -3.6576      2.00000
     65      -3.6566      2.00000
     66      -3.5414      2.00000
     67      -3.5373      2.00000
     68      -3.1534      2.00000
     69      -3.0847      2.00000
     70      -3.0815      2.00000
     71      -3.0646      2.00000
     72      -2.8473      2.00000
     73      -2.5827      2.00000
     74      -2.5705      2.00000
     75      -2.5502      2.00000
     76      -2.4054      2.00000
     77      -2.4036      2.00000
     78      -2.3027      2.00000
     79      -2.3017      2.00000
     80      -2.2667      2.00000
     81      -2.2655      2.00000
     82      -0.1546      0.00000
     83      -0.1276      0.00000
     84       0.2866      0.00000
     85       0.2892      0.00000
     86       0.3425      0.00000
     87       0.3435      0.00000
     88       0.4282      0.00000
     89       0.4291      0.00000
     90       0.6592      0.00000
     91       0.6847      0.00000
     92       0.7156      0.00000
     93       0.7653      0.00000
     94       0.7686      0.00000
     95       0.7709      0.00000
     96       0.8489      0.00000
     97       0.9147      0.00000
     98       0.9176      0.00000
     99       1.0074      0.00000
    100       1.0406      0.00000
    101       1.0455      0.00000
    102       1.0804      0.00000


--------------------------------------------------------------------------------------------------------


 soft charge-density along one line, spin component           1
         0         1         2         3         4         5         6         7         8         9
 total charge-density along one line
 
 pseudopotential strength for first ion, spin component:           1
 -8.649   0.000   0.000  -0.000   0.000  -0.032  -0.000   0.000
  0.000  -8.648  -0.000  -0.000   0.000  -0.000  -0.032  -0.000
  0.000  -0.000  -8.633  -0.000   0.000   0.000  -0.000  -0.031
 -0.000  -0.000  -0.000  -8.648  -0.000  -0.000  -0.000  -0.000
  0.000   0.000   0.000  -0.000  -8.650   0.000   0.000   0.000
 -0.032  -0.000   0.000  -0.000   0.000   0.071   0.000   0.000
 -0.000  -0.032  -0.000  -0.000   0.000   0.000   0.071  -0.000
  0.000  -0.000  -0.031  -0.000   0.000   0.000  -0.000   0.071
 -0.000  -0.000  -0.000  -0.032  -0.000  -0.000  -0.000  -0.000
  0.000   0.000   0.000  -0.000  -0.032   0.000   0.000   0.000
  0.000   0.000  -0.002   0.000   0.000   0.000   0.000  -0.000
 -0.000  -0.000   0.000  -0.000  -0.000  -0.000  -0.000   0.000
  0.000   0.000   0.000  -0.000   0.007  -0.000  -0.000  -0.000
 -0.000  -0.000   0.000  -0.000  -0.000   0.000   0.000  -0.000
  0.007  -0.000   0.000  -0.000  -0.000  -0.000   0.000  -0.000
 -0.000  -0.000   0.000   0.000  -0.003   0.000   0.000   0.000
  0.000  -0.000   0.000   0.000   0.000  -0.000  -0.000   0.000
 -0.003   0.000   0.000   0.000   0.000   0.000  -0.000   0.000
 total augmentation occupancy for first ion, spin component:           1
  0.919   0.000   0.000  -0.000   0.000  -0.526   0.000  -0.000  -0.000   0.000  -0.000  -0.000  -0.000   0.000   0.050   0.000
  0.000   0.881  -0.000  -0.000   0.000   0.000  -0.726  -0.000  -0.000   0.000   0.000   0.000   0.000  -0.000  -0.000   0.000
  0.000  -0.000   0.963  -0.000   0.001  -0.000  -0.000  -0.483  -0.000  -0.000   0.088  -0.021  -0.000   0.000  -0.000   0.000
 -0.000  -0.000  -0.000   0.881  -0.000  -0.000  -0.000  -0.000  -0.727  -0.001   0.000   0.000   0.000  -0.000  -0.000  -0.000
  0.000   0.000   0.001  -0.000   0.919   0.000   0.000  -0.000  -0.001  -0.527  -0.000   0.000   0.050   0.000   0.000   0.000
 -0.526   0.000  -0.000  -0.000   0.000   0.528  -0.001  -0.000   0.000  -0.000  -0.000   0.000  -0.000   0.000  -0.108   0.000
  0.000  -0.726  -0.000  -0.000   0.000  -0.001   0.849   0.000   0.001  -0.000  -0.000   0.000  -0.000   0.001   0.000   0.000
 -0.000  -0.000  -0.483  -0.000  -0.000  -0.000   0.000   0.424   0.000   0.000  -0.079   0.037   0.000  -0.000   0.000  -0.000
 -0.000  -0.000  -0.000  -0.727  -0.001   0.000   0.001   0.000   0.851   0.001  -0.000   0.000   0.000   0.000   0.000  -0.000
  0.000   0.000  -0.000  -0.001  -0.527  -0.000  -0.000   0.000   0.001   0.529  -0.000   0.000  -0.108   0.000   0.000   0.009
 -0.000   0.000   0.088   0.000  -0.000  -0.000  -0.000  -0.079  -0.000  -0.000   1.102  -0.280  -0.000   0.000   0.000   0.000
 -0.000   0.000  -0.021   0.000   0.000   0.000   0.000   0.037   0.000   0.000  -0.280   0.117   0.000  -0.000   0.000  -0.000
 -0.000   0.000  -0.000   0.000   0.050  -0.000  -0.000   0.000   0.000  -0.108  -0.000   0.000   0.227   0.000   0.000  -0.018
  0.000  -0.000   0.000  -0.000   0.000   0.000   0.001  -0.000   0.000   0.000   0.000  -0.000   0.000   0.276   0.000  -0.000
  0.050  -0.000  -0.000  -0.000   0.000  -0.108   0.000   0.000   0.000   0.000   0.000   0.000   0.000   0.000   0.227  -0.000
  0.000   0.000   0.000  -0.000   0.000   0.000   0.000  -0.000  -0.000   0.009   0.000  -0.000  -0.018  -0.000  -0.000   0.002
 -0.000   0.000  -0.000  -0.000  -0.000  -0.000  -0.000   0.000  -0.000  -0.000  -0.000   0.000  -0.000  -0.021  -0.000   0.000
  0.000   0.000   0.000  -0.000  -0.000   0.009  -0.000  -0.000  -0.000  -0.000  -0.000  -0.000  -0.000  -0.000  -0.018   0.000


------------------------ aborting loop because EDIFF is reached ----------------------------------------


    CHARGE:  cpu time   14.1148: real time   14.1485
    FORLOC:  cpu time    0.0577: real time    0.0579
    FORNL :  cpu time   99.4136: real time   99.6529
    STRESS:  cpu time  210.2069: real time  210.7140
    FORCOR:  cpu time    0.2233: real time    0.2238
    FORHAR:  cpu time    0.0812: real time    0.0814
    MIXING:  cpu time    0.0114: real time    0.0115
    OFIELD:  cpu time    0.0000: real time    0.0000

  FORCE on cell =-STRESS in cart. coord.  units (eV):
  Direction    XX          YY          ZZ          XY          YZ          ZX
  --------------------------------------------------------------------------------------
  Alpha Z   206.49013   206.49013   206.49013
  Ewald   24333.06537 24333.00568-29241.66539     0.24456    -0.29428    -0.17494
  Hartree 25252.32142 25252.46340-25019.23014     0.04075    -0.02368    -0.01419
  E(xc)    -642.47190  -642.48084  -650.09621    -0.00332     0.01081     0.00636
  Local  -51732.79046-51733.02342 52094.89539    -0.25692     0.29667     0.17590
  n-local   625.36554   625.28527   674.08499     0.01943    -0.05779    -0.03406
  augment   -25.08386   -25.07495   -31.55744    -0.00028     0.00473     0.00267
  Kinetic  1991.43155  1991.95659  1967.07204    -0.02635    -0.05925    -0.03396
  Fock        0.00000     0.00000     0.00000     0.00000     0.00000     0.00000
  -------------------------------------------------------------------------------------
  Total       8.32778     8.62187    -0.00663     0.01787    -0.12278    -0.07222
  in kB       7.95128     8.23207    -0.00633     0.01706    -0.11723    -0.06895
  external pressure =        5.39 kB  Pullay stress =        0.00 kB


 VOLUME and BASIS-vectors are now :
 -----------------------------------------------------------------------------
  energy-cutoff  :      800.00
  volume of cell :     1678.04
      direct lattice vectors                 reciprocal lattice vectors
     9.846000000  0.000000000  0.000000000     0.101564087 -0.058675529  0.000000000
     4.923000000  8.521440000  0.000000000     0.000000000  0.117351058  0.000000000
     0.000000000  0.000000000 20.000000000     0.000000000  0.000000000  0.050000000

  length of vectors
     9.846000000  9.841283894 20.000000000     0.117294848  0.117351058  0.050000000


 FORCES acting on ions
    electron-ion (+dipol)            ewald-force                    non-local-force                 convergence-correction
 -----------------------------------------------------------------------------------------------
   -.141E+00 -.299E+00 0.155E-02   0.142E+00 0.301E+00 -.155E-02   -.668E-02 -.118E-01 -.687E-04   -.214E-06 0.580E-06 -.107E-05
   0.577E-01 -.660E-01 -.626E-02   -.577E-01 0.658E-01 0.649E-02   -.395E-03 -.409E-03 -.661E-03   0.826E-06 0.359E-06 -.759E-06
   0.243E+00 -.767E-01 -.394E+00   -.253E+00 0.724E-01 0.405E+00   -.246E-01 -.223E-01 0.198E-01   -.616E-06 -.451E-06 -.739E-06
   0.109E+00 -.701E-02 0.575E-01   -.110E+00 0.784E-02 -.588E-01   -.159E-02 -.261E-03 0.181E-03   -.262E-08 0.399E-07 -.888E-06
   -.168E-01 -.787E-01 0.377E-04   0.179E-01 0.810E-01 -.263E-04   0.982E-03 0.117E-02 -.159E-04   -.406E-06 -.117E-05 -.720E-06
   -.142E+00 0.147E+00 0.393E+00   0.143E+00 -.158E+00 -.403E+00   -.664E-02 -.322E-01 -.195E-01   0.414E-06 -.402E-06 -.123E-05
   -.162E-01 0.642E-01 -.581E-01   0.173E-01 -.649E-01 0.594E-01   0.921E-03 -.173E-02 -.198E-03   -.130E-05 0.259E-06 -.727E-06
   -.433E-01 -.968E-02 0.626E-02   0.428E-01 0.974E-02 -.647E-02   0.395E-03 -.752E-03 0.661E-03   0.529E-06 0.252E-06 -.111E-05
   0.585E-01 0.486E-01 -.179E-03   -.586E-01 -.482E-01 0.195E-03   -.552E-03 -.120E-02 -.469E-05   0.784E-06 0.529E-06 -.927E-06
   -.479E+00 -.797E+00 0.498E+03   0.500E+00 0.834E+00 -.500E+03   0.355E-01 0.595E-01 0.260E+01   0.859E-07 -.144E-06 -.558E-05
   0.166E+00 -.740E-01 0.498E+03   -.170E+00 0.768E-01 -.500E+03   -.142E-02 -.200E-02 0.260E+01   -.239E-06 0.297E-06 -.552E-05
   0.166E+00 -.754E-01 0.498E+03   -.169E+00 0.775E-01 -.500E+03   -.153E-02 -.166E-02 0.260E+01   0.145E-06 -.941E-07 -.499E-05
   0.166E+00 0.313E+00 0.498E+03   -.168E+00 -.317E+00 -.500E+03   -.173E-02 -.331E-02 0.260E+01   0.282E-06 0.811E-10 -.549E-05
   0.316E-01 0.809E-01 0.498E+03   -.317E-01 -.802E-01 -.500E+03   0.209E-03 -.555E-03 0.260E+01   -.386E-06 -.529E-06 -.492E-05
   -.172E+00 0.120E+00 0.498E+03   0.174E+00 -.121E+00 -.500E+03   0.196E-03 -.264E-02 0.260E+01   0.114E-06 -.584E-06 -.528E-05
   0.166E+00 0.315E+00 0.498E+03   -.169E+00 -.319E+00 -.500E+03   -.114E-02 -.369E-02 0.260E+01   -.488E-06 0.214E-06 -.501E-05
   -.171E+00 0.118E+00 0.498E+03   0.174E+00 -.119E+00 -.500E+03   -.207E-03 -.266E-02 0.260E+01   -.227E-06 0.721E-06 -.534E-05
   0.316E-01 0.806E-01 0.498E+03   -.316E-01 -.796E-01 -.500E+03   0.118E-03 -.756E-03 0.260E+01   0.700E-06 0.131E-06 -.536E-05
   -.552E-01 -.673E-01 -.498E+03   0.564E-01 0.703E-01 0.500E+03   0.122E-03 -.848E-03 -.260E+01   -.100E-06 -.329E-06 0.482E-05
   0.236E-01 0.154E-02 -.498E+03   -.243E-01 -.591E-03 0.500E+03   0.823E-03 0.121E-03 -.260E+01   0.466E-07 0.351E-06 0.484E-05
   0.237E-01 0.200E-02 -.498E+03   -.235E-01 -.807E-03 0.500E+03   -.162E-02 0.809E-03 -.260E+01   0.481E-07 -.945E-07 0.446E-05
   0.229E-01 0.676E-01 -.498E+03   -.233E-01 -.669E-01 0.500E+03   -.937E-03 -.127E-02 -.260E+01   0.552E-06 0.128E-06 0.477E-05
   0.120E-01 0.466E-01 -.498E+03   -.120E-01 -.456E-01 0.500E+03   -.171E-03 -.122E-02 -.260E+01   -.356E-06 -.567E-06 0.441E-05
   -.342E-01 0.348E-01 -.498E+03   0.343E-01 -.336E-01 0.500E+03   0.233E-02 -.148E-02 -.260E+01   -.188E-06 -.696E-06 0.456E-05
   0.232E-01 0.666E-01 -.498E+03   -.232E-01 -.660E-01 0.500E+03   0.255E-03 -.195E-02 -.260E+01   -.483E-06 0.222E-06 0.442E-05
   -.334E-01 0.327E-01 -.498E+03   0.337E-01 -.322E-01 0.500E+03   0.495E-03 0.339E-03 -.260E+01   -.412E-06 0.618E-06 0.468E-05
   0.115E-01 0.460E-01 -.498E+03   -.115E-01 -.452E-01 0.500E+03   -.607E-04 -.106E-02 -.260E+01   0.867E-06 0.372E-06 0.467E-05
 -----------------------------------------------------------------------------------------------
   0.694E-02 0.338E-01 0.553E-03   -.542E-14 -.725E-13 -.568E-13   -.694E-02 -.338E-01 -.541E-03   -.231E-07 0.158E-07 -.140E-04
 
 
 POSITION                                       TOTAL-FORCE (eV/Angst)
 -----------------------------------------------------------------------------------
      3.28200      0.00057      0.00000        -0.005672     -0.009651     -0.000065
      6.56400      0.00057      0.00000        -0.000418     -0.000618     -0.000432
      9.84600      0.00057      0.00000        -0.035018     -0.026657      0.030712
      4.92300      2.84105      0.00000        -0.003051      0.000571     -0.001049
      8.20500      2.84105      0.00000         0.002106      0.003498     -0.000005
     11.48700      2.84105      0.00000        -0.005676     -0.042629     -0.029719
      6.56400      5.68153      0.00000         0.002045     -0.002403      0.001065
      9.84600      5.68153      0.00000        -0.000090     -0.000701      0.000448
     13.12800      5.68153      0.00000        -0.000622     -0.000880      0.000010
      1.63600      0.93849     18.30918         0.056827      0.097111     -0.000963
      4.92300      0.94715     18.30918        -0.004832      0.000763     -0.000627
      8.20500      0.94715     18.30918        -0.004220      0.000429      0.000626
      3.28200      3.78763     18.30918        -0.004110     -0.007886     -0.001202
      6.56400      3.78763     18.30918         0.000060      0.000212      0.000017
      9.84600      3.78763     18.30918         0.002471     -0.003429     -0.000529
      4.92300      6.62810     18.30918        -0.004803     -0.007694      0.001287
      8.20500      6.62810     18.30918         0.003046     -0.003704      0.000700
     11.48700      6.62810     18.30918         0.000116      0.000243      0.000083
      1.64100      0.94715      1.69082         0.001323      0.002182     -0.000046
      4.92300      0.94715      1.69082         0.000142      0.001072      0.000431
      8.20500      0.94715      1.69082        -0.001416      0.001995      0.002027
      3.28200      3.78763      1.69082        -0.001336     -0.000564     -0.001616
      6.56400      3.78763      1.69082        -0.000183     -0.000222     -0.000013
      9.84600      3.78763      1.69082         0.002390     -0.000200     -0.002100
      4.92300      6.62810      1.69082         0.000256     -0.001429      0.001559
      8.20500      6.62810      1.69082         0.000796      0.000782     -0.000523
     11.48700      6.62810      1.69082        -0.000132     -0.000188     -0.000079
 -----------------------------------------------------------------------------------
    total drift:                                0.000001      0.000048     -0.000001


--------------------------------------------------------------------------------------------------------



  FREE ENERGIE OF THE ION-ELECTRON SYSTEM (eV)
  ---------------------------------------------------
  free  energy   TOTEN  =      -194.69123888 eV

  energy  without entropy=     -194.69123888  energy(sigma->0) =     -194.69123888
 


--------------------------------------------------------------------------------------------------------


    POTLOK:  cpu time    0.3837: real time    0.3847


--------------------------------------------------------------------------------------------------------


     LOOP+:  cpu time10890.6939: real time10918.0082
    4ORBIT:  cpu time    0.0000: real time    0.0000

 total amount of memory used by VASP MPI-rank0  1926232. kBytes
=======================================================================

   base      :      30000. kBytes
   nonl-proj :     921983. kBytes
   fftplans  :      67907. kBytes
   grid      :      36685. kBytes
   one-center:         77. kBytes
   wavefun   :     869580. kBytes
 
  
  
 General timing and accounting informations for this job:
 ========================================================
  
                  Total CPU time used (sec):    11020.975
                            User time (sec):    10986.452
                          System time (sec):       34.522
                         Elapsed time (sec):    11049.174
  
                   Maximum memory used (kb):     2156728.
                   Average memory used (kb):           0.
  
                          Minor page faults:       755279
                          Major page faults:            0
                 Voluntary context switches:         9495
