<?xml version="1.0" encoding="ISO-8859-1"?>
<modeling>
 <generator>
  <i name="program" type="string">vasp </i>
  <i name="version" type="string">5.4.4.18Apr17-6-g9f103f2a35  </i>
  <i name="subversion" type="string">(build May 31 2018 21:15:54) complex            parallel </i>
  <i name="platform" type="string">c7_intel_O1 </i>
  <i name="date" type="string">2020 08 12 </i>
  <i name="time" type="string">21:18:52 </i>
 </generator>
 <incar>
  <i type="string" name="SYSTEM"> W-1, se-2</i>
  <i type="int" name="ISTART">     0</i>
  <i type="string" name="PREC">accurate</i>
  <i type="string" name="ALGO"> N</i>
  <i type="logical" name="ADDGRID"> T  </i>
  <i name="AMIN">      0.01000000</i>
  <i type="int" name="ICHARG">     2</i>
  <i type="int" name="NELMIN">     5</i>
  <i type="int" name="IBRION">    -1</i>
  <i name="EDIFF">      0.00000001</i>
  <i name="EDIFFG">     -0.00000001</i>
  <i type="int" name="NSW">     0</i>
  <i name="SYMPREC">      0.00010000</i>
  <i name="ENCUT">    800.00000000</i>
  <i type="logical" name="LREAL"> F  </i>
  <i type="int" name="ISMEAR">     0</i>
  <i name="SIGMA">      0.01000000</i>
  <i type="logical" name="LWAVE"> F  </i>
  <i type="logical" name="LCHARG"> F  </i>
  <v type="int" name="KPOINT_BSE">    -1     0     0     0</v>
 </incar>
 <structure name="primitive_cell" >
  <crystal>
   <varray name="basis" >
    <v>       9.84600000       0.00000000       0.00000000 </v>
    <v>       4.92300000       8.52144000       0.00000000 </v>
    <v>       0.00000000       0.00000000      20.00000000 </v>
   </varray>
   <i name="volume">   1678.04196480 </i>
   <varray name="rec_basis" >
    <v>       0.10156409      -0.05867553       0.00000000 </v>
    <v>       0.00000000       0.11735106       0.00000000 </v>
    <v>       0.00000000       0.00000000       0.05000000 </v>
   </varray>
  </crystal>
  <varray name="positions" >
   <v>       0.33330000       0.00006700       0.00000000 </v>
   <v>       0.44442600      -0.22218500      -0.08454100 </v>
   <v>       0.44442600      -0.22218500       0.08454100 </v>
   <v>       0.44442600       0.11114900      -0.08454100 </v>
   <v>       0.44442600       0.11114900       0.08454100 </v>
   <v>       0.11109200       0.11114900       0.08454100 </v>
   <v>       0.11109200       0.11013300      -0.08454100 </v>
   <v>       0.33330000       0.33340000       0.00000000 </v>
   <v>      -0.00003300       0.33340000       0.00000000 </v>
   <v>      -0.33336700      -0.33326700       0.00000000 </v>
   <v>       0.33330000      -0.33326700       0.00000000 </v>
   <v>      -0.33336700       0.00006700       0.00000000 </v>
   <v>      -0.00003300       0.00006700       0.00000000 </v>
   <v>       0.11109200       0.44448200      -0.08454100 </v>
   <v>       0.11109200       0.44448200       0.08454100 </v>
   <v>      -0.22224100      -0.22218500      -0.08454100 </v>
   <v>      -0.22224100      -0.22218500       0.08454100 </v>
   <v>       0.11109200      -0.22218500      -0.08454100 </v>
   <v>       0.11109200      -0.22218500       0.08454100 </v>
   <v>       0.44442600       0.44448200      -0.08454100 </v>
   <v>      -0.22224100       0.44448200      -0.08454100 </v>
   <v>       0.44442600       0.44448200       0.08454100 </v>
   <v>      -0.22224100       0.44448200       0.08454100 </v>
   <v>      -0.22224100       0.11114900      -0.08454100 </v>
   <v>      -0.22224100       0.11114900       0.08454100 </v>
   <v>      -0.00003300      -0.33326700       0.00000000 </v>
   <v>      -0.33336700       0.33340000       0.00000000 </v>
  </varray>
 </structure>
 <varray name="primitive_index" >
  <v type="int" >        1 </v>
  <v type="int" >       17 </v>
  <v type="int" >       26 </v>
  <v type="int" >       11 </v>
  <v type="int" >       20 </v>
  <v type="int" >       19 </v>
  <v type="int" >       10 </v>
  <v type="int" >        4 </v>
  <v type="int" >        6 </v>
  <v type="int" >        8 </v>
  <v type="int" >        7 </v>
  <v type="int" >        2 </v>
  <v type="int" >        3 </v>
  <v type="int" >       13 </v>
  <v type="int" >       22 </v>
  <v type="int" >       18 </v>
  <v type="int" >       27 </v>
  <v type="int" >       16 </v>
  <v type="int" >       25 </v>
  <v type="int" >       14 </v>
  <v type="int" >       15 </v>
  <v type="int" >       23 </v>
  <v type="int" >       24 </v>
  <v type="int" >       12 </v>
  <v type="int" >       21 </v>
  <v type="int" >        9 </v>
  <v type="int" >        5 </v>
 </varray>
 <kpoints>
  <generation param="Gamma">
   <v type="int" name="divisions">      21       21        1 </v>
   <v name="usershift">      0.00000000       0.00000000       0.00000000 </v>
   <v name="genvec1">      0.04761905      -0.00000000       0.00000000 </v>
   <v name="genvec2">      0.00000000       0.04761905       0.00000000 </v>
   <v name="genvec3">      0.00000000       0.00000000       1.00000000 </v>
   <v name="shift">      0.00000000       0.00000000       0.00000000 </v>
  </generation>
  <varray name="kpointlist" >
   <v>       0.00000000       0.00000000       0.00000000 </v>
   <v>       0.04761905       0.00000000       0.00000000 </v>
   <v>       0.09523810       0.00000000       0.00000000 </v>
   <v>       0.14285714       0.00000000       0.00000000 </v>
   <v>       0.19047619       0.00000000       0.00000000 </v>
   <v>       0.23809524       0.00000000       0.00000000 </v>
   <v>       0.28571429       0.00000000       0.00000000 </v>
   <v>       0.33333333       0.00000000       0.00000000 </v>
   <v>       0.38095238       0.00000000       0.00000000 </v>
   <v>       0.42857143       0.00000000       0.00000000 </v>
   <v>       0.47619048       0.00000000       0.00000000 </v>
   <v>       0.00000000       0.04761905       0.00000000 </v>
   <v>       0.04761905       0.04761905       0.00000000 </v>
   <v>       0.09523810       0.04761905       0.00000000 </v>
   <v>       0.14285714       0.04761905       0.00000000 </v>
   <v>       0.19047619       0.04761905       0.00000000 </v>
   <v>       0.23809524       0.04761905       0.00000000 </v>
   <v>       0.28571429       0.04761905       0.00000000 </v>
   <v>       0.33333333       0.04761905       0.00000000 </v>
   <v>       0.38095238       0.04761905       0.00000000 </v>
   <v>       0.42857143       0.04761905       0.00000000 </v>
   <v>       0.47619048       0.04761905       0.00000000 </v>
   <v>      -0.47619048       0.04761905       0.00000000 </v>
   <v>      -0.42857143       0.04761905       0.00000000 </v>
   <v>      -0.38095238       0.04761905       0.00000000 </v>
   <v>      -0.33333333       0.04761905       0.00000000 </v>
   <v>      -0.28571429       0.04761905       0.00000000 </v>
   <v>      -0.23809524       0.04761905       0.00000000 </v>
   <v>      -0.19047619       0.04761905       0.00000000 </v>
   <v>      -0.14285714       0.04761905       0.00000000 </v>
   <v>      -0.09523810       0.04761905       0.00000000 </v>
   <v>      -0.04761905       0.04761905       0.00000000 </v>
   <v>       0.00000000       0.09523810       0.00000000 </v>
   <v>       0.04761905       0.09523810       0.00000000 </v>
   <v>       0.09523810       0.09523810       0.00000000 </v>
   <v>       0.14285714       0.09523810       0.00000000 </v>
   <v>       0.19047619       0.09523810       0.00000000 </v>
   <v>       0.23809524       0.09523810       0.00000000 </v>
   <v>       0.28571429       0.09523810       0.00000000 </v>
   <v>       0.33333333       0.09523810       0.00000000 </v>
   <v>       0.38095238       0.09523810       0.00000000 </v>
   <v>       0.42857143       0.09523810       0.00000000 </v>
   <v>       0.47619048       0.09523810       0.00000000 </v>
   <v>      -0.47619048       0.09523810       0.00000000 </v>
   <v>      -0.42857143       0.09523810       0.00000000 </v>
   <v>      -0.38095238       0.09523810       0.00000000 </v>
   <v>      -0.33333333       0.09523810       0.00000000 </v>
   <v>      -0.28571429       0.09523810       0.00000000 </v>
   <v>      -0.23809524       0.09523810       0.00000000 </v>
   <v>      -0.19047619       0.09523810       0.00000000 </v>
   <v>      -0.14285714       0.09523810       0.00000000 </v>
   <v>      -0.09523810       0.09523810       0.00000000 </v>
   <v>      -0.04761905       0.09523810       0.00000000 </v>
   <v>       0.00000000       0.14285714       0.00000000 </v>
   <v>       0.04761905       0.14285714       0.00000000 </v>
   <v>       0.09523810       0.14285714       0.00000000 </v>
   <v>       0.14285714       0.14285714       0.00000000 </v>
   <v>       0.19047619       0.14285714       0.00000000 </v>
   <v>       0.23809524       0.14285714       0.00000000 </v>
   <v>       0.28571429       0.14285714       0.00000000 </v>
   <v>       0.33333333       0.14285714       0.00000000 </v>
   <v>       0.38095238       0.14285714       0.00000000 </v>
   <v>       0.42857143       0.14285714       0.00000000 </v>
   <v>       0.47619048       0.14285714       0.00000000 </v>
   <v>      -0.47619048       0.14285714       0.00000000 </v>
   <v>      -0.42857143       0.14285714       0.00000000 </v>
   <v>      -0.38095238       0.14285714       0.00000000 </v>
   <v>      -0.33333333       0.14285714       0.00000000 </v>
   <v>      -0.28571429       0.14285714       0.00000000 </v>
   <v>      -0.23809524       0.14285714       0.00000000 </v>
   <v>      -0.19047619       0.14285714       0.00000000 </v>
   <v>      -0.14285714       0.14285714       0.00000000 </v>
   <v>      -0.09523810       0.14285714       0.00000000 </v>
   <v>      -0.04761905       0.14285714       0.00000000 </v>
   <v>       0.00000000       0.19047619       0.00000000 </v>
   <v>       0.04761905       0.19047619       0.00000000 </v>
   <v>       0.09523810       0.19047619       0.00000000 </v>
   <v>       0.14285714       0.19047619       0.00000000 </v>
   <v>       0.19047619       0.19047619       0.00000000 </v>
   <v>       0.23809524       0.19047619       0.00000000 </v>
   <v>       0.28571429       0.19047619       0.00000000 </v>
   <v>       0.33333333       0.19047619       0.00000000 </v>
   <v>       0.38095238       0.19047619       0.00000000 </v>
   <v>       0.42857143       0.19047619       0.00000000 </v>
   <v>       0.47619048       0.19047619       0.00000000 </v>
   <v>      -0.47619048       0.19047619       0.00000000 </v>
   <v>      -0.42857143       0.19047619       0.00000000 </v>
   <v>      -0.38095238       0.19047619       0.00000000 </v>
   <v>      -0.33333333       0.19047619       0.00000000 </v>
   <v>      -0.28571429       0.19047619       0.00000000 </v>
   <v>      -0.23809524       0.19047619       0.00000000 </v>
   <v>      -0.19047619       0.19047619       0.00000000 </v>
   <v>      -0.14285714       0.19047619       0.00000000 </v>
   <v>      -0.09523810       0.19047619       0.00000000 </v>
   <v>      -0.04761905       0.19047619       0.00000000 </v>
   <v>       0.00000000       0.23809524       0.00000000 </v>
   <v>       0.04761905       0.23809524       0.00000000 </v>
   <v>       0.09523810       0.23809524       0.00000000 </v>
   <v>       0.14285714       0.23809524       0.00000000 </v>
   <v>       0.19047619       0.23809524       0.00000000 </v>
   <v>       0.23809524       0.23809524       0.00000000 </v>
   <v>       0.28571429       0.23809524       0.00000000 </v>
   <v>       0.33333333       0.23809524       0.00000000 </v>
   <v>       0.38095238       0.23809524       0.00000000 </v>
   <v>       0.42857143       0.23809524       0.00000000 </v>
   <v>       0.47619048       0.23809524       0.00000000 </v>
   <v>      -0.47619048       0.23809524       0.00000000 </v>
   <v>      -0.42857143       0.23809524       0.00000000 </v>
   <v>      -0.38095238       0.23809524       0.00000000 </v>
   <v>      -0.33333333       0.23809524       0.00000000 </v>
   <v>      -0.28571429       0.23809524       0.00000000 </v>
   <v>      -0.23809524       0.23809524       0.00000000 </v>
   <v>      -0.19047619       0.23809524       0.00000000 </v>
   <v>      -0.14285714       0.23809524       0.00000000 </v>
   <v>      -0.09523810       0.23809524       0.00000000 </v>
   <v>      -0.04761905       0.23809524       0.00000000 </v>
   <v>       0.00000000       0.28571429       0.00000000 </v>
   <v>       0.04761905       0.28571429       0.00000000 </v>
   <v>       0.09523810       0.28571429       0.00000000 </v>
   <v>       0.14285714       0.28571429       0.00000000 </v>
   <v>       0.19047619       0.28571429       0.00000000 </v>
   <v>       0.23809524       0.28571429       0.00000000 </v>
   <v>       0.28571429       0.28571429       0.00000000 </v>
   <v>       0.33333333       0.28571429       0.00000000 </v>
   <v>       0.38095238       0.28571429       0.00000000 </v>
   <v>       0.42857143       0.28571429       0.00000000 </v>
   <v>       0.47619048       0.28571429       0.00000000 </v>
   <v>      -0.47619048       0.28571429       0.00000000 </v>
   <v>      -0.42857143       0.28571429       0.00000000 </v>
   <v>      -0.38095238       0.28571429       0.00000000 </v>
   <v>      -0.33333333       0.28571429       0.00000000 </v>
   <v>      -0.28571429       0.28571429       0.00000000 </v>
   <v>      -0.23809524       0.28571429       0.00000000 </v>
   <v>      -0.19047619       0.28571429       0.00000000 </v>
   <v>      -0.14285714       0.28571429       0.00000000 </v>
   <v>      -0.09523810       0.28571429       0.00000000 </v>
   <v>      -0.04761905       0.28571429       0.00000000 </v>
   <v>       0.00000000       0.33333333       0.00000000 </v>
   <v>       0.04761905       0.33333333       0.00000000 </v>
   <v>       0.09523810       0.33333333       0.00000000 </v>
   <v>       0.14285714       0.33333333       0.00000000 </v>
   <v>       0.19047619       0.33333333       0.00000000 </v>
   <v>       0.23809524       0.33333333       0.00000000 </v>
   <v>       0.28571429       0.33333333       0.00000000 </v>
   <v>       0.33333333       0.33333333       0.00000000 </v>
   <v>       0.38095238       0.33333333       0.00000000 </v>
   <v>       0.42857143       0.33333333       0.00000000 </v>
   <v>       0.47619048       0.33333333       0.00000000 </v>
   <v>      -0.47619048       0.33333333       0.00000000 </v>
   <v>      -0.42857143       0.33333333       0.00000000 </v>
   <v>      -0.38095238       0.33333333       0.00000000 </v>
   <v>      -0.33333333       0.33333333       0.00000000 </v>
   <v>      -0.28571429       0.33333333       0.00000000 </v>
   <v>      -0.23809524       0.33333333       0.00000000 </v>
   <v>      -0.19047619       0.33333333       0.00000000 </v>
   <v>      -0.14285714       0.33333333       0.00000000 </v>
   <v>      -0.09523810       0.33333333       0.00000000 </v>
   <v>      -0.04761905       0.33333333       0.00000000 </v>
   <v>       0.00000000       0.38095238       0.00000000 </v>
   <v>       0.04761905       0.38095238       0.00000000 </v>
   <v>       0.09523810       0.38095238       0.00000000 </v>
   <v>       0.14285714       0.38095238       0.00000000 </v>
   <v>       0.19047619       0.38095238       0.00000000 </v>
   <v>       0.23809524       0.38095238       0.00000000 </v>
   <v>       0.28571429       0.38095238       0.00000000 </v>
   <v>       0.33333333       0.38095238       0.00000000 </v>
   <v>       0.38095238       0.38095238       0.00000000 </v>
   <v>       0.42857143       0.38095238       0.00000000 </v>
   <v>       0.47619048       0.38095238       0.00000000 </v>
   <v>      -0.47619048       0.38095238       0.00000000 </v>
   <v>      -0.42857143       0.38095238       0.00000000 </v>
   <v>      -0.38095238       0.38095238       0.00000000 </v>
   <v>      -0.33333333       0.38095238       0.00000000 </v>
   <v>      -0.28571429       0.38095238       0.00000000 </v>
   <v>      -0.23809524       0.38095238       0.00000000 </v>
   <v>      -0.19047619       0.38095238       0.00000000 </v>
   <v>      -0.14285714       0.38095238       0.00000000 </v>
   <v>      -0.09523810       0.38095238       0.00000000 </v>
   <v>      -0.04761905       0.38095238       0.00000000 </v>
   <v>       0.00000000       0.42857143       0.00000000 </v>
   <v>       0.04761905       0.42857143       0.00000000 </v>
   <v>       0.09523810       0.42857143       0.00000000 </v>
   <v>       0.14285714       0.42857143       0.00000000 </v>
   <v>       0.19047619       0.42857143       0.00000000 </v>
   <v>       0.23809524       0.42857143       0.00000000 </v>
   <v>       0.28571429       0.42857143       0.00000000 </v>
   <v>       0.33333333       0.42857143       0.00000000 </v>
   <v>       0.38095238       0.42857143       0.00000000 </v>
   <v>       0.42857143       0.42857143       0.00000000 </v>
   <v>       0.47619048       0.42857143       0.00000000 </v>
   <v>      -0.47619048       0.42857143       0.00000000 </v>
   <v>      -0.42857143       0.42857143       0.00000000 </v>
   <v>      -0.38095238       0.42857143       0.00000000 </v>
   <v>      -0.33333333       0.42857143       0.00000000 </v>
   <v>      -0.28571429       0.42857143       0.00000000 </v>
   <v>      -0.23809524       0.42857143       0.00000000 </v>
   <v>      -0.19047619       0.42857143       0.00000000 </v>
   <v>      -0.14285714       0.42857143       0.00000000 </v>
   <v>      -0.09523810       0.42857143       0.00000000 </v>
   <v>      -0.04761905       0.42857143       0.00000000 </v>
   <v>       0.00000000       0.47619048       0.00000000 </v>
   <v>       0.04761905       0.47619048       0.00000000 </v>
   <v>       0.09523810       0.47619048       0.00000000 </v>
   <v>       0.14285714       0.47619048       0.00000000 </v>
   <v>       0.19047619       0.47619048       0.00000000 </v>
   <v>       0.23809524       0.47619048       0.00000000 </v>
   <v>       0.28571429       0.47619048       0.00000000 </v>
   <v>       0.33333333       0.47619048       0.00000000 </v>
   <v>       0.38095238       0.47619048       0.00000000 </v>
   <v>       0.42857143       0.47619048       0.00000000 </v>
   <v>       0.47619048       0.47619048       0.00000000 </v>
   <v>      -0.47619048       0.47619048       0.00000000 </v>
   <v>      -0.42857143       0.47619048       0.00000000 </v>
   <v>      -0.38095238       0.47619048       0.00000000 </v>
   <v>      -0.33333333       0.47619048       0.00000000 </v>
   <v>      -0.28571429       0.47619048       0.00000000 </v>
   <v>      -0.23809524       0.47619048       0.00000000 </v>
   <v>      -0.19047619       0.47619048       0.00000000 </v>
   <v>      -0.14285714       0.47619048       0.00000000 </v>
   <v>      -0.09523810       0.47619048       0.00000000 </v>
   <v>      -0.04761905       0.47619048       0.00000000 </v>
  </varray>
  <varray name="weights" >
   <v>       0.00226757 </v>
   <v>       0.00453515 </v>
   <v>       0.00453515 </v>
   <v>       0.00453515 </v>
   <v>       0.00453515 </v>
   <v>       0.00453515 </v>
   <v>       0.00453515 </v>
   <v>       0.00453515 </v>
   <v>       0.00453515 </v>
   <v>       0.00453515 </v>
   <v>       0.00453515 </v>
   <v>       0.00453515 </v>
   <v>       0.00453515 </v>
   <v>       0.00453515 </v>
   <v>       0.00453515 </v>
   <v>       0.00453515 </v>
   <v>       0.00453515 </v>
   <v>       0.00453515 </v>
   <v>       0.00453515 </v>
   <v>       0.00453515 </v>
   <v>       0.00453515 </v>
   <v>       0.00453515 </v>
   <v>       0.00453515 </v>
   <v>       0.00453515 </v>
   <v>       0.00453515 </v>
   <v>       0.00453515 </v>
   <v>       0.00453515 </v>
   <v>       0.00453515 </v>
   <v>       0.00453515 </v>
   <v>       0.00453515 </v>
   <v>       0.00453515 </v>
   <v>       0.00453515 </v>
   <v>       0.00453515 </v>
   <v>       0.00453515 </v>
   <v>       0.00453515 </v>
   <v>       0.00453515 </v>
   <v>       0.00453515 </v>
   <v>       0.00453515 </v>
   <v>       0.00453515 </v>
   <v>       0.00453515 </v>
   <v>       0.00453515 </v>
   <v>       0.00453515 </v>
   <v>       0.00453515 </v>
   <v>       0.00453515 </v>
   <v>       0.00453515 </v>
   <v>       0.00453515 </v>
   <v>       0.00453515 </v>
   <v>       0.00453515 </v>
   <v>       0.00453515 </v>
   <v>       0.00453515 </v>
   <v>       0.00453515 </v>
   <v>       0.00453515 </v>
   <v>       0.00453515 </v>
   <v>       0.00453515 </v>
   <v>       0.00453515 </v>
   <v>       0.00453515 </v>
   <v>       0.00453515 </v>
   <v>       0.00453515 </v>
   <v>       0.00453515 </v>
   <v>       0.00453515 </v>
   <v>       0.00453515 </v>
   <v>       0.00453515 </v>
   <v>       0.00453515 </v>
   <v>       0.00453515 </v>
   <v>       0.00453515 </v>
   <v>       0.00453515 </v>
   <v>       0.00453515 </v>
   <v>       0.00453515 </v>
   <v>       0.00453515 </v>
   <v>       0.00453515 </v>
   <v>       0.00453515 </v>
   <v>       0.00453515 </v>
   <v>       0.00453515 </v>
   <v>       0.00453515 </v>
   <v>       0.00453515 </v>
   <v>       0.00453515 </v>
   <v>       0.00453515 </v>
   <v>       0.00453515 </v>
   <v>       0.00453515 </v>
   <v>       0.00453515 </v>
   <v>       0.00453515 </v>
   <v>       0.00453515 </v>
   <v>       0.00453515 </v>
   <v>       0.00453515 </v>
   <v>       0.00453515 </v>
   <v>       0.00453515 </v>
   <v>       0.00453515 </v>
   <v>       0.00453515 </v>
   <v>       0.00453515 </v>
   <v>       0.00453515 </v>
   <v>       0.00453515 </v>
   <v>       0.00453515 </v>
   <v>       0.00453515 </v>
   <v>       0.00453515 </v>
   <v>       0.00453515 </v>
   <v>       0.00453515 </v>
   <v>       0.00453515 </v>
   <v>       0.00453515 </v>
   <v>       0.00453515 </v>
   <v>       0.00453515 </v>
   <v>       0.00453515 </v>
   <v>       0.00453515 </v>
   <v>       0.00453515 </v>
   <v>       0.00453515 </v>
   <v>       0.00453515 </v>
   <v>       0.00453515 </v>
   <v>       0.00453515 </v>
   <v>       0.00453515 </v>
   <v>       0.00453515 </v>
   <v>       0.00453515 </v>
   <v>       0.00453515 </v>
   <v>       0.00453515 </v>
   <v>       0.00453515 </v>
   <v>       0.00453515 </v>
   <v>       0.00453515 </v>
   <v>       0.00453515 </v>
   <v>       0.00453515 </v>
   <v>       0.00453515 </v>
   <v>       0.00453515 </v>
   <v>       0.00453515 </v>
   <v>       0.00453515 </v>
   <v>       0.00453515 </v>
   <v>       0.00453515 </v>
   <v>       0.00453515 </v>
   <v>       0.00453515 </v>
   <v>       0.00453515 </v>
   <v>       0.00453515 </v>
   <v>       0.00453515 </v>
   <v>       0.00453515 </v>
   <v>       0.00453515 </v>
   <v>       0.00453515 </v>
   <v>       0.00453515 </v>
   <v>       0.00453515 </v>
   <v>       0.00453515 </v>
   <v>       0.00453515 </v>
   <v>       0.00453515 </v>
   <v>       0.00453515 </v>
   <v>       0.00453515 </v>
   <v>       0.00453515 </v>
   <v>       0.00453515 </v>
   <v>       0.00453515 </v>
   <v>       0.00453515 </v>
   <v>       0.00453515 </v>
   <v>       0.00453515 </v>
   <v>       0.00453515 </v>
   <v>       0.00453515 </v>
   <v>       0.00453515 </v>
   <v>       0.00453515 </v>
   <v>       0.00453515 </v>
   <v>       0.00453515 </v>
   <v>       0.00453515 </v>
   <v>       0.00453515 </v>
   <v>       0.00453515 </v>
   <v>       0.00453515 </v>
   <v>       0.00453515 </v>
   <v>       0.00453515 </v>
   <v>       0.00453515 </v>
   <v>       0.00453515 </v>
   <v>       0.00453515 </v>
   <v>       0.00453515 </v>
   <v>       0.00453515 </v>
   <v>       0.00453515 </v>
   <v>       0.00453515 </v>
   <v>       0.00453515 </v>
   <v>       0.00453515 </v>
   <v>       0.00453515 </v>
   <v>       0.00453515 </v>
   <v>       0.00453515 </v>
   <v>       0.00453515 </v>
   <v>       0.00453515 </v>
   <v>       0.00453515 </v>
   <v>       0.00453515 </v>
   <v>       0.00453515 </v>
   <v>       0.00453515 </v>
   <v>       0.00453515 </v>
   <v>       0.00453515 </v>
   <v>       0.00453515 </v>
   <v>       0.00453515 </v>
   <v>       0.00453515 </v>
   <v>       0.00453515 </v>
   <v>       0.00453515 </v>
   <v>       0.00453515 </v>
   <v>       0.00453515 </v>
   <v>       0.00453515 </v>
   <v>       0.00453515 </v>
   <v>       0.00453515 </v>
   <v>       0.00453515 </v>
   <v>       0.00453515 </v>
   <v>       0.00453515 </v>
   <v>       0.00453515 </v>
   <v>       0.00453515 </v>
   <v>       0.00453515 </v>
   <v>       0.00453515 </v>
   <v>       0.00453515 </v>
   <v>       0.00453515 </v>
   <v>       0.00453515 </v>
   <v>       0.00453515 </v>
   <v>       0.00453515 </v>
   <v>       0.00453515 </v>
   <v>       0.00453515 </v>
   <v>       0.00453515 </v>
   <v>       0.00453515 </v>
   <v>       0.00453515 </v>
   <v>       0.00453515 </v>
   <v>       0.00453515 </v>
   <v>       0.00453515 </v>
   <v>       0.00453515 </v>
   <v>       0.00453515 </v>
   <v>       0.00453515 </v>
   <v>       0.00453515 </v>
   <v>       0.00453515 </v>
   <v>       0.00453515 </v>
   <v>       0.00453515 </v>
   <v>       0.00453515 </v>
   <v>       0.00453515 </v>
   <v>       0.00453515 </v>
   <v>       0.00453515 </v>
   <v>       0.00453515 </v>
   <v>       0.00453515 </v>
   <v>       0.00453515 </v>
   <v>       0.00453515 </v>
  </varray>
 </kpoints>
 <parameters>
  <separator name="general" >
   <i type="string" name="SYSTEM">W-1, se-2</i>
   <i type="logical" name="LCOMPAT"> F  </i>
  </separator>
  <separator name="electronic" >
   <i type="string" name="PREC">accura</i>
   <i name="ENMAX">    800.00000000</i>
   <i name="ENAUG">    446.84200000</i>
   <i name="EDIFF">      0.00000001</i>
   <i type="int" name="IALGO">    38</i>
   <i type="int" name="IWAVPR">    10</i>
   <i type="int" name="NBANDS">   102</i>
   <i name="NELECT">    162.00000000</i>
   <i type="int" name="TURBO">     0</i>
   <i type="int" name="IRESTART">     0</i>
   <i type="int" name="NREBOOT">     0</i>
   <i type="int" name="NMIN">     0</i>
   <i name="EREF">      0.00000000</i>
   <separator name="electronic smearing" >
    <i type="int" name="ISMEAR">     0</i>
    <i name="SIGMA">      0.01000000</i>
    <i name="KSPACING">      0.50000000</i>
    <i type="logical" name="KGAMMA"> T  </i>
   </separator>
   <separator name="electronic projectors" >
    <i type="logical" name="LREAL"> F  </i>
    <v name="ROPT">      0.00000000      0.00000000</v>
    <i type="int" name="LMAXPAW">  -100</i>
    <i type="int" name="LMAXMIX">     2</i>
    <i type="logical" name="NLSPLINE"> F  </i>
   </separator>
   <separator name="electronic startup" >
    <i type="int" name="ISTART">     0</i>
    <i type="int" name="ICHARG">     2</i>
    <i type="int" name="INIWAV">     1</i>
   </separator>
   <separator name="electronic spin" >
    <i type="int" name="ISPIN">     1</i>
    <i type="logical" name="LNONCOLLINEAR"> F  </i>
    <v name="MAGMOM">      1.00000000      1.00000000      1.00000000      1.00000000      1.00000000      1.00000000      1.00000000      1.00000000      1.00000000      1.00000000      1.00000000      1.00000000      1.00000000      1.00000000      1.00000000      1.00000000      1.00000000      1.00000000      1.00000000      1.00000000
      1.00000000      1.00000000      1.00000000      1.00000000      1.00000000      1.00000000      1.00000000</v>
    <i name="NUPDOWN">     -1.00000000</i>
    <i type="logical" name="LSORBIT"> F  </i>
    <v name="SAXIS">      0.00000000      0.00000000      1.00000000</v>
    <i type="logical" name="LSPIRAL"> F  </i>
    <v name="QSPIRAL">      0.00000000      0.00000000      0.00000000</v>
    <i type="logical" name="LZEROZ"> F  </i>
   </separator>
   <separator name="electronic exchange-correlation" >
    <i type="logical" name="LASPH"> F  </i>
    <i type="logical" name="LMETAGGA"> F  </i>
   </separator>
   <separator name="electronic convergence" >
    <i type="int" name="NELM">    60</i>
    <i type="int" name="NELMDL">    -5</i>
    <i type="int" name="NELMIN">     5</i>
    <i name="ENINI">    800.00000000</i>
    <separator name="electronic convergence detail" >
     <i type="logical" name="LDIAG"> T  </i>
     <i type="logical" name="LSUBROT"> F  </i>
     <i name="WEIMIN">      0.00000000</i>
     <i name="EBREAK">      0.00000000</i>
     <i name="DEPER">      0.30000000</i>
     <i type="int" name="NRMM">     4</i>
     <i name="TIME">      0.40000000</i>
    </separator>
   </separator>
   <separator name="electronic mixer" >
    <i name="AMIX">      0.40000000</i>
    <i name="BMIX">      1.00000000</i>
    <i name="AMIN">      0.01000000</i>
    <i name="AMIX_MAG">      1.60000000</i>
    <i name="BMIX_MAG">      1.00000000</i>
    <separator name="electronic mixer details" >
     <i type="int" name="IMIX">     4</i>
     <i type="logical" name="MIXFIRST"> F  </i>
     <i type="int" name="MAXMIX">   -45</i>
     <i name="WC">    100.00000000</i>
     <i type="int" name="INIMIX">     1</i>
     <i type="int" name="MIXPRE">     1</i>
     <i type="int" name="MREMOVE">     5</i>
    </separator>
   </separator>
   <separator name="electronic dipolcorrection" >
    <i type="logical" name="LDIPOL"> F  </i>
    <i type="logical" name="LMONO"> F  </i>
    <i type="int" name="IDIPOL">     0</i>
    <i name="EPSILON">      1.00000000</i>
    <v name="DIPOL">   -100.00000000   -100.00000000   -100.00000000</v>
    <i name="EFIELD">      0.00000000</i>
   </separator>
  </separator>
  <separator name="grids" >
   <i type="int" name="NGX">    96</i>
   <i type="int" name="NGY">    96</i>
   <i type="int" name="NGZ">   192</i>
   <i type="int" name="NGXF">   192</i>
   <i type="int" name="NGYF">   192</i>
   <i type="int" name="NGZF">   384</i>
   <i type="logical" name="ADDGRID"> T  </i>
  </separator>
  <separator name="ionic" >
   <i type="int" name="NSW">     0</i>
   <i type="int" name="IBRION">    -1</i>
   <i type="int" name="MDALGO">     0</i>
   <i type="int" name="ISIF">     2</i>
   <i name="PSTRESS">      0.00000000</i>
   <i name="EDIFFG">     -0.00000001</i>
   <i type="int" name="NFREE">     0</i>
   <i name="POTIM">      0.50000000</i>
   <i name="SMASS">     -3.00000000</i>
   <i name="SCALEE">      1.00000000</i>
  </separator>
  <separator name="ionic md" >
   <i name="TEBEG">      0.00010000</i>
   <i name="TEEND">      0.00010000</i>
   <i type="int" name="NBLOCK">     1</i>
   <i type="int" name="KBLOCK">     1</i>
   <i type="int" name="NPACO">   256</i>
   <i name="APACO">     16.00000000</i>
  </separator>
  <separator name="symmetry" >
   <i type="int" name="ISYM">     2</i>
   <i name="SYMPREC">      0.00010000</i>
  </separator>
  <separator name="dos" >
   <i type="int" name="LORBIT">     0</i>
   <v name="RWIGS">     -1.00000000     -1.00000000</v>
   <i type="int" name="NEDOS">   301</i>
   <i name="EMIN">     10.00000000</i>
   <i name="EMAX">    -10.00000000</i>
   <i name="EFERMI">      0.00000000</i>
  </separator>
  <separator name="writing" >
   <i type="int" name="NWRITE">     2</i>
   <i type="logical" name="LWAVE"> F  </i>
   <i type="logical" name="LDOWNSAMPLE"> F  </i>
   <i type="logical" name="LCHARG"> F  </i>
   <i type="logical" name="LPARD"> F  </i>
   <i type="logical" name="LVTOT"> F  </i>
   <i type="logical" name="LVHAR"> F  </i>
   <i type="logical" name="LELF"> F  </i>
   <i type="logical" name="LOPTICS"> F  </i>
   <v name="STM">      0.00000000      0.00000000      0.00000000      0.00000000      0.00000000      0.00000000      0.00000000</v>
  </separator>
  <separator name="performance" >
   <i type="int" name="NPAR">     6</i>
   <i type="int" name="NSIM">     4</i>
   <i type="int" name="NBLK">    -1</i>
   <i type="logical" name="LPLANE"> T  </i>
   <i type="logical" name="LSCALAPACK"> T  </i>
   <i type="logical" name="LSCAAWARE"> F  </i>
   <i type="logical" name="LSCALU"> F  </i>
   <i type="logical" name="LASYNC"> F  </i>
   <i type="logical" name="LORBITALREAL"> F  </i>
  </separator>
  <separator name="miscellaneous" >
   <i type="int" name="IDIOT">     3</i>
   <i type="int" name="ISPECIAL">     0</i>
   <i type="logical" name="LMUSIC"> F  </i>
   <v name="POMASS">    183.85000000     78.96000000</v>
   <v name="DARWINR">      0.00000000      0.00000000</v>
   <v name="DARWINV">      1.00000000      1.00000000</v>
   <i type="logical" name="LCORR"> T  </i>
  </separator>
  <i type="logical" name="GGA_COMPAT"> T  </i>
  <i type="logical" name="LBERRY"> F  </i>
  <i type="int" name="ICORELEVEL">     0</i>
  <i type="logical" name="LDAU"> F  </i>
  <i type="int" name="I_CONSTRAINED_M">     0</i>
  <separator name="electronic exchange-correlation" >
   <i type="string" name="GGA">--</i>
   <i type="int" name="VOSKOWN">     0</i>
   <i type="logical" name="LHFCALC"> F  </i>
   <i type="string" name="PRECFOCK"></i>
   <i type="logical" name="LSYMGRAD"> F  </i>
   <i type="logical" name="LHFONE"> F  </i>
   <i type="logical" name="LRHFCALC"> F  </i>
   <i type="logical" name="LTHOMAS"> F  </i>
   <i type="logical" name="LMODELHF"> F  </i>
   <i name="ENCUT4O">     -1.00000000</i>
   <i type="int" name="EXXOEP">     0</i>
   <i type="int" name="FOURORBIT">     0</i>
   <i name="AEXX">      0.00000000</i>
   <i name="HFALPHA">      0.00000000</i>
   <i name="MCALPHA">      0.00000000</i>
   <i name="ALDAX">      1.00000000</i>
   <i name="AGGAX">      1.00000000</i>
   <i name="ALDAC">      1.00000000</i>
   <i name="AGGAC">      1.00000000</i>
   <i type="int" name="NKREDX">     1</i>
   <i type="int" name="NKREDY">     1</i>
   <i type="int" name="NKREDZ">     1</i>
   <i type="logical" name="SHIFTRED"> F  </i>
   <i type="logical" name="ODDONLY"> F  </i>
   <i type="logical" name="EVENONLY"> F  </i>
   <i type="int" name="LMAXFOCK">     0</i>
   <i type="int" name="NMAXFOCKAE">     0</i>
   <i type="logical" name="LFOCKAEDFT"> F  </i>
   <i name="HFSCREEN">      0.00000000</i>
   <i name="HFSCREENC">      0.00000000</i>
   <i type="int" name="NBANDSGWLOW">     0</i>
  </separator>
  <separator name="vdW DFT" >
   <i type="logical" name="LUSE_VDW"> F  </i>
   <i name="Zab_VDW">     -0.84910000</i>
   <i name="PARAM1">      0.12340000</i>
   <i name="PARAM2">      1.00000000</i>
   <i name="PARAM3">      0.00000000</i>
  </separator>
  <separator name="model GW" >
   <i type="int" name="MODEL_GW">     0</i>
   <i name="MODEL_EPS0">     37.28982144</i>
   <i name="MODEL_ALPHA">      1.00000000</i>
  </separator>
  <separator name="linear response parameters" >
   <i type="logical" name="LEPSILON"> F  </i>
   <i type="logical" name="LRPA"> F  </i>
   <i type="logical" name="LNABLA"> F  </i>
   <i type="logical" name="LVEL"> F  </i>
   <i type="int" name="KINTER">     0</i>
   <i name="CSHIFT">      0.10000000</i>
   <i name="OMEGAMAX">     -1.00000000</i>
   <i name="DEG_THRESHOLD">      0.00200000</i>
   <i name="RTIME">     -0.10000000</i>
   <i name="WPLASMAI">      0.00000000</i>
   <v name="DFIELD">      0.00000000      0.00000000      0.00000000</v>
   <v name="WPLASMA">      0.00000000      0.00000000      0.00000000      0.00000000      0.00000000      0.00000000      0.00000000      0.00000000      0.00000000</v>
  </separator>
  <separator name="orbital magnetization" >
   <i type="logical" name="NUCIND"> F  </i>
   <v name="MAGPOS">      0.00000000      0.00000000      0.00000000</v>
   <i type="logical" name="LNICSALL"> T  </i>
   <i type="logical" name="ORBITALMAG"> F  </i>
   <i type="logical" name="LMAGBLOCH"> F  </i>
   <i type="logical" name="LCHIMAG"> F  </i>
   <i type="logical" name="LGAUGE"> T  </i>
   <i type="int" name="MAGATOM">     0</i>
   <v name="MAGDIPOL">      0.00000000      0.00000000      0.00000000</v>
   <v name="AVECCONST">      0.00000000      0.00000000      0.00000000</v>
  </separator>
  <separator name="response functions" >
   <i type="logical" name="LADDER"> F  </i>
   <i type="logical" name="LRPAFORCE"> F  </i>
   <i type="logical" name="LFXC"> F  </i>
   <i type="logical" name="LHARTREE"> T  </i>
   <i type="int" name="IBSE">     0</i>
   <v type="int" name="KPOINT">    -1     0     0     0</v>
   <i type="logical" name="LTCTE"> F  </i>
   <i type="logical" name="LTETE"> F  </i>
   <i type="logical" name="LTRIPLET"> F  </i>
   <i type="logical" name="LFXCEPS"> F  </i>
   <i type="logical" name="LFXHEG"> F  </i>
   <i type="int" name="NATURALO">     2</i>
   <i type="logical" name="L2ORDER"> F  </i>
   <i type="logical" name="LMP2LT"> F  </i>
   <i type="logical" name="LUSEW"> F  </i>
   <i name="ENCUTGW">     -2.00000000</i>
   <i name="ENCUTGWSOFT">     -2.00000000</i>
   <i name="ENCUTLF">     -1.00000000</i>
   <i type="int" name="LMAXMP2">    -1</i>
   <i name="SCISSOR">      0.00000000</i>
   <i type="int" name="NOMEGA">     0</i>
   <i type="int" name="NOMEGAR">     0</i>
   <i type="int" name="NBANDSGW">    -1</i>
   <i type="int" name="NBANDSO">    -1</i>
   <i type="int" name="NBANDSV">    -1</i>
   <i type="int" name="NELM">     1</i>
   <i type="int" name="NELMHF">     1</i>
   <i type="int" name="DIM">     3</i>
   <i type="int" name="ANTIRES">     0</i>
   <i name="OMEGAMAX">    -30.00000000</i>
   <i name="OMEGAMIN">    -30.00000000</i>
   <i name="OMEGATL">   -200.00000000</i>
   <i type="int" name="OMEGAGRID">   140</i>
   <i name="CSHIFT">     -0.10000000</i>
   <i type="logical" name="SELFENERGY"> F  </i>
   <i type="logical" name="LSPECTRAL"> F  </i>
   <i type="logical" name="LSPECTRALGW"> F  </i>
   <i type="logical" name="LSINGLES"> F  </i>
   <i type="logical" name="LFERMIGW"> F  </i>
   <i type="logical" name="ODDONLYGW"> F  </i>
   <i type="logical" name="EVENONLYGW"> F  </i>
   <i type="int" name="NKREDLFX">     1</i>
   <i type="int" name="NKREDLFY">     1</i>
   <i type="int" name="NKREDLFZ">     1</i>
   <i type="int" name="MAXMEM">  2800</i>
   <i type="int" name="TELESCOPE">     0</i>
   <i type="int" name="TAUPAR">     1</i>
   <i type="int" name="OMEGAPAR">    -1</i>
   <i name="LAMBDA">      1.00000000</i>
  </separator>
  <separator name="External order field" >
   <i name="OFIELD_KAPPA">      0.00000000</i>
   <v name="OFIELD_K">      0.00000000      0.00000000      0.00000000</v>
   <i name="OFIELD_Q6_NEAR">      0.00000000</i>
   <i name="OFIELD_Q6_FAR">      0.00000000</i>
   <i name="OFIELD_A">      0.00000000</i>
  </separator>
 </parameters>
 <atominfo>
  <atoms>      27 </atoms>
  <types>       2 </types>
  <array name="atoms" >
   <dimension dim="1">ion</dimension>
   <field type="string">element</field>
   <field type="int">atomtype</field>
   <set>
    <rc><c>W </c><c>   1</c></rc>
    <rc><c>W </c><c>   1</c></rc>
    <rc><c>W </c><c>   1</c></rc>
    <rc><c>W </c><c>   1</c></rc>
    <rc><c>W </c><c>   1</c></rc>
    <rc><c>W </c><c>   1</c></rc>
    <rc><c>W </c><c>   1</c></rc>
    <rc><c>W </c><c>   1</c></rc>
    <rc><c>W </c><c>   1</c></rc>
    <rc><c>Se</c><c>   2</c></rc>
    <rc><c>Se</c><c>   2</c></rc>
    <rc><c>Se</c><c>   2</c></rc>
    <rc><c>Se</c><c>   2</c></rc>
    <rc><c>Se</c><c>   2</c></rc>
    <rc><c>Se</c><c>   2</c></rc>
    <rc><c>Se</c><c>   2</c></rc>
    <rc><c>Se</c><c>   2</c></rc>
    <rc><c>Se</c><c>   2</c></rc>
    <rc><c>Se</c><c>   2</c></rc>
    <rc><c>Se</c><c>   2</c></rc>
    <rc><c>Se</c><c>   2</c></rc>
    <rc><c>Se</c><c>   2</c></rc>
    <rc><c>Se</c><c>   2</c></rc>
    <rc><c>Se</c><c>   2</c></rc>
    <rc><c>Se</c><c>   2</c></rc>
    <rc><c>Se</c><c>   2</c></rc>
    <rc><c>Se</c><c>   2</c></rc>
   </set>
  </array>
  <array name="atomtypes" >
   <dimension dim="1">type</dimension>
   <field type="int">atomspertype</field>
   <field type="string">element</field>
   <field>mass</field>
   <field>valence</field>
   <field type="string">pseudopotential</field>
   <set>
    <rc><c>   9</c><c>W </c><c>    183.85000000</c><c>      6.00000000</c><c> PAW_PBE W 08Apr2002                    </c></rc>
    <rc><c>  18</c><c>Se</c><c>     78.96000000</c><c>      6.00000000</c><c> PAW_PBE Se 06Sep2000                   </c></rc>
   </set>
  </array>
 </atominfo>
 <structure name="initialpos" >
  <crystal>
   <varray name="basis" >
    <v>       9.84600000       0.00000000       0.00000000 </v>
    <v>       4.92300000       8.52144000       0.00000000 </v>
    <v>       0.00000000       0.00000000      20.00000000 </v>
   </varray>
   <i name="volume">   1678.04196480 </i>
   <varray name="rec_basis" >
    <v>       0.10156409      -0.05867553       0.00000000 </v>
    <v>       0.00000000       0.11735106       0.00000000 </v>
    <v>       0.00000000       0.00000000       0.05000000 </v>
   </varray>
  </crystal>
  <varray name="positions" >
   <v>       0.33330000       0.00006700       0.00000000 </v>
   <v>       0.66663300       0.00006700       0.00000000 </v>
   <v>       0.99996700       0.00006700       0.00000000 </v>
   <v>       0.33330000       0.33340000       0.00000000 </v>
   <v>       0.66663300       0.33340000       0.00000000 </v>
   <v>       0.99996700       0.33340000       0.00000000 </v>
   <v>       0.33330000       0.66673300       0.00000000 </v>
   <v>       0.66663300       0.66673300       0.00000000 </v>
   <v>       0.99996700       0.66673300       0.00000000 </v>
   <v>       0.11109200       0.11013300       0.91545900 </v>
   <v>       0.44442600       0.11114900       0.91545900 </v>
   <v>       0.77775900       0.11114900       0.91545900 </v>
   <v>       0.11109200       0.44448200       0.91545900 </v>
   <v>       0.44442600       0.44448200       0.91545900 </v>
   <v>       0.77775900       0.44448200       0.91545900 </v>
   <v>       0.11109200       0.77781500       0.91545900 </v>
   <v>       0.44442600       0.77781500       0.91545900 </v>
   <v>       0.77775900       0.77781500       0.91545900 </v>
   <v>       0.11109200       0.11114900       0.08454100 </v>
   <v>       0.44442600       0.11114900       0.08454100 </v>
   <v>       0.77775900       0.11114900       0.08454100 </v>
   <v>       0.11109200       0.44448200       0.08454100 </v>
   <v>       0.44442600       0.44448200       0.08454100 </v>
   <v>       0.77775900       0.44448200       0.08454100 </v>
   <v>       0.11109200       0.77781500       0.08454100 </v>
   <v>       0.44442600       0.77781500       0.08454100 </v>
   <v>       0.77775900       0.77781500       0.08454100 </v>
  </varray>
 </structure>
 <calculation>
  <scstep>
   <time name="dav">  263.97  264.61</time>
   <time name="total">  264.36  265.02</time>
   <energy>
    <i name="alphaZ">    206.49012646 </i>
    <i name="ewald">  19424.42252712 </i>
    <i name="hartreedc"> -25374.66879290 </i>
    <i name="XCdc">   -439.16811238 </i>
    <i name="pawpsdc">   3546.74135395 </i>
    <i name="pawaedc">  -2766.52518036 </i>
    <i name="eentropy">     -0.00056467 </i>
    <i name="bandstr">    350.88580268 </i>
    <i name="atom">   6466.84281893 </i>
    <i name="e_fr_energy">   1415.01997882 </i>
    <i name="e_wo_entrp">   1415.02054349 </i>
    <i name="e_0_energy">   1415.02026116 </i>
   </energy>
  </scstep>
  <scstep>
   <time name="dav">  387.59  388.56</time>
   <time name="total">  387.60  388.56</time>
   <energy>
    <i name="e_fr_energy">     19.70773053 </i>
    <i name="e_wo_entrp">     19.70773053 </i>
    <i name="e_0_energy">     19.70773053 </i>
   </energy>
  </scstep>
  <scstep>
   <time name="dav">  299.72  300.47</time>
   <time name="total">  299.72  300.47</time>
   <energy>
    <i name="e_fr_energy">   -195.06426290 </i>
    <i name="e_wo_entrp">   -195.06426290 </i>
    <i name="e_0_energy">   -195.06426290 </i>
   </energy>
  </scstep>
  <scstep>
   <time name="dav">  328.73  329.55</time>
   <time name="total">  328.73  329.55</time>
   <energy>
    <i name="e_fr_energy">   -203.87111402 </i>
    <i name="e_wo_entrp">   -203.87111402 </i>
    <i name="e_0_energy">   -203.87111402 </i>
   </energy>
  </scstep>
  <scstep>
   <time name="dav">  366.70  367.62</time>
   <time name="total">  378.45  379.39</time>
   <energy>
    <i name="e_fr_energy">   -204.16842899 </i>
    <i name="e_wo_entrp">   -204.16842899 </i>
    <i name="e_0_energy">   -204.16842899 </i>
   </energy>
  </scstep>
  <scstep>
   <time name="dav">  350.17  351.02</time>
   <time name="total">  362.26  363.16</time>
   <energy>
    <i name="e_fr_energy">   -196.81988100 </i>
    <i name="e_wo_entrp">   -196.81988100 </i>
    <i name="e_0_energy">   -196.81988100 </i>
   </energy>
  </scstep>
  <scstep>
   <time name="dav">  338.90  339.73</time>
   <time name="total">  351.02  351.90</time>
   <energy>
    <i name="e_fr_energy">   -195.22073760 </i>
    <i name="e_wo_entrp">   -195.22073760 </i>
    <i name="e_0_energy">   -195.22073760 </i>
   </energy>
  </scstep>
  <scstep>
   <time name="dav">  316.77  317.53</time>
   <time name="total">  329.02  329.84</time>
   <energy>
    <i name="e_fr_energy">   -194.74686986 </i>
    <i name="e_wo_entrp">   -194.74686986 </i>
    <i name="e_0_energy">   -194.74686986 </i>
   </energy>
  </scstep>
  <scstep>
   <time name="dav">  354.04  354.90</time>
   <time name="total">  366.29  367.19</time>
   <energy>
    <i name="e_fr_energy">   -194.73082869 </i>
    <i name="e_wo_entrp">   -194.73082869 </i>
    <i name="e_0_energy">   -194.73082869 </i>
   </energy>
  </scstep>
  <scstep>
   <time name="dav">  349.76  350.60</time>
   <time name="total">  362.01  362.91</time>
   <energy>
    <i name="e_fr_energy">   -194.70251456 </i>
    <i name="e_wo_entrp">   -194.70251456 </i>
    <i name="e_0_energy">   -194.70251456 </i>
   </energy>
  </scstep>
  <scstep>
   <time name="dav">  354.58  355.44</time>
   <time name="total">  366.79  367.70</time>
   <energy>
    <i name="e_fr_energy">   -194.69681852 </i>
    <i name="e_wo_entrp">   -194.69681852 </i>
    <i name="e_0_energy">   -194.69681852 </i>
   </energy>
  </scstep>
  <scstep>
   <time name="dav">  356.54  357.40</time>
   <time name="total">  368.80  369.71</time>
   <energy>
    <i name="e_fr_energy">   -194.69244120 </i>
    <i name="e_wo_entrp">   -194.69244120 </i>
    <i name="e_0_energy">   -194.69244120 </i>
   </energy>
  </scstep>
  <scstep>
   <time name="dav">  312.66  313.42</time>
   <time name="total">  326.56  327.38</time>
   <energy>
    <i name="e_fr_energy">   -194.68157450 </i>
    <i name="e_wo_entrp">   -194.68157450 </i>
    <i name="e_0_energy">   -194.68157450 </i>
   </energy>
  </scstep>
  <scstep>
   <time name="dav">  342.29  343.13</time>
   <time name="total">  356.38  357.28</time>
   <energy>
    <i name="e_fr_energy">   -194.68026305 </i>
    <i name="e_wo_entrp">   -194.68026305 </i>
    <i name="e_0_energy">   -194.68026305 </i>
   </energy>
  </scstep>
  <scstep>
   <time name="dav">  310.84  311.60</time>
   <time name="total">  324.83  325.65</time>
   <energy>
    <i name="e_fr_energy">   -194.67480056 </i>
    <i name="e_wo_entrp">   -194.67480056 </i>
    <i name="e_0_energy">   -194.67480056 </i>
   </energy>
  </scstep>
  <scstep>
   <time name="dav">  314.82  315.59</time>
   <time name="total">  328.71  329.54</time>
   <energy>
    <i name="e_fr_energy">   -194.67528716 </i>
    <i name="e_wo_entrp">   -194.67528716 </i>
    <i name="e_0_energy">   -194.67528716 </i>
   </energy>
  </scstep>
  <scstep>
   <time name="dav">  323.28  324.07</time>
   <time name="total">  337.78  338.63</time>
   <energy>
    <i name="e_fr_energy">   -194.68222403 </i>
    <i name="e_wo_entrp">   -194.68222403 </i>
    <i name="e_0_energy">   -194.68222403 </i>
   </energy>
  </scstep>
  <scstep>
   <time name="dav">  326.18  326.98</time>
   <time name="total">  340.61  341.47</time>
   <energy>
    <i name="e_fr_energy">   -194.68678165 </i>
    <i name="e_wo_entrp">   -194.68678165 </i>
    <i name="e_0_energy">   -194.68678165 </i>
   </energy>
  </scstep>
  <scstep>
   <time name="dav">  327.35  328.17</time>
   <time name="total">  341.81  342.68</time>
   <energy>
    <i name="e_fr_energy">   -194.68920878 </i>
    <i name="e_wo_entrp">   -194.68920878 </i>
    <i name="e_0_energy">   -194.68920878 </i>
   </energy>
  </scstep>
  <scstep>
   <time name="dav">  329.34  330.15</time>
   <time name="total">  343.71  344.59</time>
   <energy>
    <i name="e_fr_energy">   -194.69048874 </i>
    <i name="e_wo_entrp">   -194.69048874 </i>
    <i name="e_0_energy">   -194.69048874 </i>
   </energy>
  </scstep>
  <scstep>
   <time name="dav">  324.55  325.34</time>
   <time name="total">  339.13  339.98</time>
   <energy>
    <i name="e_fr_energy">   -194.69092405 </i>
    <i name="e_wo_entrp">   -194.69092405 </i>
    <i name="e_0_energy">   -194.69092405 </i>
   </energy>
  </scstep>
  <scstep>
   <time name="dav">  327.09  327.88</time>
   <time name="total">  341.70  342.55</time>
   <energy>
    <i name="e_fr_energy">   -194.69109194 </i>
    <i name="e_wo_entrp">   -194.69109194 </i>
    <i name="e_0_energy">   -194.69109194 </i>
   </energy>
  </scstep>
  <scstep>
   <time name="dav">  315.92  316.69</time>
   <time name="total">  330.33  331.16</time>
   <energy>
    <i name="e_fr_energy">   -194.69120157 </i>
    <i name="e_wo_entrp">   -194.69120157 </i>
    <i name="e_0_energy">   -194.69120157 </i>
   </energy>
  </scstep>
  <scstep>
   <time name="dav">  325.29  326.08</time>
   <time name="total">  339.77  340.62</time>
   <energy>
    <i name="e_fr_energy">   -194.69122843 </i>
    <i name="e_wo_entrp">   -194.69122843 </i>
    <i name="e_0_energy">   -194.69122843 </i>
   </energy>
  </scstep>
  <scstep>
   <time name="dav">  326.94  327.74</time>
   <time name="total">  341.49  342.34</time>
   <energy>
    <i name="e_fr_energy">   -194.69123436 </i>
    <i name="e_wo_entrp">   -194.69123436 </i>
    <i name="e_0_energy">   -194.69123436 </i>
   </energy>
  </scstep>
  <scstep>
   <time name="dav">  321.56  322.34</time>
   <time name="total">  335.99  336.83</time>
   <energy>
    <i name="e_fr_energy">   -194.69123641 </i>
    <i name="e_wo_entrp">   -194.69123641 </i>
    <i name="e_0_energy">   -194.69123641 </i>
   </energy>
  </scstep>
  <scstep>
   <time name="dav">  313.56  314.33</time>
   <time name="total">  327.98  328.80</time>
   <energy>
    <i name="e_fr_energy">   -194.69123810 </i>
    <i name="e_wo_entrp">   -194.69123810 </i>
    <i name="e_0_energy">   -194.69123810 </i>
   </energy>
  </scstep>
  <scstep>
   <time name="dav">  287.07  287.77</time>
   <time name="total">  301.60  302.35</time>
   <energy>
    <i name="e_fr_energy">   -194.69123858 </i>
    <i name="e_wo_entrp">   -194.69123858 </i>
    <i name="e_0_energy">   -194.69123858 </i>
   </energy>
  </scstep>
  <scstep>
   <time name="dav">  272.89  273.56</time>
   <time name="total">  287.42  288.14</time>
   <energy>
    <i name="e_fr_energy">   -194.69123881 </i>
    <i name="e_wo_entrp">   -194.69123881 </i>
    <i name="e_0_energy">   -194.69123881 </i>
   </energy>
  </scstep>
  <scstep>
   <time name="dav">  249.18  249.78</time>
   <time name="total">  263.65  264.31</time>
   <energy>
    <i name="e_fr_energy">   -194.69123885 </i>
    <i name="e_wo_entrp">   -194.69123885 </i>
    <i name="e_0_energy">   -194.69123885 </i>
   </energy>
  </scstep>
  <scstep>
   <time name="dav">  235.38  235.95</time>
   <time name="total">  249.71  250.34</time>
   <energy>
    <i name="e_fr_energy">   -194.69123887 </i>
    <i name="e_wo_entrp">   -194.69123887 </i>
    <i name="e_0_energy">   -194.69123887 </i>
   </energy>
  </scstep>
  <scstep>
   <time name="dav">  241.36  241.94</time>
   <time name="total">  241.74  242.35</time>
   <energy>
    <i name="alphaZ">    206.49012646 </i>
    <i name="ewald">  19424.42252712 </i>
    <i name="hartreedc"> -25485.55451270 </i>
    <i name="XCdc">   -429.53056483 </i>
    <i name="pawpsdc">   4194.73481842 </i>
    <i name="pawaedc">  -3428.71168193 </i>
    <i name="eentropy">     -0.00000000 </i>
    <i name="bandstr">  -1143.38477035 </i>
    <i name="atom">   6466.84281893 </i>
    <i name="e_fr_energy">   -194.69123888 </i>
    <i name="e_wo_entrp">   -194.69123888 </i>
    <i name="e_0_energy">   -194.69123888 </i>
   </energy>
  </scstep>
  <structure>
   <crystal>
    <varray name="basis" >
     <v>       9.84600000       0.00000000       0.00000000 </v>
     <v>       4.92300000       8.52144000       0.00000000 </v>
     <v>       0.00000000       0.00000000      20.00000000 </v>
    </varray>
    <i name="volume">   1678.04196480 </i>
    <varray name="rec_basis" >
     <v>       0.10156409      -0.05867553       0.00000000 </v>
     <v>       0.00000000       0.11735106       0.00000000 </v>
     <v>       0.00000000       0.00000000       0.05000000 </v>
    </varray>
   </crystal>
   <varray name="positions" >
    <v>       0.33330000       0.00006700       0.00000000 </v>
    <v>       0.66663300       0.00006700       0.00000000 </v>
    <v>       0.99996700       0.00006700       0.00000000 </v>
    <v>       0.33330000       0.33340000       0.00000000 </v>
    <v>       0.66663300       0.33340000       0.00000000 </v>
    <v>       0.99996700       0.33340000       0.00000000 </v>
    <v>       0.33330000       0.66673300       0.00000000 </v>
    <v>       0.66663300       0.66673300       0.00000000 </v>
    <v>       0.99996700       0.66673300       0.00000000 </v>
    <v>       0.11109200       0.11013300       0.91545900 </v>
    <v>       0.44442600       0.11114900       0.91545900 </v>
    <v>       0.77775900       0.11114900       0.91545900 </v>
    <v>       0.11109200       0.44448200       0.91545900 </v>
    <v>       0.44442600       0.44448200       0.91545900 </v>
    <v>       0.77775900       0.44448200       0.91545900 </v>
    <v>       0.11109200       0.77781500       0.91545900 </v>
    <v>       0.44442600       0.77781500       0.91545900 </v>
    <v>       0.77775900       0.77781500       0.91545900 </v>
    <v>       0.11109200       0.11114900       0.08454100 </v>
    <v>       0.44442600       0.11114900       0.08454100 </v>
    <v>       0.77775900       0.11114900       0.08454100 </v>
    <v>       0.11109200       0.44448200       0.08454100 </v>
    <v>       0.44442600       0.44448200       0.08454100 </v>
    <v>       0.77775900       0.44448200       0.08454100 </v>
    <v>       0.11109200       0.77781500       0.08454100 </v>
    <v>       0.44442600       0.77781500       0.08454100 </v>
    <v>       0.77775900       0.77781500       0.08454100 </v>
   </varray>
  </structure>
  <varray name="forces" >
   <v>      -0.00567164      -0.00965073      -0.00006521 </v>
   <v>      -0.00041774      -0.00061758      -0.00043187 </v>
   <v>      -0.03501756      -0.02665695       0.03071245 </v>
   <v>      -0.00305125       0.00057096      -0.00104851 </v>
   <v>       0.00210557       0.00349782      -0.00000518 </v>
   <v>      -0.00567557      -0.04262944      -0.02971892 </v>
   <v>       0.00204530      -0.00240326       0.00106546 </v>
   <v>      -0.00009021      -0.00070138       0.00044773 </v>
   <v>      -0.00062186      -0.00088044       0.00000997 </v>
   <v>       0.05682711       0.09711061      -0.00096346 </v>
   <v>      -0.00483213       0.00076285      -0.00062675 </v>
   <v>      -0.00422050       0.00042855       0.00062640 </v>
   <v>      -0.00410984      -0.00788626      -0.00120222 </v>
   <v>       0.00005995       0.00021195       0.00001700 </v>
   <v>       0.00247086      -0.00342924      -0.00052907 </v>
   <v>      -0.00480322      -0.00769415       0.00128671 </v>
   <v>       0.00304649      -0.00370385       0.00070031 </v>
   <v>       0.00011612       0.00024288       0.00008311 </v>
   <v>       0.00132329       0.00218173      -0.00004556 </v>
   <v>       0.00014227       0.00107213       0.00043133 </v>
   <v>      -0.00141597       0.00199536       0.00202735 </v>
   <v>      -0.00133562      -0.00056421      -0.00161557 </v>
   <v>      -0.00018334      -0.00022156      -0.00001285 </v>
   <v>       0.00239004      -0.00020029      -0.00209998 </v>
   <v>       0.00025561      -0.00142916       0.00155919 </v>
   <v>       0.00079564       0.00078173      -0.00052303 </v>
   <v>      -0.00013179      -0.00018807      -0.00007883 </v>
  </varray>
  <varray name="stress" >
   <v>       7.95127738       0.01705794      -0.06895482 </v>
   <v>       0.01705795       8.23206971      -0.11723133 </v>
   <v>      -0.06895480      -0.11723132      -0.00632721 </v>
  </varray>
  <energy>
   <i name="e_fr_energy">   -194.69123888 </i>
   <i name="e_wo_entrp">   -194.69123888 </i>
   <i name="e_0_energy">     -0.00000000 </i>
  </energy>
  <time name="totalsc">10890.6910918.01</time>
  <eigenvalues>
   <array>
    <dimension dim="1">band</dimension>
    <dimension dim="2">kpoint</dimension>
    <dimension dim="3">spin</dimension>
    <field>eigene</field>
    <field>occ</field>
    <set>
     <set comment="spin 1">
      <set comment="kpoint 1">
       <r>  -16.5476    1.0000 </r>
       <r>  -15.3662    1.0000 </r>
       <r>  -15.1795    1.0000 </r>
       <r>  -15.1765    1.0000 </r>
       <r>  -15.1761    1.0000 </r>
       <r>  -15.1756    1.0000 </r>
       <r>  -15.1749    1.0000 </r>
       <r>  -15.1719    1.0000 </r>
       <r>  -14.6282    1.0000 </r>
       <r>  -14.6260    1.0000 </r>
       <r>  -14.6255    1.0000 </r>
       <r>  -14.6251    1.0000 </r>
       <r>  -14.6239    1.0000 </r>
       <r>  -14.6218    1.0000 </r>
       <r>  -14.2400    1.0000 </r>
       <r>  -14.2400    1.0000 </r>
       <r>  -14.1200    1.0000 </r>
       <r>  -14.1200    1.0000 </r>
       <r>   -8.0046    1.0000 </r>
       <r>   -7.2256    1.0000 </r>
       <r>   -7.2242    1.0000 </r>
       <r>   -7.2242    1.0000 </r>
       <r>   -7.2237    1.0000 </r>
       <r>   -7.2229    1.0000 </r>
       <r>   -7.2218    1.0000 </r>
       <r>   -7.1675    1.0000 </r>
       <r>   -7.1642    1.0000 </r>
       <r>   -7.0499    1.0000 </r>
       <r>   -7.0442    1.0000 </r>
       <r>   -6.2072    1.0000 </r>
       <r>   -6.2054    1.0000 </r>
       <r>   -6.2051    1.0000 </r>
       <r>   -6.2042    1.0000 </r>
       <r>   -6.2030    1.0000 </r>
       <r>   -6.2022    1.0000 </r>
       <r>   -6.1658    1.0000 </r>
       <r>   -6.1610    1.0000 </r>
       <r>   -6.1593    1.0000 </r>
       <r>   -6.1578    1.0000 </r>
       <r>   -6.1572    1.0000 </r>
       <r>   -6.1570    1.0000 </r>
       <r>   -6.1545    1.0000 </r>
       <r>   -6.1539    1.0000 </r>
       <r>   -5.5015    1.0000 </r>
       <r>   -5.5015    1.0000 </r>
       <r>   -5.1257    1.0000 </r>
       <r>   -5.1202    1.0000 </r>
       <r>   -4.3763    1.0000 </r>
       <r>   -4.3725    1.0000 </r>
       <r>   -4.3678    1.0000 </r>
       <r>   -4.3671    1.0000 </r>
       <r>   -4.3665    1.0000 </r>
       <r>   -4.3630    1.0000 </r>
       <r>   -4.1768    1.0000 </r>
       <r>   -4.1768    1.0000 </r>
       <r>   -4.0503    1.0000 </r>
       <r>   -4.0457    1.0000 </r>
       <r>   -4.0393    1.0000 </r>
       <r>   -3.7925    1.0000 </r>
       <r>   -3.7914    1.0000 </r>
       <r>   -3.7907    1.0000 </r>
       <r>   -3.7907    1.0000 </r>
       <r>   -3.7891    1.0000 </r>
       <r>   -3.7881    1.0000 </r>
       <r>   -3.0447    1.0000 </r>
       <r>   -3.0430    1.0000 </r>
       <r>   -3.0426    1.0000 </r>
       <r>   -3.0423    1.0000 </r>
       <r>   -3.0400    1.0000 </r>
       <r>   -3.0388    1.0000 </r>
       <r>   -2.9175    1.0000 </r>
       <r>   -2.9089    1.0000 </r>
       <r>   -2.9056    1.0000 </r>
       <r>   -2.9045    1.0000 </r>
       <r>   -2.8996    1.0000 </r>
       <r>   -2.8993    1.0000 </r>
       <r>   -2.8990    1.0000 </r>
       <r>   -2.8985    1.0000 </r>
       <r>   -2.2360    1.0000 </r>
       <r>   -1.7750    1.0000 </r>
       <r>   -1.7746    1.0000 </r>
       <r>   -0.0867    0.0000 </r>
       <r>   -0.0863    0.0000 </r>
       <r>    0.3227    0.0000 </r>
       <r>    0.3241    0.0000 </r>
       <r>    0.3246    0.0000 </r>
       <r>    0.3248    0.0000 </r>
       <r>    0.3255    0.0000 </r>
       <r>    0.3269    0.0000 </r>
       <r>    0.5356    0.0000 </r>
       <r>    0.5377    0.0000 </r>
       <r>    0.5387    0.0000 </r>
       <r>    0.5394    0.0000 </r>
       <r>    0.5399    0.0000 </r>
       <r>    0.5414    0.0000 </r>
       <r>    0.9491    0.0000 </r>
       <r>    0.9524    0.0000 </r>
       <r>    1.2291    0.0000 </r>
       <r>    1.2320    0.0000 </r>
       <r>    1.3712    0.0000 </r>
       <r>    1.3925    0.0000 </r>
       <r>    1.4522    0.0000 </r>
      </set>
      <set comment="kpoint 2">
       <r>  -16.5438    1.0000 </r>
       <r>  -15.3641    1.0000 </r>
       <r>  -15.2756    1.0000 </r>
       <r>  -15.2245    1.0000 </r>
       <r>  -15.2212    1.0000 </r>
       <r>  -15.1263    1.0000 </r>
       <r>  -15.1232    1.0000 </r>
       <r>  -15.0794    1.0000 </r>
       <r>  -14.6772    1.0000 </r>
       <r>  -14.6508    1.0000 </r>
       <r>  -14.6476    1.0000 </r>
       <r>  -14.6002    1.0000 </r>
       <r>  -14.5969    1.0000 </r>
       <r>  -14.5759    1.0000 </r>
       <r>  -14.2435    1.0000 </r>
       <r>  -14.2433    1.0000 </r>
       <r>  -14.1221    1.0000 </r>
       <r>  -14.1218    1.0000 </r>
       <r>   -7.9996    1.0000 </r>
       <r>   -7.3575    1.0000 </r>
       <r>   -7.2881    1.0000 </r>
       <r>   -7.2862    1.0000 </r>
       <r>   -7.1635    1.0000 </r>
       <r>   -7.1604    1.0000 </r>
       <r>   -7.1581    1.0000 </r>
       <r>   -7.1564    1.0000 </r>
       <r>   -7.1006    1.0000 </r>
       <r>   -7.0679    1.0000 </r>
       <r>   -7.0623    1.0000 </r>
       <r>   -6.2862    1.0000 </r>
       <r>   -6.2458    1.0000 </r>
       <r>   -6.2263    1.0000 </r>
       <r>   -6.2243    1.0000 </r>
       <r>   -6.2222    1.0000 </r>
       <r>   -6.2210    1.0000 </r>
       <r>   -6.1805    1.0000 </r>
       <r>   -6.1786    1.0000 </r>
       <r>   -6.1576    1.0000 </r>
       <r>   -6.1407    1.0000 </r>
       <r>   -6.1352    1.0000 </r>
       <r>   -6.0904    1.0000 </r>
       <r>   -6.0887    1.0000 </r>
       <r>   -6.0226    1.0000 </r>
       <r>   -5.4991    1.0000 </r>
       <r>   -5.4989    1.0000 </r>
       <r>   -5.1276    1.0000 </r>
       <r>   -5.1222    1.0000 </r>
       <r>   -4.4271    1.0000 </r>
       <r>   -4.4225    1.0000 </r>
       <r>   -4.4144    1.0000 </r>
       <r>   -4.3624    1.0000 </r>
       <r>   -4.3543    1.0000 </r>
       <r>   -4.3014    1.0000 </r>
       <r>   -4.1715    1.0000 </r>
       <r>   -4.1709    1.0000 </r>
       <r>   -4.0586    1.0000 </r>
       <r>   -4.0569    1.0000 </r>
       <r>   -4.0366    1.0000 </r>
       <r>   -3.8314    1.0000 </r>
       <r>   -3.7991    1.0000 </r>
       <r>   -3.7965    1.0000 </r>
       <r>   -3.7534    1.0000 </r>
       <r>   -3.7511    1.0000 </r>
       <r>   -3.7449    1.0000 </r>
       <r>   -3.0948    1.0000 </r>
       <r>   -3.0905    1.0000 </r>
       <r>   -3.0862    1.0000 </r>
       <r>   -3.0843    1.0000 </r>
       <r>   -3.0528    1.0000 </r>
       <r>   -3.0165    1.0000 </r>
       <r>   -2.9605    1.0000 </r>
       <r>   -2.9208    1.0000 </r>
       <r>   -2.9104    1.0000 </r>
       <r>   -2.8867    1.0000 </r>
       <r>   -2.8830    1.0000 </r>
       <r>   -2.8434    1.0000 </r>
       <r>   -2.8412    1.0000 </r>
       <r>   -2.8361    1.0000 </r>
       <r>   -2.2365    1.0000 </r>
       <r>   -1.7852    1.0000 </r>
       <r>   -1.7847    1.0000 </r>
       <r>   -0.0741    0.0000 </r>
       <r>   -0.0733    0.0000 </r>
       <r>    0.2617    0.0000 </r>
       <r>    0.2773    0.0000 </r>
       <r>    0.2792    0.0000 </r>
       <r>    0.3399    0.0000 </r>
       <r>    0.3418    0.0000 </r>
       <r>    0.3935    0.0000 </r>
       <r>    0.5429    0.0000 </r>
       <r>    0.5435    0.0000 </r>
       <r>    0.5488    0.0000 </r>
       <r>    0.5526    0.0000 </r>
       <r>    0.5548    0.0000 </r>
       <r>    0.5562    0.0000 </r>
       <r>    0.9542    0.0000 </r>
       <r>    0.9574    0.0000 </r>
       <r>    1.2177    0.0000 </r>
       <r>    1.2384    0.0000 </r>
       <r>    1.3470    0.0000 </r>
       <r>    1.3708    0.0000 </r>
       <r>    1.3923    0.0000 </r>
      </set>
      <set comment="kpoint 3">
       <r>  -16.5325    1.0000 </r>
       <r>  -15.3759    1.0000 </r>
       <r>  -15.3578    1.0000 </r>
       <r>  -15.2682    1.0000 </r>
       <r>  -15.2648    1.0000 </r>
       <r>  -15.0726    1.0000 </r>
       <r>  -15.0695    1.0000 </r>
       <r>  -14.9862    1.0000 </r>
       <r>  -14.7297    1.0000 </r>
       <r>  -14.6732    1.0000 </r>
       <r>  -14.6701    1.0000 </r>
       <r>  -14.5723    1.0000 </r>
       <r>  -14.5690    1.0000 </r>
       <r>  -14.5285    1.0000 </r>
       <r>  -14.2537    1.0000 </r>
       <r>  -14.2533    1.0000 </r>
       <r>  -14.1281    1.0000 </r>
       <r>  -14.1274    1.0000 </r>
       <r>   -7.9847    1.0000 </r>
       <r>   -7.4914    1.0000 </r>
       <r>   -7.3480    1.0000 </r>
       <r>   -7.3461    1.0000 </r>
       <r>   -7.1510    1.0000 </r>
       <r>   -7.1477    1.0000 </r>
       <r>   -7.1158    1.0000 </r>
       <r>   -7.1104    1.0000 </r>
       <r>   -7.0914    1.0000 </r>
       <r>   -7.0896    1.0000 </r>
       <r>   -7.0026    1.0000 </r>
       <r>   -6.4073    1.0000 </r>
       <r>   -6.2849    1.0000 </r>
       <r>   -6.2839    1.0000 </r>
       <r>   -6.2636    1.0000 </r>
       <r>   -6.2436    1.0000 </r>
       <r>   -6.2414    1.0000 </r>
       <r>   -6.1526    1.0000 </r>
       <r>   -6.1509    1.0000 </r>
       <r>   -6.1118    1.0000 </r>
       <r>   -6.0756    1.0000 </r>
       <r>   -6.0702    1.0000 </r>
       <r>   -6.0205    1.0000 </r>
       <r>   -6.0185    1.0000 </r>
       <r>   -5.8837    1.0000 </r>
       <r>   -5.4902    1.0000 </r>
       <r>   -5.4896    1.0000 </r>
       <r>   -5.1331    1.0000 </r>
       <r>   -5.1277    1.0000 </r>
       <r>   -4.4969    1.0000 </r>
       <r>   -4.4892    1.0000 </r>
       <r>   -4.4813    1.0000 </r>
       <r>   -4.3876    1.0000 </r>
       <r>   -4.3802    1.0000 </r>
       <r>   -4.2315    1.0000 </r>
       <r>   -4.1554    1.0000 </r>
       <r>   -4.1544    1.0000 </r>
       <r>   -4.0928    1.0000 </r>
       <r>   -4.0833    1.0000 </r>
       <r>   -4.0255    1.0000 </r>
       <r>   -3.8664    1.0000 </r>
       <r>   -3.7870    1.0000 </r>
       <r>   -3.7846    1.0000 </r>
       <r>   -3.6932    1.0000 </r>
       <r>   -3.6855    1.0000 </r>
       <r>   -3.6840    1.0000 </r>
       <r>   -3.1824    1.0000 </r>
       <r>   -3.1787    1.0000 </r>
       <r>   -3.1777    1.0000 </r>
       <r>   -3.1752    1.0000 </r>
       <r>   -3.0475    1.0000 </r>
       <r>   -3.0266    1.0000 </r>
       <r>   -2.9752    1.0000 </r>
       <r>   -2.9397    1.0000 </r>
       <r>   -2.9084    1.0000 </r>
       <r>   -2.8318    1.0000 </r>
       <r>   -2.8287    1.0000 </r>
       <r>   -2.7933    1.0000 </r>
       <r>   -2.7579    1.0000 </r>
       <r>   -2.7537    1.0000 </r>
       <r>   -2.2381    1.0000 </r>
       <r>   -1.8143    1.0000 </r>
       <r>   -1.8137    1.0000 </r>
       <r>   -0.0377    0.0000 </r>
       <r>   -0.0363    0.0000 </r>
       <r>    0.2065    0.0000 </r>
       <r>    0.2155    0.0000 </r>
       <r>    0.2175    0.0000 </r>
       <r>    0.3276    0.0000 </r>
       <r>    0.3304    0.0000 </r>
       <r>    0.4672    0.0000 </r>
       <r>    0.5538    0.0000 </r>
       <r>    0.5542    0.0000 </r>
       <r>    0.5740    0.0000 </r>
       <r>    0.5781    0.0000 </r>
       <r>    0.6005    0.0000 </r>
       <r>    0.6021    0.0000 </r>
       <r>    0.9692    0.0000 </r>
       <r>    0.9724    0.0000 </r>
       <r>    1.1837    0.0000 </r>
       <r>    1.2606    0.0000 </r>
       <r>    1.2823    0.0000 </r>
       <r>    1.2914    0.0000 </r>
       <r>    1.3409    0.0000 </r>
      </set>
      <set comment="kpoint 4">
       <r>  -16.5137    1.0000 </r>
       <r>  -15.4763    1.0000 </r>
       <r>  -15.3474    1.0000 </r>
       <r>  -15.3078    1.0000 </r>
       <r>  -15.3044    1.0000 </r>
       <r>  -15.0164    1.0000 </r>
       <r>  -15.0134    1.0000 </r>
       <r>  -14.8979    1.0000 </r>
       <r>  -14.7827    1.0000 </r>
       <r>  -14.6935    1.0000 </r>
       <r>  -14.6905    1.0000 </r>
       <r>  -14.5431    1.0000 </r>
       <r>  -14.5398    1.0000 </r>
       <r>  -14.4841    1.0000 </r>
       <r>  -14.2704    1.0000 </r>
       <r>  -14.2698    1.0000 </r>
       <r>  -14.1378    1.0000 </r>
       <r>  -14.1367    1.0000 </r>
       <r>   -7.9599    1.0000 </r>
       <r>   -7.6202    1.0000 </r>
       <r>   -7.4029    1.0000 </r>
       <r>   -7.4010    1.0000 </r>
       <r>   -7.1809    1.0000 </r>
       <r>   -7.1757    1.0000 </r>
       <r>   -7.1307    1.0000 </r>
       <r>   -7.1272    1.0000 </r>
       <r>   -7.0256    1.0000 </r>
       <r>   -7.0240    1.0000 </r>
       <r>   -6.9508    1.0000 </r>
       <r>   -6.5194    1.0000 </r>
       <r>   -6.3458    1.0000 </r>
       <r>   -6.3447    1.0000 </r>
       <r>   -6.2570    1.0000 </r>
       <r>   -6.2547    1.0000 </r>
       <r>   -6.2377    1.0000 </r>
       <r>   -6.1221    1.0000 </r>
       <r>   -6.1205    1.0000 </r>
       <r>   -6.0717    1.0000 </r>
       <r>   -5.9882    1.0000 </r>
       <r>   -5.9833    1.0000 </r>
       <r>   -5.9480    1.0000 </r>
       <r>   -5.9457    1.0000 </r>
       <r>   -5.7423    1.0000 </r>
       <r>   -5.4694    1.0000 </r>
       <r>   -5.4682    1.0000 </r>
       <r>   -5.1410    1.0000 </r>
       <r>   -5.1355    1.0000 </r>
       <r>   -4.5838    1.0000 </r>
       <r>   -4.5766    1.0000 </r>
       <r>   -4.5306    1.0000 </r>
       <r>   -4.4405    1.0000 </r>
       <r>   -4.4338    1.0000 </r>
       <r>   -4.1573    1.0000 </r>
       <r>   -4.1517    1.0000 </r>
       <r>   -4.1296    1.0000 </r>
       <r>   -4.1282    1.0000 </r>
       <r>   -4.1231    1.0000 </r>
       <r>   -4.0066    1.0000 </r>
       <r>   -3.8964    1.0000 </r>
       <r>   -3.7675    1.0000 </r>
       <r>   -3.7653    1.0000 </r>
       <r>   -3.6356    1.0000 </r>
       <r>   -3.5982    1.0000 </r>
       <r>   -3.5973    1.0000 </r>
       <r>   -3.2858    1.0000 </r>
       <r>   -3.2813    1.0000 </r>
       <r>   -3.2780    1.0000 </r>
       <r>   -3.2747    1.0000 </r>
       <r>   -3.0967    1.0000 </r>
       <r>   -3.0277    1.0000 </r>
       <r>   -2.9732    1.0000 </r>
       <r>   -2.9208    1.0000 </r>
       <r>   -2.9047    1.0000 </r>
       <r>   -2.7769    1.0000 </r>
       <r>   -2.7740    1.0000 </r>
       <r>   -2.7493    1.0000 </r>
       <r>   -2.6779    1.0000 </r>
       <r>   -2.6744    1.0000 </r>
       <r>   -2.2411    1.0000 </r>
       <r>   -1.8587    1.0000 </r>
       <r>   -1.8579    1.0000 </r>
       <r>    0.0178    0.0000 </r>
       <r>    0.0196    0.0000 </r>
       <r>    0.1494    0.0000 </r>
       <r>    0.1515    0.0000 </r>
       <r>    0.1606    0.0000 </r>
       <r>    0.3067    0.0000 </r>
       <r>    0.3098    0.0000 </r>
       <r>    0.5443    0.0000 </r>
       <r>    0.5694    0.0000 </r>
       <r>    0.5734    0.0000 </r>
       <r>    0.6008    0.0000 </r>
       <r>    0.6048    0.0000 </r>
       <r>    0.6589    0.0000 </r>
       <r>    0.6615    0.0000 </r>
       <r>    0.9938    0.0000 </r>
       <r>    0.9971    0.0000 </r>
       <r>    1.1317    0.0000 </r>
       <r>    1.1833    0.0000 </r>
       <r>    1.2031    0.0000 </r>
       <r>    1.2685    0.0000 </r>
       <r>    1.2850    0.0000 </r>
      </set>
      <set comment="kpoint 5">
       <r>  -16.4874    1.0000 </r>
       <r>  -15.5758    1.0000 </r>
       <r>  -15.3433    1.0000 </r>
       <r>  -15.3399    1.0000 </r>
       <r>  -15.3325    1.0000 </r>
       <r>  -14.9582    1.0000 </r>
       <r>  -14.9554    1.0000 </r>
       <r>  -14.8356    1.0000 </r>
       <r>  -14.8162    1.0000 </r>
       <r>  -14.7116    1.0000 </r>
       <r>  -14.7086    1.0000 </r>
       <r>  -14.5127    1.0000 </r>
       <r>  -14.5094    1.0000 </r>
       <r>  -14.4433    1.0000 </r>
       <r>  -14.2935    1.0000 </r>
       <r>  -14.2927    1.0000 </r>
       <r>  -14.1510    1.0000 </r>
       <r>  -14.1497    1.0000 </r>
       <r>   -7.9254    1.0000 </r>
       <r>   -7.7401    1.0000 </r>
       <r>   -7.4517    1.0000 </r>
       <r>   -7.4497    1.0000 </r>
       <r>   -7.2521    1.0000 </r>
       <r>   -7.2472    1.0000 </r>
       <r>   -7.1028    1.0000 </r>
       <r>   -7.0993    1.0000 </r>
       <r>   -6.9629    1.0000 </r>
       <r>   -6.9614    1.0000 </r>
       <r>   -6.9549    1.0000 </r>
       <r>   -6.6209    1.0000 </r>
       <r>   -6.4055    1.0000 </r>
       <r>   -6.4043    1.0000 </r>
       <r>   -6.2661    1.0000 </r>
       <r>   -6.2637    1.0000 </r>
       <r>   -6.1577    1.0000 </r>
       <r>   -6.0892    1.0000 </r>
       <r>   -6.0878    1.0000 </r>
       <r>   -6.0388    1.0000 </r>
       <r>   -5.9012    1.0000 </r>
       <r>   -5.8971    1.0000 </r>
       <r>   -5.8729    1.0000 </r>
       <r>   -5.8704    1.0000 </r>
       <r>   -5.6001    1.0000 </r>
       <r>   -5.4255    1.0000 </r>
       <r>   -5.4233    1.0000 </r>
       <r>   -5.1496    1.0000 </r>
       <r>   -5.1442    1.0000 </r>
       <r>   -4.6744    1.0000 </r>
       <r>   -4.6676    1.0000 </r>
       <r>   -4.5741    1.0000 </r>
       <r>   -4.5109    1.0000 </r>
       <r>   -4.5049    1.0000 </r>
       <r>   -4.2323    1.0000 </r>
       <r>   -4.1765    1.0000 </r>
       <r>   -4.0959    1.0000 </r>
       <r>   -4.0941    1.0000 </r>
       <r>   -4.0787    1.0000 </r>
       <r>   -3.9804    1.0000 </r>
       <r>   -3.9218    1.0000 </r>
       <r>   -3.7489    1.0000 </r>
       <r>   -3.7469    1.0000 </r>
       <r>   -3.5724    1.0000 </r>
       <r>   -3.5026    1.0000 </r>
       <r>   -3.5021    1.0000 </r>
       <r>   -3.4029    1.0000 </r>
       <r>   -3.3980    1.0000 </r>
       <r>   -3.3767    1.0000 </r>
       <r>   -3.3730    1.0000 </r>
       <r>   -3.1698    1.0000 </r>
       <r>   -3.0190    1.0000 </r>
       <r>   -2.9964    1.0000 </r>
       <r>   -2.9031    1.0000 </r>
       <r>   -2.8561    1.0000 </r>
       <r>   -2.7273    1.0000 </r>
       <r>   -2.7245    1.0000 </r>
       <r>   -2.7113    1.0000 </r>
       <r>   -2.6056    1.0000 </r>
       <r>   -2.6026    1.0000 </r>
       <r>   -2.2462    1.0000 </r>
       <r>   -1.9134    1.0000 </r>
       <r>   -1.9125    1.0000 </r>
       <r>    0.0844    0.0000 </r>
       <r>    0.0859    0.0000 </r>
       <r>    0.0868    0.0000 </r>
       <r>    0.0882    0.0000 </r>
       <r>    0.1256    0.0000 </r>
       <r>    0.2899    0.0000 </r>
       <r>    0.2930    0.0000 </r>
       <r>    0.5880    0.0000 </r>
       <r>    0.6005    0.0000 </r>
       <r>    0.6242    0.0000 </r>
       <r>    0.6249    0.0000 </r>
       <r>    0.6284    0.0000 </r>
       <r>    0.7200    0.0000 </r>
       <r>    0.7235    0.0000 </r>
       <r>    1.0275    0.0000 </r>
       <r>    1.0308    0.0000 </r>
       <r>    1.0648    0.0000 </r>
       <r>    1.0673    0.0000 </r>
       <r>    1.1043    0.0000 </r>
       <r>    1.1816    0.0000 </r>
       <r>    1.1836    0.0000 </r>
      </set>
      <set comment="kpoint 6">
       <r>  -16.4538    1.0000 </r>
       <r>  -15.6735    1.0000 </r>
       <r>  -15.3739    1.0000 </r>
       <r>  -15.3704    1.0000 </r>
       <r>  -15.3142    1.0000 </r>
       <r>  -14.8986    1.0000 </r>
       <r>  -14.8959    1.0000 </r>
       <r>  -14.8878    1.0000 </r>
       <r>  -14.7424    1.0000 </r>
       <r>  -14.7272    1.0000 </r>
       <r>  -14.7243    1.0000 </r>
       <r>  -14.4814    1.0000 </r>
       <r>  -14.4781    1.0000 </r>
       <r>  -14.4069    1.0000 </r>
       <r>  -14.3226    1.0000 </r>
       <r>  -14.3216    1.0000 </r>
       <r>  -14.1677    1.0000 </r>
       <r>  -14.1660    1.0000 </r>
       <r>   -7.8815    1.0000 </r>
       <r>   -7.8482    1.0000 </r>
       <r>   -7.4933    1.0000 </r>
       <r>   -7.4914    1.0000 </r>
       <r>   -7.3222    1.0000 </r>
       <r>   -7.3176    1.0000 </r>
       <r>   -7.0679    1.0000 </r>
       <r>   -7.0643    1.0000 </r>
       <r>   -7.0035    1.0000 </r>
       <r>   -6.9052    1.0000 </r>
       <r>   -6.9038    1.0000 </r>
       <r>   -6.7105    1.0000 </r>
       <r>   -6.4646    1.0000 </r>
       <r>   -6.4630    1.0000 </r>
       <r>   -6.2710    1.0000 </r>
       <r>   -6.2686    1.0000 </r>
       <r>   -6.0546    1.0000 </r>
       <r>   -6.0532    1.0000 </r>
       <r>   -6.0343    1.0000 </r>
       <r>   -6.0134    1.0000 </r>
       <r>   -5.8362    1.0000 </r>
       <r>   -5.8333    1.0000 </r>
       <r>   -5.7960    1.0000 </r>
       <r>   -5.7932    1.0000 </r>
       <r>   -5.4588    1.0000 </r>
       <r>   -5.3451    1.0000 </r>
       <r>   -5.3416    1.0000 </r>
       <r>   -5.1572    1.0000 </r>
       <r>   -5.1518    1.0000 </r>
       <r>   -4.7629    1.0000 </r>
       <r>   -4.7564    1.0000 </r>
       <r>   -4.6116    1.0000 </r>
       <r>   -4.5915    1.0000 </r>
       <r>   -4.5859    1.0000 </r>
       <r>   -4.3322    1.0000 </r>
       <r>   -4.2415    1.0000 </r>
       <r>   -4.0561    1.0000 </r>
       <r>   -4.0541    1.0000 </r>
       <r>   -3.9968    1.0000 </r>
       <r>   -3.9473    1.0000 </r>
       <r>   -3.9426    1.0000 </r>
       <r>   -3.7360    1.0000 </r>
       <r>   -3.7340    1.0000 </r>
       <r>   -3.5333    1.0000 </r>
       <r>   -3.5282    1.0000 </r>
       <r>   -3.5041    1.0000 </r>
       <r>   -3.4697    1.0000 </r>
       <r>   -3.4658    1.0000 </r>
       <r>   -3.4069    1.0000 </r>
       <r>   -3.4066    1.0000 </r>
       <r>   -3.2451    1.0000 </r>
       <r>   -3.0752    1.0000 </r>
       <r>   -2.9574    1.0000 </r>
       <r>   -2.9067    1.0000 </r>
       <r>   -2.7840    1.0000 </r>
       <r>   -2.6841    1.0000 </r>
       <r>   -2.6815    1.0000 </r>
       <r>   -2.6793    1.0000 </r>
       <r>   -2.5419    1.0000 </r>
       <r>   -2.5393    1.0000 </r>
       <r>   -2.2543    1.0000 </r>
       <r>   -1.9738    1.0000 </r>
       <r>   -1.9729    1.0000 </r>
       <r>    0.0238    0.0000 </r>
       <r>    0.0261    0.0000 </r>
       <r>    0.1036    0.0000 </r>
       <r>    0.1599    0.0000 </r>
       <r>    0.1622    0.0000 </r>
       <r>    0.2833    0.0000 </r>
       <r>    0.2861    0.0000 </r>
       <r>    0.6091    0.0000 </r>
       <r>    0.6352    0.0000 </r>
       <r>    0.6444    0.0000 </r>
       <r>    0.6477    0.0000 </r>
       <r>    0.7046    0.0000 </r>
       <r>    0.7793    0.0000 </r>
       <r>    0.7835    0.0000 </r>
       <r>    0.9359    0.0000 </r>
       <r>    0.9978    0.0000 </r>
       <r>    1.0241    0.0000 </r>
       <r>    1.0696    0.0000 </r>
       <r>    1.0730    0.0000 </r>
       <r>    1.0949    0.0000 </r>
       <r>    1.0972    0.0000 </r>
      </set>
      <set comment="kpoint 7">
       <r>  -16.4131    1.0000 </r>
       <r>  -15.7686    1.0000 </r>
       <r>  -15.3998    1.0000 </r>
       <r>  -15.3963    1.0000 </r>
       <r>  -15.2917    1.0000 </r>
       <r>  -14.9390    1.0000 </r>
       <r>  -14.8381    1.0000 </r>
       <r>  -14.8354    1.0000 </r>
       <r>  -14.7405    1.0000 </r>
       <r>  -14.7376    1.0000 </r>
       <r>  -14.6780    1.0000 </r>
       <r>  -14.4494    1.0000 </r>
       <r>  -14.4461    1.0000 </r>
       <r>  -14.3755    1.0000 </r>
       <r>  -14.3575    1.0000 </r>
       <r>  -14.3562    1.0000 </r>
       <r>  -14.1874    1.0000 </r>
       <r>  -14.1855    1.0000 </r>
[...]
       <r>   -5.8625    1.0000 </r>
       <r>   -5.8609    1.0000 </r>
       <r>   -5.5872    1.0000 </r>
       <r>   -5.3562    1.0000 </r>
       <r>   -5.1306    1.0000 </r>
       <r>   -5.1297    1.0000 </r>
       <r>   -5.1275    1.0000 </r>
       <r>   -5.1265    1.0000 </r>
       <r>   -5.0660    1.0000 </r>
       <r>   -5.0651    1.0000 </r>
       <r>   -5.0272    1.0000 </r>
       <r>   -4.8497    1.0000 </r>
       <r>   -4.7518    1.0000 </r>
       <r>   -4.7506    1.0000 </r>
       <r>   -4.7206    1.0000 </r>
       <r>   -4.5088    1.0000 </r>
       <r>   -4.5080    1.0000 </r>
       <r>   -4.3603    1.0000 </r>
       <r>   -4.3592    1.0000 </r>
       <r>   -3.9878    1.0000 </r>
       <r>   -3.8562    1.0000 </r>
       <r>   -3.8551    1.0000 </r>
       <r>   -3.8336    1.0000 </r>
       <r>   -3.7718    1.0000 </r>
       <r>   -3.7707    1.0000 </r>
       <r>   -3.6715    1.0000 </r>
       <r>   -3.6576    1.0000 </r>
       <r>   -3.6566    1.0000 </r>
       <r>   -3.5414    1.0000 </r>
       <r>   -3.5373    1.0000 </r>
       <r>   -3.1534    1.0000 </r>
       <r>   -3.0847    1.0000 </r>
       <r>   -3.0815    1.0000 </r>
       <r>   -3.0646    1.0000 </r>
       <r>   -2.8473    1.0000 </r>
       <r>   -2.5827    1.0000 </r>
       <r>   -2.5705    1.0000 </r>
       <r>   -2.5502    1.0000 </r>
       <r>   -2.4054    1.0000 </r>
       <r>   -2.4036    1.0000 </r>
       <r>   -2.3027    1.0000 </r>
       <r>   -2.3017    1.0000 </r>
       <r>   -2.2667    1.0000 </r>
       <r>   -2.2655    1.0000 </r>
       <r>   -0.1546    0.0000 </r>
       <r>   -0.1276    0.0000 </r>
       <r>    0.2866    0.0000 </r>
       <r>    0.2892    0.0000 </r>
       <r>    0.3425    0.0000 </r>
       <r>    0.3435    0.0000 </r>
       <r>    0.4282    0.0000 </r>
       <r>    0.4291    0.0000 </r>
       <r>    0.6592    0.0000 </r>
       <r>    0.6847    0.0000 </r>
       <r>    0.7156    0.0000 </r>
       <r>    0.7653    0.0000 </r>
       <r>    0.7686    0.0000 </r>
       <r>    0.7709    0.0000 </r>
       <r>    0.8489    0.0000 </r>
       <r>    0.9147    0.0000 </r>
       <r>    0.9176    0.0000 </r>
       <r>    1.0074    0.0000 </r>
       <r>    1.0406    0.0000 </r>
       <r>    1.0455    0.0000 </r>
       <r>    1.0804    0.0000 </r>
      </set>
     </set>
    </set>
   </array>
  </eigenvalues>
  <separator name="orbital magnetization" >
   <v name="MAGDIPOLOUT">      0.00000000      0.00000000      0.00000000</v>
  </separator>
  <dos>
   <i name="efermi">     -1.72326858 </i>
   <total>
    <array>
     <dimension dim="1">gridpoints</dimension>
     <dimension dim="2">spin</dimension>
     <field>energy</field>
     <field>total</field>
     <field>integrated</field>
     <set>
      <set comment="spin 1">
       <r>   -17.4476     0.0000     0.0000 </r>
       <r>   -17.3816     0.0000     0.0000 </r>
       <r>   -17.3156     0.0000     0.0000 </r>
       <r>   -17.2496     0.0000     0.0000 </r>
       <r>   -17.1836     0.0000     0.0000 </r>
       <r>   -17.1176     0.0000     0.0000 </r>
       <r>   -17.0516     0.0000     0.0000 </r>
       <r>   -16.9856     0.0000     0.0000 </r>
       <r>   -16.9196     0.0000     0.0000 </r>
       <r>   -16.8536     0.0000     0.0000 </r>
       <r>   -16.7876     0.0000     0.0000 </r>
       <r>   -16.7216     0.0000     0.0000 </r>
       <r>   -16.6556     0.0000     0.0000 </r>
       <r>   -16.5896     0.0000     0.0000 </r>
       <r>   -16.5236     1.5818     0.1044 </r>
       <r>   -16.4576     4.3665     0.3926 </r>
       <r>   -16.3916     4.5870     0.6956 </r>
       <r>   -16.3256     4.1993     0.9731 </r>
       <r>   -16.2596     4.9153     1.2975 </r>
       <r>   -16.1936     4.7254     1.6096 </r>
       <r>   -16.1276     4.7413     1.9231 </r>
       <r>   -16.0616     4.9052     2.2474 </r>
       <r>   -15.9956     4.6441     2.5540 </r>
       <r>   -15.9296     5.2577     2.9011 </r>
       <r>   -15.8636     4.4864     3.1976 </r>
       <r>   -15.7976     4.8025     3.5148 </r>
       <r>   -15.7316     5.3159     3.8667 </r>
       <r>   -15.6656     5.9420     4.2589 </r>
       <r>   -15.5996     5.8037     4.6422 </r>
       <r>   -15.5336     4.9336     4.9680 </r>
       <r>   -15.4676     5.6868     5.3433 </r>
       <r>   -15.4016     6.5729     5.7771 </r>
       <r>   -15.3356     9.8645     6.4286 </r>
       <r>   -15.2696    13.7312     7.3360 </r>
       <r>   -15.2036    15.0461     8.3298 </r>
       <r>   -15.1376    15.8364     9.3753 </r>
       <r>   -15.0716    16.2114    10.4453 </r>
       <r>   -15.0056    15.7553    11.4855 </r>
       <r>   -14.9396    17.4877    12.6399 </r>
       <r>   -14.8736    18.7923    13.8806 </r>
       <r>   -14.8076    20.3137    15.2230 </r>
       <r>   -14.7416    21.1949    16.6220 </r>
       <r>   -14.6756    22.2740    18.0942 </r>
       <r>   -14.6096    26.7183    19.8584 </r>
       <r>   -14.5436    32.2144    21.9862 </r>
       <r>   -14.4776    38.3869    24.5213 </r>
       <r>   -14.4116    31.2143    26.5848 </r>
       <r>   -14.3456    37.0380    29.0306 </r>
       <r>   -14.2796    47.2412    32.1504 </r>
       <r>   -14.2136    31.0361    34.2014 </r>
       <r>   -14.1476    19.8648    35.5153 </r>
       <r>   -14.0816     7.3159    36.0000 </r>
       <r>   -14.0156     0.0000    36.0000 </r>
       <r>   -13.9496     0.0000    36.0000 </r>
       <r>   -13.8836     0.0000    36.0000 </r>
       <r>   -13.8176     0.0000    36.0000 </r>
       <r>   -13.7516     0.0000    36.0000 </r>
       <r>   -13.6856     0.0000    36.0000 </r>
       <r>   -13.6196     0.0000    36.0000 </r>
       <r>   -13.5536     0.0000    36.0000 </r>
       <r>   -13.4876     0.0000    36.0000 </r>
       <r>   -13.4216     0.0000    36.0000 </r>
       <r>   -13.3556     0.0000    36.0000 </r>
       <r>   -13.2896     0.0000    36.0000 </r>
       <r>   -13.2236     0.0000    36.0000 </r>
       <r>   -13.1576     0.0000    36.0000 </r>
       <r>   -13.0916     0.0000    36.0000 </r>
       <r>   -13.0256     0.0000    36.0000 </r>
       <r>   -12.9596     0.0000    36.0000 </r>
       <r>   -12.8936     0.0000    36.0000 </r>
       <r>   -12.8276     0.0000    36.0000 </r>
       <r>   -12.7616     0.0000    36.0000 </r>
       <r>   -12.6956     0.0000    36.0000 </r>
       <r>   -12.6296     0.0000    36.0000 </r>
       <r>   -12.5636     0.0000    36.0000 </r>
       <r>   -12.4976     0.0000    36.0000 </r>
       <r>   -12.4316     0.0000    36.0000 </r>
       <r>   -12.3656     0.0000    36.0000 </r>
       <r>   -12.2996     0.0000    36.0000 </r>
       <r>   -12.2336     0.0000    36.0000 </r>
       <r>   -12.1676     0.0000    36.0000 </r>
       <r>   -12.1016     0.0000    36.0000 </r>
       <r>   -12.0356     0.0000    36.0000 </r>
       <r>   -11.9696     0.0000    36.0000 </r>
       <r>   -11.9036     0.0000    36.0000 </r>
       <r>   -11.8376     0.0000    36.0000 </r>
       <r>   -11.7716     0.0000    36.0000 </r>
       <r>   -11.7056     0.0000    36.0000 </r>
       <r>   -11.6396     0.0000    36.0000 </r>
       <r>   -11.5736     0.0000    36.0000 </r>
       <r>   -11.5077     0.0000    36.0000 </r>
       <r>   -11.4417     0.0000    36.0000 </r>
       <r>   -11.3757     0.0000    36.0000 </r>
       <r>   -11.3097     0.0000    36.0000 </r>
       <r>   -11.2437     0.0000    36.0000 </r>
       <r>   -11.1777     0.0000    36.0000 </r>
       <r>   -11.1117     0.0000    36.0000 </r>
       <r>   -11.0457     0.0000    36.0000 </r>
       <r>   -10.9797     0.0000    36.0000 </r>
       <r>   -10.9137     0.0000    36.0000 </r>
       <r>   -10.8477     0.0000    36.0000 </r>
       <r>   -10.7817     0.0000    36.0000 </r>
       <r>   -10.7157     0.0000    36.0000 </r>
       <r>   -10.6497     0.0000    36.0000 </r>
       <r>   -10.5837     0.0000    36.0000 </r>
       <r>   -10.5177     0.0000    36.0000 </r>
       <r>   -10.4517     0.0000    36.0000 </r>
       <r>   -10.3857     0.0000    36.0000 </r>
       <r>   -10.3197     0.0000    36.0000 </r>
       <r>   -10.2537     0.0000    36.0000 </r>
       <r>   -10.1877     0.0000    36.0000 </r>
       <r>   -10.1217     0.0000    36.0000 </r>
       <r>   -10.0557     0.0000    36.0000 </r>
       <r>    -9.9897     0.0000    36.0000 </r>
       <r>    -9.9237     0.0000    36.0000 </r>
       <r>    -9.8577     0.0000    36.0000 </r>
       <r>    -9.7917     0.0000    36.0000 </r>
       <r>    -9.7257     0.0000    36.0000 </r>
       <r>    -9.6597     0.0000    36.0000 </r>
       <r>    -9.5937     0.0000    36.0000 </r>
       <r>    -9.5277     0.0000    36.0000 </r>
       <r>    -9.4617     0.0000    36.0000 </r>
       <r>    -9.3957     0.0000    36.0000 </r>
       <r>    -9.3297     0.0000    36.0000 </r>
       <r>    -9.2637     0.0000    36.0000 </r>
       <r>    -9.1977     0.0000    36.0000 </r>
       <r>    -9.1317     0.0000    36.0000 </r>
       <r>    -9.0657     0.0000    36.0000 </r>
       <r>    -8.9997     0.0000    36.0000 </r>
       <r>    -8.9337     0.0000    36.0000 </r>
       <r>    -8.8677     0.0000    36.0000 </r>
       <r>    -8.8017     0.0000    36.0000 </r>
       <r>    -8.7357     0.0000    36.0000 </r>
       <r>    -8.6697     0.0000    36.0000 </r>
       <r>    -8.6037     0.0000    36.0000 </r>
       <r>    -8.5377     0.0000    36.0000 </r>
       <r>    -8.4717     0.0000    36.0000 </r>
       <r>    -8.4057     0.0000    36.0000 </r>
       <r>    -8.3397     0.0000    36.0000 </r>
       <r>    -8.2737     0.0000    36.0000 </r>
       <r>    -8.2077     0.0000    36.0000 </r>
       <r>    -8.1417     0.3951    36.0261 </r>
       <r>    -8.0757     6.6039    36.4619 </r>
       <r>    -8.0097     7.7892    36.9761 </r>
       <r>    -7.9437    10.5132    37.6701 </r>
       <r>    -7.8777    10.9100    38.3912 </r>
       <r>    -7.8117    11.2637    39.1362 </r>
       <r>    -7.7457    10.3993    39.8235 </r>
       <r>    -7.6797    12.6489    40.6585 </r>
       <r>    -7.6137    12.8701    41.5089 </r>
       <r>    -7.5477    13.6604    42.4119 </r>
       <r>    -7.4817    12.7164    43.2527 </r>
       <r>    -7.4157    12.8009    44.0978 </r>
       <r>    -7.3497    17.2956    45.2397 </r>
       <r>    -7.2837    22.0926    46.6985 </r>
       <r>    -7.2177    18.6219    47.9293 </r>
       <r>    -7.1517    16.0151    48.9878 </r>
       <r>    -7.0857    22.8062    50.4939 </r>
       <r>    -7.0197    25.8738    52.2027 </r>
       <r>    -6.9537    31.1750    54.2618 </r>
       <r>    -6.8877    39.3288    56.8599 </r>
       <r>    -6.8217    24.0295    58.4488 </r>
       <r>    -6.7557    19.5341    59.7393 </r>
       <r>    -6.6897    11.4816    60.4975 </r>
       <r>    -6.6237     8.9666    61.0895 </r>
       <r>    -6.5577     9.1307    61.6931 </r>
       <r>    -6.4917     5.8547    62.0812 </r>
       <r>    -6.4257     6.4750    62.5085 </r>
       <r>    -6.3597     6.5815    62.9430 </r>
       <r>    -6.2937     7.6692    63.4493 </r>
       <r>    -6.2277    31.4177    65.5228 </r>
       <r>    -6.1617    23.3630    67.0661 </r>
       <r>    -6.0957    23.4734    68.6162 </r>
       <r>    -6.0297    25.4034    70.2942 </r>
       <r>    -5.9637    39.4658    72.9001 </r>
       <r>    -5.8977    42.1432    75.6836 </r>
       <r>    -5.8317    37.1431    78.1364 </r>
       <r>    -5.7657    34.7437    80.4316 </r>
       <r>    -5.6997    10.0506    81.0960 </r>
       <r>    -5.6337     7.4373    81.5882 </r>
       <r>    -5.5677     6.1453    81.9949 </r>
       <r>    -5.5017     7.5964    82.4969 </r>
       <r>    -5.4357    12.8744    83.3473 </r>
       <r>    -5.3697    11.2461    84.0898 </r>
       <r>    -5.3037     9.1038    84.6919 </r>
       <r>    -5.2377    13.9807    85.6150 </r>
       <r>    -5.1717    32.3238    87.7495 </r>
       <r>    -5.1057    44.3831    90.6793 </r>
       <r>    -5.0397    28.2606    92.5461 </r>
       <r>    -4.9737    22.2941    94.0189 </r>
       <r>    -4.9077    24.1282    95.6136 </r>
       <r>    -4.8417    20.8996    96.9949 </r>
       <r>    -4.7757    20.3818    98.3417 </r>
       <r>    -4.7097    27.8116   100.1782 </r>
       <r>    -4.6437    23.4292   101.7255 </r>
       <r>    -4.5777    18.0903   102.9209 </r>
       <r>    -4.5117    18.8363   104.1646 </r>
       <r>    -4.4457    14.8923   105.1482 </r>
       <r>    -4.3797    11.9950   105.9406 </r>
       <r>    -4.3137    16.2239   107.0125 </r>
       <r>    -4.2477    12.9807   107.8703 </r>
       <r>    -4.1817    10.7403   108.5806 </r>
       <r>    -4.1157    22.4390   110.0627 </r>
       <r>    -4.0497    17.6625   111.2290 </r>
       <r>    -3.9837    30.3295   113.2317 </r>
       <r>    -3.9177    53.2672   116.7493 </r>
       <r>    -3.8517    33.2039   118.9436 </r>
       <r>    -3.7857    36.4480   121.3506 </r>
       <r>    -3.7197    28.4152   123.2272 </r>
       <r>    -3.6537    28.1026   125.0856 </r>
       <r>    -3.5877    32.3809   127.2259 </r>
       <r>    -3.5217    32.3007   129.3610 </r>
       <r>    -3.4557    27.8824   131.2024 </r>
       <r>    -3.3897    23.6708   132.7656 </r>
       <r>    -3.3237    21.9039   134.2133 </r>
       <r>    -3.2578    24.0580   135.8013 </r>
       <r>    -3.1918    16.5279   136.8942 </r>
       <r>    -3.1258    19.8331   138.2049 </r>
       <r>    -3.0598    21.3758   139.6159 </r>
       <r>    -2.9938    19.3397   140.8939 </r>
       <r>    -2.9278    19.3380   142.1704 </r>
       <r>    -2.8618    30.2155   144.1650 </r>
       <r>    -2.7958     8.9316   144.7558 </r>
       <r>    -2.7298    10.6403   145.4594 </r>
       <r>    -2.6638    15.5518   146.4867 </r>
       <r>    -2.5978    26.1340   148.2130 </r>
       <r>    -2.5318    34.5584   150.4950 </r>
       <r>    -2.4658    29.6642   152.4539 </r>
       <r>    -2.3998    27.9431   154.2989 </r>
       <r>    -2.3338    26.9584   156.0797 </r>
       <r>    -2.2678    24.8167   157.7187 </r>
       <r>    -2.2018    23.0717   159.2431 </r>
       <r>    -2.1358    11.3378   159.9922 </r>
       <r>    -2.0698     8.7612   160.5710 </r>
       <r>    -2.0038     6.7142   161.0152 </r>
       <r>    -1.9378     5.2608   161.3629 </r>
       <r>    -1.8718     4.3866   161.6526 </r>
       <r>    -1.8058     3.7384   161.8994 </r>
       <r>    -1.7398     1.5247   162.0000 </r>
       <r>    -1.6738     0.0000   162.0000 </r>
       <r>    -1.6078     0.0000   162.0000 </r>
       <r>    -1.5418     0.0000   162.0000 </r>
       <r>    -1.4758     0.0000   162.0000 </r>
       <r>    -1.4098     0.0000   162.0000 </r>
       <r>    -1.3438     0.0000   162.0000 </r>
       <r>    -1.2778     0.0000   162.0000 </r>
       <r>    -1.2118     0.0000   162.0000 </r>
       <r>    -1.1458     0.0000   162.0000 </r>
       <r>    -1.0798     0.0000   162.0000 </r>
       <r>    -1.0138     0.0000   162.0000 </r>
       <r>    -0.9478     0.0000   162.0000 </r>
       <r>    -0.8818     0.0000   162.0000 </r>
       <r>    -0.8158     0.0000   162.0000 </r>
       <r>    -0.7498     0.0000   162.0000 </r>
       <r>    -0.6838     0.0000   162.0000 </r>
       <r>    -0.6178     0.0000   162.0000 </r>
       <r>    -0.5518     0.0000   162.0000 </r>
       <r>    -0.4858     0.0000   162.0000 </r>
       <r>    -0.4198     0.0000   162.0000 </r>
       <r>    -0.3538     0.0000   162.0000 </r>
       <r>    -0.2878     0.0000   162.0000 </r>
       <r>    -0.2218     0.0000   162.0000 </r>
       <r>    -0.1558     0.5411   162.0357 </r>
       <r>    -0.0898    12.7985   162.8804 </r>
       <r>    -0.0238    17.6994   164.0496 </r>
       <r>     0.0422    20.7874   165.4230 </r>
       <r>     0.1082    30.1443   167.4143 </r>
       <r>     0.1742    26.1790   169.1462 </r>
       <r>     0.2402    23.0358   170.6689 </r>
       <r>     0.3062    26.5699   172.4233 </r>
       <r>     0.3722    21.5580   173.8488 </r>
       <r>     0.4382    19.4905   175.1368 </r>
       <r>     0.5042    15.5660   176.1652 </r>
       <r>     0.5702    21.8206   177.6060 </r>
       <r>     0.6362    38.0558   180.1207 </r>
       <r>     0.7022    62.3856   184.2399 </r>
       <r>     0.7682    46.1145   187.2871 </r>
       <r>     0.8342    43.0964   190.1348 </r>
       <r>     0.9002    37.4520   192.6093 </r>
       <r>     0.9662    39.2940   195.2042 </r>
       <r>     1.0322    47.3875   198.3344 </r>
       <r>     1.0982    36.3132   200.7345 </r>
       <r>     1.1642    25.7525   202.4362 </r>
       <r>     1.2302    12.8886   203.2875 </r>
       <r>     1.2962     7.1471   203.7592 </r>
       <r>     1.3622     2.5771   203.9302 </r>
       <r>     1.4282     0.9857   203.9955 </r>
       <r>     1.4942     0.0687   204.0000 </r>
       <r>     1.5602     0.0000   204.0000 </r>
       <r>     1.6262     0.0000   204.0000 </r>
       <r>     1.6922     0.0000   204.0000 </r>
       <r>     1.7582     0.0000   204.0000 </r>
       <r>     1.8242     0.0000   204.0000 </r>
       <r>     1.8902     0.0000   204.0000 </r>
       <r>     1.9562     0.0000   204.0000 </r>
       <r>     2.0222     0.0000   204.0000 </r>
       <r>     2.0882     0.0000   204.0000 </r>
       <r>     2.1542     0.0000   204.0000 </r>
       <r>     2.2202     0.0000   204.0000 </r>
       <r>     2.2862     0.0000   204.0000 </r>
       <r>     2.3522     0.0000   204.0000 </r>
      </set>
     </set>
    </array>
   </total>
  </dos>
 </calculation>
 <structure name="finalpos" >
  <crystal>
   <varray name="basis" >
    <v>       9.84600000       0.00000000       0.00000000 </v>
    <v>       4.92300000       8.52144000       0.00000000 </v>
    <v>       0.00000000       0.00000000      20.00000000 </v>
   </varray>
   <i name="volume">   1678.04196480 </i>
   <varray name="rec_basis" >
    <v>       0.10156409      -0.05867553       0.00000000 </v>
    <v>       0.00000000       0.11735106       0.00000000 </v>
    <v>       0.00000000       0.00000000       0.05000000 </v>
   </varray>
  </crystal>
  <varray name="positions" >
   <v>       0.33330000       0.00006700       0.00000000 </v>
   <v>       0.66663300       0.00006700       0.00000000 </v>
   <v>       0.99996700       0.00006700       0.00000000 </v>
   <v>       0.33330000       0.33340000       0.00000000 </v>
   <v>       0.66663300       0.33340000       0.00000000 </v>
   <v>       0.99996700       0.33340000       0.00000000 </v>
   <v>       0.33330000       0.66673300       0.00000000 </v>
   <v>       0.66663300       0.66673300       0.00000000 </v>
   <v>       0.99996700       0.66673300       0.00000000 </v>
   <v>       0.11109200       0.11013300       0.91545900 </v>
   <v>       0.44442600       0.11114900       0.91545900 </v>
   <v>       0.77775900       0.11114900       0.91545900 </v>
   <v>       0.11109200       0.44448200       0.91545900 </v>
   <v>       0.44442600       0.44448200       0.91545900 </v>
   <v>       0.77775900       0.44448200       0.91545900 </v>
   <v>       0.11109200       0.77781500       0.91545900 </v>
   <v>       0.44442600       0.77781500       0.91545900 </v>
   <v>       0.77775900       0.77781500       0.91545900 </v>
   <v>       0.11109200       0.11114900       0.08454100 </v>
   <v>       0.44442600       0.11114900       0.08454100 </v>
   <v>       0.77775900       0.11114900       0.08454100 </v>
   <v>       0.11109200       0.44448200       0.08454100 </v>
   <v>       0.44442600       0.44448200       0.08454100 </v>
   <v>       0.77775900       0.44448200       0.08454100 </v>
   <v>       0.11109200       0.77781500       0.08454100 </v>
   <v>       0.44442600       0.77781500       0.08454100 </v>
   <v>       0.77775900       0.77781500       0.08454100 </v>
  </varray>
 </structure>
</modeling>
